<event>
 7    1  0.6999029E-005  0.2427423E+03  0.7818608E-02  0.1205109E+00
          2   -1    0    0  502    0  0.00000000000E+00  0.00000000000E+00  0.59307718510E+03  0.59307718510E+03  0.00000000000E+00 0. -1.
          1   -1    0    0  501    0 -0.00000000000E+00 -0.00000000000E+00 -0.24507241899E+04  0.24507241899E+04  0.00000000000E+00 0. -1.
         25    2    1    2    0    0  0.21178138272E+03 -0.21916352220E+03 -0.34660446306E+03  0.47816710831E+03  0.12500050449E+03 0.  0.
          2    1    1    2  501    0 -0.12336924670E+02  0.87293367444E+02 -0.20102182654E+04  0.20121505427E+04  0.00000000000E+00 0. -1.
          1    1    1    2  502    0 -0.19944445805E+03  0.13187015476E+03  0.49917572372E+03  0.55348372398E+03  0.00000000000E+00 0. -1.
         22    1    3    3    0    0 -0.78562273506E+01 -0.82125023856E+01 -0.56288757339E+02  0.57424643720E+02  0.00000000000E+00 0. -1.
         22    1    3    3    0    0  0.21963761007E+03 -0.21095101981E+03 -0.29031570573E+03  0.42074246459E+03  0.00000000000E+00 0. -1.
</event>
<event>
 7    1  0.6999029E-005  0.3067982E+03  0.7818608E-02  0.1203369E+00
          2   -1    0    0  502    0  0.00000000000E+00  0.00000000000E+00  0.39138525172E+03  0.39138525172E+03  0.00000000000E+00 0. -1.
          1   -1    0    0  501    0 -0.00000000000E+00 -0.00000000000E+00 -0.21218875058E+04  0.21218875058E+04  0.00000000000E+00 0. -1.
         25    2    1    2    0    0  0.33732207541E+03 -0.10076091601E+03 -0.11213122075E+03  0.39005014631E+03  0.12500704465E+03 0.  0.
          2    1    1    2  501    0 -0.69352512626E+02 -0.15552605463E+02 -0.17853358605E+04  0.17867500635E+04  0.00000000000E+00 0. -1.
          1    1    1    2  502    0 -0.26796956278E+03  0.11631352148E+03  0.16696482718E+03  0.33647254772E+03  0.00000000000E+00 0. -1.
         22    1    3    3    0    0  0.19939257200E+03 -0.13501719421E+02 -0.15670210582E+02  0.20046258927E+03  0.00000000000E+00 0. -1.
         22    1    3    3    0    0  0.13792950341E+03 -0.87259196592E+02 -0.96461010173E+02  0.18958755704E+03  0.00000000000E+00 0. -1.
</event>
<event>
 7    1  0.6999029E-005  0.2670604E+03  0.7818608E-02  0.1223029E+00
          2   -1    0    0  502    0  0.00000000000E+00  0.00000000000E+00  0.31458548240E+04  0.31458548240E+04  0.00000000000E+00 0. -1.
          1   -1    0    0  501    0 -0.00000000000E+00 -0.00000000000E+00 -0.48223720641E+03  0.48223720641E+03  0.00000000000E+00 0. -1.
         25    2    1    2    0    0 -0.30784501756E+03  0.12329893786E+03 -0.96565339357E+02  0.36731654478E+03  0.12500158554E+03 0.  0.
          2    1    1    2  501    0  0.60401186163E+02 -0.27254113714E+02 -0.23994584528E+03  0.24892789854E+03  0.00000000000E+00 0. -1.
          1    1    1    2  502    0  0.24744383140E+03 -0.96044824149E+02  0.30001288022E+04  0.30118475871E+04  0.00000000000E+00 0. -1.
         22    1    3    3    0    0 -0.92680832934E+02  0.97526978203E+02 -0.60967030241E+02  0.14770994228E+03  0.00000000000E+00 0.  1.
         22    1    3    3    0    0 -0.21516418463E+03  0.25771959660E+02 -0.35598309116E+02  0.21960660251E+03  0.00000000000E+00 0.  1.
</event>
<event>
 7    1  0.6999029E-005  0.1063859E+03  0.7818608E-02  0.1408198E+00
          2   -1    0    0  502    0  0.00000000000E+00  0.00000000000E+00  0.78926437091E+03  0.78926437091E+03  0.00000000000E+00 0. -1.
          1   -1    0    0  501    0 -0.00000000000E+00 -0.00000000000E+00 -0.13534961919E+03  0.13534961919E+03  0.00000000000E+00 0. -1.
         25    2    1    2    0    0  0.84518912808E+02 -0.62949528386E+02  0.27869569857E+03  0.32311298605E+03  0.12499847844E+03 0.  0.
          2    1    1    2  501    0  0.16678065738E+02  0.26348987282E+02 -0.10491698938E+03  0.10945319396E+03  0.00000000000E+00 0. -1.
          1    1    1    2  502    0 -0.10119697855E+03  0.36600541104E+02  0.48013604253E+03  0.49204781009E+03  0.00000000000E+00 0. -1.
         22    1    3    3    0    0  0.17805119331E+02 -0.87651155621E+02  0.18484316813E+03  0.20534542644E+03  0.00000000000E+00 0.  1.
         22    1    3    3    0    0  0.66713793478E+02  0.24701627234E+02  0.93852530438E+02  0.11776755962E+03  0.00000000000E+00 0.  1.
</event>
<event>
 7    1  0.6999029E-005  0.6962615E+02  0.7818608E-02  0.1379604E+00
          2   -1    0    0  502    0  0.00000000000E+00  0.00000000000E+00  0.10034482558E+03  0.10034482558E+03  0.00000000000E+00 0. -1.
          1   -1    0    0  501    0 -0.00000000000E+00 -0.00000000000E+00 -0.21719556250E+04  0.21719556250E+04  0.00000000000E+00 0. -1.
         25    2    1    2    0    0 -0.10721838919E+02  0.45652257392E+02 -0.46835411790E+03  0.48700751871E+03  0.12498662765E+03 0.  0.
          2    1    1    2  501    0 -0.48445387060E+02 -0.54846345434E+02 -0.16835454773E+04  0.16851351433E+04  0.00000000000E+00 0. -1.
          1    1    1    2  502    0  0.59167225979E+02  0.91940880420E+01  0.80288795765E+02  0.10015778857E+03  0.00000000000E+00 0. -1.
         22    1    3    3    0    0 -0.37060825075E+02  0.33568194811E+02 -0.44985942220E+03  0.45262990202E+03  0.00000000000E+00 0.  1.
         22    1    3    3    0    0  0.26338986157E+02  0.12084062581E+02 -0.18494695696E+02  0.34377616688E+02  0.00000000000E+00 0.  1.
</event>
<event>
 7    1  0.6999029E-005  0.4366006E+03  0.7818608E-02  0.1193252E+00
          2   -1    0    0  502    0  0.00000000000E+00  0.00000000000E+00  0.22992682341E+04  0.22992682341E+04  0.00000000000E+00 0. -1.
          1   -1    0    0  501    0 -0.00000000000E+00 -0.00000000000E+00 -0.48809700851E+03  0.48809700851E+03  0.00000000000E+00 0. -1.
         25    2    1    2    0    0  0.78368017641E+02  0.40038338542E+03  0.96289010793E+03  0.10532011248E+04  0.12500739119E+03 0.  0.
          2    1    1    2  501    0  0.20088250215E+02  0.52017921967E+02 -0.39943902758E+03  0.40331245798E+03  0.00000000000E+00 0. -1.
          1    1    1    2  502    0 -0.98456267857E+02 -0.45240130738E+03  0.12477201452E+04  0.13308516598E+04  0.00000000000E+00 0. -1.
         22    1    3    3    0    0  0.71981282288E+02  0.85888737830E+02  0.24403859829E+03  0.26853867084E+03  0.00000000000E+00 0.  1.
         22    1    3    3    0    0  0.63867353528E+01  0.31449464759E+03  0.71885150964E+03  0.78466245396E+03  0.00000000000E+00 0.  1.
</event>
<event>
 7    1  0.6999029E-005  0.4706622E+03  0.7818608E-02  0.1281438E+00
          2   -1    0    0  502    0  0.00000000000E+00  0.00000000000E+00  0.95945210881E+03  0.95945210881E+03  0.00000000000E+00 0. -1.
          1   -1    0    0  501    0 -0.00000000000E+00 -0.00000000000E+00 -0.34661272359E+03  0.34661272359E+03  0.00000000000E+00 0. -1.
         25    2    1    2    0    0 -0.46071153657E+03  0.23109485414E+02  0.11591070110E+03  0.49178243077E+03  0.12500200137E+03 0.  0.
          2    1    1    2  501    0  0.48117854235E+03 -0.27887457276E+02  0.20860201381E+03  0.52519072731E+03  0.00000000000E+00 0. -1.
          1    1    1    2  502    0 -0.20467005785E+02  0.47779718624E+01  0.28832667031E+03  0.28909167431E+03  0.00000000000E+00 0. -1.
         22    1    3    3    0    0 -0.30378735070E+03 -0.88600881541E+01  0.18812141408E+02  0.30449819749E+03  0.00000000000E+00 0. -1.
         22    1    3    3    0    0 -0.15692418586E+03  0.31969573568E+02  0.97098559692E+02  0.18728423328E+03  0.00000000000E+00 0. -1.
</event>
<event>
 7    1  0.6999029E-005  0.7448670E+02  0.7818608E-02  0.1454860E+00
          2   -1    0    0  502    0  0.00000000000E+00  0.00000000000E+00  0.65425659885E+02  0.65425659885E+02  0.00000000000E+00 0. -1.
          1   -1    0    0  501    0 -0.00000000000E+00 -0.00000000000E+00 -0.12060854626E+04  0.12060854626E+04  0.00000000000E+00 0. -1.
         25    2    1    2    0    0 -0.41715531059E+02 -0.94420062639E+02 -0.35568914176E+03  0.39089080888E+03  0.12500210056E+03 0.  0.
          2    1    1    2  501    0  0.29050167743E+02  0.65807432153E+02 -0.82594111244E+03  0.82906770025E+03  0.00000000000E+00 0. -1.
          1    1    1    2  502    0  0.12665363316E+02  0.28612630486E+02  0.40970451471E+02  0.51552613367E+02  0.00000000000E+00 0. -1.
         22    1    3    3    0    0 -0.67054931957E+02 -0.10892861704E+03 -0.24458454370E+03  0.27601341729E+03  0.00000000000E+00 0. -1.
         22    1    3    3    0    0  0.25339400899E+02  0.14508554401E+02 -0.11110459806E+03  0.11487739159E+03  0.00000000000E+00 0. -1.
</event>
<event>
 7    1  0.6999029E-005  0.4266668E+03  0.7818608E-02  0.1095712E+00
          2   -1    0    0  502    0  0.00000000000E+00  0.00000000000E+00  0.42026049352E+03  0.42026049352E+03  0.00000000000E+00 0. -1.
          1   -1    0    0  501    0 -0.00000000000E+00 -0.00000000000E+00 -0.34544516525E+04  0.34544516525E+04  0.00000000000E+00 0. -1.
         25    2    1    2    0    0 -0.44594014220E+03 -0.37421493194E+03 -0.14121670753E+04  0.15325588385E+04  0.12498527555E+03 0.  0.
          2    1    1    2  501    0  0.17267528686E+03  0.62664456035E+02 -0.18567957994E+04  0.18658601849E+04  0.00000000000E+00 0. -1.
          1    1    1    2  502    0  0.27326485534E+03  0.31155047590E+03  0.23477171574E+03  0.47629312268E+03  0.00000000000E+00 0. -1.
         22    1    3    3    0    0 -0.12012549011E+03 -0.71484092301E+02 -0.22579666828E+03  0.26556401155E+03  0.00000000000E+00 0.  1.
         22    1    3    3    0    0 -0.32581465209E+03 -0.30273083964E+03 -0.11863704070E+04  0.12669948269E+04  0.00000000000E+00 0.  1.
</event>
<event>
 7    1  0.6999029E-005  0.2584985E+03  0.7818608E-02  0.1129155E+00
          2   -1    0    0  502    0  0.00000000000E+00  0.00000000000E+00  0.65938360304E+03  0.65938360304E+03  0.00000000000E+00 0. -1.
          1   -1    0    0  501    0 -0.00000000000E+00 -0.00000000000E+00 -0.62990770060E+03  0.62990770060E+03  0.00000000000E+00 0. -1.
         25    2    1    2    0    0 -0.22956899363E+03 -0.27155543929E+03  0.47010250641E+03  0.60254912438E+03  0.12499920523E+03 0.  0.
          2    1    1    2  501    0  0.24463720310E+03  0.73733099923E+02 -0.41409798509E+03  0.48658100294E+03  0.00000000000E+00 0. -1.
          1    1    1    2  502    0 -0.15068209478E+02  0.19782233936E+03 -0.26528618885E+02  0.20016117633E+03  0.00000000000E+00 0. -1.
         22    1    3    3    0    0 -0.10519801217E+03 -0.39455626845E+02  0.11880032480E+03  0.16351417500E+03  0.00000000000E+00 0.  1.
         22    1    3    3    0    0 -0.12437098145E+03 -0.23209981244E+03  0.35130218162E+03  0.43903494937E+03  0.00000000000E+00 0.  1.
</event>
<event>
 7    1  0.6999029E-005  0.2053787E+03  0.7818608E-02  0.1181706E+00
          2   -1    0    0  502    0  0.00000000000E+00  0.00000000000E+00  0.23177607460E+04  0.23177607460E+04  0.00000000000E+00 0. -1.
          1   -1    0    0  501    0 -0.00000000000E+00 -0.00000000000E+00 -0.23829129022E+03  0.23829129022E+03  0.00000000000E+00 0. -1.
         25    2    1    2    0    0 -0.23821141218E+03 -0.60574426165E+02  0.21971617227E+02  0.27662656822E+03  0.12500227311E+03 0.  0.
          2    1    1    2  501    0  0.18491270083E+03 -0.63178523742E+02 -0.21028699630E+02  0.19653610100E+03  0.00000000000E+00 0. -1.
          1    1    1    2  502    0  0.53298711352E+02  0.12375294991E+03  0.20785265382E+04  0.20828893670E+04  0.00000000000E+00 0. -1.
         22    1    3    3    0    0 -0.17358363426E+03 -0.54553407219E+02 -0.40645111784E+02  0.18643866936E+03  0.00000000000E+00 0. -1.
         22    1    3    3    0    0 -0.64627777920E+02 -0.60210189456E+01  0.62616729010E+02  0.90187898855E+02  0.00000000000E+00 0. -1.
</event>
<event>
 7    1  0.6999029E-005  0.2161746E+03  0.7818608E-02  0.1233622E+00
          2   -1    0    0  502    0  0.00000000000E+00  0.00000000000E+00  0.88715197147E+03  0.88715197147E+03  0.00000000000E+00 0. -1.
          1   -1    0    0  501    0 -0.00000000000E+00 -0.00000000000E+00 -0.11552418358E+04  0.11552418358E+04  0.00000000000E+00 0. -1.
         25    2    1    2    0    0  0.38251933288E+02  0.27870240029E+03 -0.20478129548E+03  0.36972766402E+03  0.12499971293E+03 0.  0.
          2    1    1    2  501    0  0.13663471643E+02 -0.72075824106E+02 -0.85228218902E+03  0.85543354190E+03  0.00000000000E+00 0. -1.
          1    1    1    2  502    0 -0.51915404931E+02 -0.20662657619E+03  0.78897362022E+03  0.81723260131E+03  0.00000000000E+00 0. -1.
         22    1    3    3    0    0  0.45472789627E+02  0.54213642175E+02 -0.81767577531E+01  0.71230281213E+02  0.00000000000E+00 0. -1.
         22    1    3    3    0    0 -0.72208563385E+01  0.22448875812E+03 -0.19660453773E+03  0.29849738281E+03  0.00000000000E+00 0. -1.
</event>
<event>
 7    1  0.6999029E-005  0.1210053E+03  0.7818608E-02  0.1257870E+00
          2   -1    0    0  502    0  0.00000000000E+00  0.00000000000E+00  0.36225717401E+03  0.36225717401E+03  0.00000000000E+00 0. -1.
          1   -1    0    0  501    0 -0.00000000000E+00 -0.00000000000E+00 -0.29529453856E+03  0.29529453856E+03  0.00000000000E+00 0. -1.
         25    2    1    2    0    0  0.17314875383E+03  0.28393664713E+02  0.85597518330E+02  0.23181595597E+03  0.12500004458E+03 0.  0.
          2    1    1    2  501    0 -0.10693564481E+03  0.50095875603E+02 -0.19131783089E+03  0.22482735888E+03  0.00000000000E+00 0. -1.
          1    1    1    2  502    0 -0.66213109023E+02 -0.78489540316E+02  0.17268294801E+03  0.20090839773E+03  0.00000000000E+00 0. -1.
         22    1    3    3    0    0  0.31356585990E+02  0.61892090719E+02  0.21432002966E+02  0.72616782700E+02  0.00000000000E+00 0. -1.
         22    1    3    3    0    0  0.14179216784E+03 -0.33498426006E+02  0.64165515364E+02  0.15919917327E+03  0.00000000000E+00 0. -1.
</event>
<event>
 7    1  0.6999029E-005  0.2176308E+03  0.7818608E-02  0.1145939E+00
          2   -1    0    0  502    0  0.00000000000E+00  0.00000000000E+00  0.49504467678E+03  0.49504467678E+03  0.00000000000E+00 0. -1.
          1   -1    0    0  501    0 -0.00000000000E+00 -0.00000000000E+00 -0.22064358682E+04  0.22064358682E+04  0.00000000000E+00 0. -1.
         25    2    1    2    0    0 -0.10370202686E+03  0.31344736131E+03  0.35339041440E+03  0.49951264842E+03  0.12499896903E+03 0.  0.
          2    1    1    2  501    0  0.17100014828E+03 -0.13331463780E+03 -0.19799610044E+04  0.19917980375E+04  0.00000000000E+00 0. -1.
          1    1    1    2  502    0 -0.67298121419E+02 -0.18013272351E+03 -0.84820601425E+02  0.21016985904E+03  0.00000000000E+00 0. -1.
         22    1    3    3    0    0 -0.14460859686E+02  0.97737202727E+00 -0.53696926338E+01  0.15456562293E+02  0.00000000000E+00 0. -1.
         22    1    3    3    0    0 -0.89241167174E+02  0.31246998928E+03  0.35876010703E+03  0.48405608613E+03  0.00000000000E+00 0. -1.
</event>
<event>
 7    1  0.6999029E-005  0.1902390E+03  0.7818608E-02  0.1186302E+00
          2   -1    0    0  502    0  0.00000000000E+00  0.00000000000E+00  0.23754074165E+04  0.23754074165E+04  0.00000000000E+00 0. -1.
          1   -1    0    0  501    0 -0.00000000000E+00 -0.00000000000E+00 -0.16447911354E+03  0.16447911354E+03  0.00000000000E+00 0. -1.
         25    2    1    2    0    0  0.84759200449E+01 -0.26426550311E+03  0.29175485596E+03  0.41310326749E+03  0.12500126512E+03 0.  0.
          2    1    1    2  501    0  0.81665724479E+02  0.15952176515E+03 -0.22126036442E+02  0.18057144182E+03  0.00000000000E+00 0. -1.
          1    1    1    2  502    0 -0.90141644524E+02  0.10474373796E+03  0.19412994834E+04  0.19462118207E+04  0.00000000000E+00 0. -1.
         22    1    3    3    0    0 -0.45653095369E+02 -0.21279149053E+03  0.22253578306E+03  0.31126612135E+03  0.00000000000E+00 0. -1.
         22    1    3    3    0    0  0.54129015414E+02 -0.51474012575E+02  0.69219072897E+02  0.10183714614E+03  0.00000000000E+00 0. -1.
</event>
<event>
 7    1  0.6999029E-005  0.2583332E+03  0.7818608E-02  0.1198232E+00
          2   -1    0    0  502    0  0.00000000000E+00  0.00000000000E+00  0.58696036632E+03  0.58696036632E+03  0.00000000000E+00 0. -1.
          1   -1    0    0  501    0 -0.00000000000E+00 -0.00000000000E+00 -0.31403190381E+03  0.31403190381E+03  0.00000000000E+00 0. -1.
         25    2    1    2    0    0 -0.21611997861E+03  0.10727279926E+03 -0.53048415439E+02  0.27686662600E+03  0.12500278235E+03 0.  0.
          2    1    1    2  501    0  0.20889221188E+03 -0.19622416059E+03  0.46443987129E+00  0.28660093001E+03  0.00000000000E+00 0. -1.
          1    1    1    2  502    0  0.72277667331E+01  0.88951361323E+02  0.32551243808E+03  0.33752471411E+03  0.00000000000E+00 0. -1.
         22    1    3    3    0    0 -0.46833479381E+02  0.47994885370E+01  0.36589608883E+02  0.59625576386E+02  0.00000000000E+00 0. -1.
         22    1    3    3    0    0 -0.16928649923E+03  0.10247331073E+03 -0.89638024321E+02  0.21724104961E+03  0.00000000000E+00 0. -1.
</event>
<event>
 7    1  0.6999029E-005  0.2539113E+03  0.7818608E-02  0.1247122E+00
          2   -1    0    0  502    0  0.00000000000E+00  0.00000000000E+00  0.22062325217E+04  0.22062325217E+04  0.00000000000E+00 0. -1.
          1   -1    0    0  501    0 -0.00000000000E+00 -0.00000000000E+00 -0.44153602433E+03  0.44153602433E+03  0.00000000000E+00 0. -1.
         25    2    1    2    0    0  0.24593223440E+03 -0.15522108231E+03  0.77966338380E+01  0.31663834141E+03  0.12499121344E+03 0.  0.
          2    1    1    2  501    0 -0.19191236398E+03  0.14831151336E+03 -0.23545443274E+03  0.33803172978E+03  0.00000000000E+00 0. -1.
          1    1    1    2  502    0 -0.54019870427E+02  0.69095689540E+01  0.19923542963E+04  0.19930984748E+04  0.00000000000E+00 0. -1.
         22    1    3    3    0    0  0.10042796087E+03 -0.54970980798E+01 -0.28923604842E+02  0.10465451892E+03  0.00000000000E+00 0.  1.
         22    1    3    3    0    0  0.14550427353E+03 -0.14972398423E+03  0.36720238680E+02  0.21198382249E+03  0.00000000000E+00 0.  1.
</event>
<event>
 7    1  0.6999029E-005  0.2968091E+03  0.7818608E-02  0.1094421E+00
          2   -1    0    0  502    0  0.00000000000E+00  0.00000000000E+00  0.12720596291E+04  0.12720596291E+04  0.00000000000E+00 0. -1.
          1   -1    0    0  501    0 -0.00000000000E+00 -0.00000000000E+00 -0.11284120366E+04  0.11284120366E+04  0.00000000000E+00 0. -1.
         25    2    1    2    0    0 -0.46492053368E+03  0.18722302377E+03  0.43719399272E+03  0.67673242176E+03  0.12499848052E+03 0.  0.
          2    1    1    2  501    0  0.19761144123E+03 -0.21314533919E+03 -0.96115262374E+03  0.10041392251E+04  0.00000000000E+00 0. -1.
          1    1    1    2  502    0  0.26730909244E+03  0.25922315418E+02  0.66760622354E+03  0.71960001880E+03  0.00000000000E+00 0. -1.
         22    1    3    3    0    0 -0.25197358044E+02  0.27198894878E+02  0.79572427081E+02  0.87786433386E+02  0.00000000000E+00 0. -1.
         22    1    3    3    0    0 -0.43972317563E+03  0.16002412889E+03  0.35762156564E+03  0.58894598838E+03  0.00000000000E+00 0. -1.
</event>
<event>
 7    1  0.6999029E-005  0.2336182E+03  0.7818608E-02  0.1240738E+00
          2   -1    0    0  502    0  0.00000000000E+00  0.00000000000E+00  0.21793873063E+04  0.21793873063E+04  0.00000000000E+00 0. -1.
          1   -1    0    0  501    0 -0.00000000000E+00 -0.00000000000E+00 -0.17402036771E+04  0.17402036771E+04  0.00000000000E+00 0. -1.
         25    2    1    2    0    0  0.66644513519E+02 -0.16419863959E+03  0.10143966115E+03  0.23940985979E+03  0.12499756672E+03 0.  0.
          2    1    1    2  501    0  0.34480141358E+02 -0.52880158435E+02 -0.16634810487E+04  0.16646784647E+04  0.00000000000E+00 0. -1.
          1    1    1    2  502    0 -0.10112465488E+03  0.21707879803E+03  0.20012250168E+04  0.20155026589E+04  0.00000000000E+00 0. -1.
         22    1    3    3    0    0  0.97285506011E+02 -0.86578076892E+02  0.41568970710E+02  0.13670483680E+03  0.00000000000E+00 0.  1.
         22    1    3    3    0    0 -0.30640992492E+02 -0.77620562700E+02  0.59870690439E+02  0.10270502300E+03  0.00000000000E+00 0.  1.
</event>
<event>
 7    1  0.6999029E-005  0.2370908E+03  0.7818608E-02  0.1249674E+00
          2   -1    0    0  502    0  0.00000000000E+00  0.00000000000E+00  0.13145506618E+04  0.13145506618E+04  0.00000000000E+00 0. -1.
          1   -1    0    0  501    0 -0.00000000000E+00 -0.00000000000E+00 -0.17318463006E+03  0.17318463006E+03  0.00000000000E+00 0. -1.
         25    2    1    2    0    0  0.13828485510E+03  0.17368843853E+03  0.77502702940E+03  0.81583142668E+03  0.12499458242E+03 0.  0.
          2    1    1    2  501    0 -0.82319343152E+01  0.56252732510E+02 -0.11192212717E+03  0.12553364971E+03  0.00000000000E+00 0. -1.
          1    1    1    2  502    0 -0.13005292078E+03 -0.22994117104E+03  0.47826112948E+03  0.54637021543E+03  0.00000000000E+00 0. -1.
         22    1    3    3    0    0  0.62864734251E+01  0.82928221665E+02  0.16048189884E+03  0.18075134730E+03  0.00000000000E+00 0. -1.
         22    1    3    3    0    0  0.13199838167E+03  0.90760216865E+02  0.61454513056E+03  0.63508007938E+03  0.00000000000E+00 0. -1.
</event>
<event>
 7    1  0.6999029E-005  0.7981542E+03  0.7818608E-02  0.1064296E+00
          2   -1    0    0  502    0  0.00000000000E+00  0.00000000000E+00  0.37930451270E+04  0.37930451270E+04  0.00000000000E+00 0. -1.
          1   -1    0    0  501    0 -0.00000000000E+00 -0.00000000000E+00 -0.50382272356E+03  0.50382272356E+03  0.00000000000E+00 0. -1.
         25    2    1    2    0    0 -0.75733938783E+03  0.10994709393E+03  0.20496424617E+03  0.80205123308E+03  0.12499810582E+03 0.  0.
          2    1    1    2  501    0  0.82876640166E+03 -0.24177438926E+03  0.71536953012E+03  0.11211878382E+04  0.00000000000E+00 0. -1.
          1    1    1    2  502    0 -0.71427013828E+02  0.13182729532E+03  0.23688886271E+04  0.23736287793E+04  0.00000000000E+00 0. -1.
         22    1    3    3    0    0 -0.49188212730E+03  0.12830545418E+03  0.15367977790E+03  0.53106288786E+03  0.00000000000E+00 0.  1.
         22    1    3    3    0    0 -0.26545726053E+03 -0.18358360250E+02  0.51284468265E+02  0.27098834522E+03  0.00000000000E+00 0.  1.
</event>
<event>
 7    1  0.6999029E-005  0.7101063E+03  0.7818608E-02  0.1161849E+00
          2   -1    0    0  502    0  0.00000000000E+00  0.00000000000E+00  0.14975224445E+04  0.14975224445E+04  0.00000000000E+00 0. -1.
          1   -1    0    0  501    0 -0.00000000000E+00 -0.00000000000E+00 -0.28179774133E+04  0.28179774133E+04  0.00000000000E+00 0. -1.
         25    2    1    2    0    0 -0.58145146697E+03  0.34750035322E+03 -0.49785105041E+03  0.84989598225E+03  0.12500083329E+03 0.  0.
          2    1    1    2  501    0 -0.48083382313E+02 -0.87483061839E+01 -0.20471077571E+04  0.20476910690E+04  0.00000000000E+00 0. -1.
          1    1    1    2  502    0  0.62953484928E+03 -0.33875204704E+03  0.12245038387E+04  0.14179128065E+04  0.00000000000E+00 0. -1.
         22    1    3    3    0    0 -0.56770588373E+03  0.33948999155E+03 -0.50524183123E+03  0.83235373058E+03  0.00000000000E+00 0.  1.
         22    1    3    3    0    0 -0.13745583235E+02  0.80103616773E+01  0.73907808184E+01  0.17542251674E+02  0.00000000000E+00 0.  1.
</event>
<event>
 7    1  0.6999029E-005  0.5630834E+02  0.7818608E-02  0.1434265E+00
          2   -1    0    0  502    0  0.00000000000E+00  0.00000000000E+00  0.82292002016E+02  0.82292002016E+02  0.00000000000E+00 0. -1.
          1   -1    0    0  501    0 -0.00000000000E+00 -0.00000000000E+00 -0.11573187103E+04  0.11573187103E+04  0.00000000000E+00 0. -1.
         25    2    1    2    0    0 -0.58538648762E+02 -0.57451276249E+02 -0.22159467664E+03  0.26731363622E+03  0.12499982739E+03 0.  0.
          2    1    1    2  501    0  0.55077977507E+02  0.93448452298E+01 -0.90207101910E+03  0.90379922175E+03  0.00000000000E+00 0. -1.
          1    1    1    2  502    0  0.34606712547E+01  0.48106431019E+02  0.48638987453E+02  0.68497854356E+02  0.00000000000E+00 0. -1.
         22    1    3    3    0    0 -0.90132977263E+02 -0.70747346605E+02 -0.18052595649E+03  0.21381946032E+03  0.00000000000E+00 0. -1.
         22    1    3    3    0    0  0.31594328501E+02  0.13296070356E+02 -0.41068720151E+02  0.53494175900E+02  0.00000000000E+00 0. -1.
</event>
<event>
 7    1  0.6999029E-005  0.1667338E+03  0.7818608E-02  0.1256552E+00
          2   -1    0    0  502    0  0.00000000000E+00  0.00000000000E+00  0.65624065257E+03  0.65624065257E+03  0.00000000000E+00 0. -1.
          1   -1    0    0  501    0 -0.00000000000E+00 -0.00000000000E+00 -0.19527912260E+03  0.19527912260E+03  0.00000000000E+00 0. -1.
         25    2    1    2    0    0  0.56292785511E+02 -0.21763366400E+03 -0.46118319157E+02  0.26131570573E+03  0.12500283714E+03 0.  0.
          2    1    1    2  501    0  0.17794389397E+02  0.73373987360E+02  0.21861715871E+02  0.78602270552E+02  0.00000000000E+00 0. -1.
          1    1    1    2  502    0 -0.74087174907E+02  0.14425967664E+03  0.48521813326E+03  0.51160179889E+03  0.00000000000E+00 0. -1.
         22    1    3    3    0    0  0.30673233000E+01 -0.19577029546E+03 -0.54328444261E+02  0.20319201980E+03  0.00000000000E+00 0. -1.
         22    1    3    3    0    0  0.53225462211E+02 -0.21863368540E+02  0.82101251038E+01  0.58123685926E+02  0.00000000000E+00 0. -1.
</event>
<event>
 7    1  0.6999029E-005  0.4374060E+03  0.7818608E-02  0.1152473E+00
          2   -1    0    0  502    0  0.00000000000E+00  0.00000000000E+00  0.48725816498E+03  0.48725816498E+03  0.00000000000E+00 0. -1.
          1   -1    0    0  501    0 -0.00000000000E+00 -0.00000000000E+00 -0.18063450526E+04  0.18063450526E+04  0.00000000000E+00 0. -1.
         25    2    1    2    0    0 -0.37574933195E+03  0.34980020951E+02 -0.11446856058E+03  0.41368970115E+03  0.12499982061E+03 0.  0.
          2    1    1    2  501    0  0.44115804331E+03 -0.94652902946E+02 -0.15026916650E+04  0.15689683972E+04  0.00000000000E+00 0. -1.
          1    1    1    2  502    0 -0.65408711357E+02  0.59672881995E+02  0.29807333799E+03  0.31094511925E+03  0.00000000000E+00 0. -1.
         22    1    3    3    0    0 -0.36667635144E+03  0.58828040402E+01 -0.10107371814E+03  0.38039722736E+03  0.00000000000E+00 0.  1.
         22    1    3    3    0    0 -0.90729805149E+01  0.29097216911E+02 -0.13394842433E+02  0.33292473792E+02  0.00000000000E+00 0.  1.
</event>
<event>
 7    1  0.6999029E-005  0.3407382E+03  0.7818608E-02  0.1270894E+00
          2   -1    0    0  502    0  0.00000000000E+00  0.00000000000E+00  0.62650133618E+03  0.62650133618E+03  0.00000000000E+00 0. -1.
          1   -1    0    0  501    0 -0.00000000000E+00 -0.00000000000E+00 -0.86014423905E+03  0.86014423905E+03  0.00000000000E+00 0. -1.
         25    2    1    2    0    0  0.15114704353E+03  0.27368094720E+03 -0.49546990584E+03  0.59905058673E+03  0.12499795293E+03 0.  0.
          2    1    1    2  501    0  0.62739171925E+01  0.31496154082E+02 -0.26051691809E+03  0.26248892238E+03  0.00000000000E+00 0. -1.
          1    1    1    2  502    0 -0.15742096072E+03 -0.30517710129E+03  0.52234392107E+03  0.62510606612E+03  0.00000000000E+00 0. -1.
         22    1    3    3    0    0  0.68299812338E+02  0.18548367001E+03 -0.39530159616E+03  0.44196426114E+03  0.00000000000E+00 0.  1.
         22    1    3    3    0    0  0.82847231192E+02  0.88197277197E+02 -0.10016830969E+03  0.15708632559E+03  0.00000000000E+00 0.  1.
</event>
<event>
 7    1  0.6999029E-005  0.2922866E+03  0.7818608E-02  0.1153636E+00
          2   -1    0    0  502    0  0.00000000000E+00  0.00000000000E+00  0.13477630859E+04  0.13477630859E+04  0.00000000000E+00 0. -1.
          1   -1    0    0  501    0 -0.00000000000E+00 -0.00000000000E+00 -0.20209389212E+04  0.20209389212E+04  0.00000000000E+00 0. -1.
         25    2    1    2    0    0 -0.84586882137E+02  0.23269806328E+03  0.64113250549E+03  0.69855557491E+03  0.12500268940E+03 0.  0.
          2    1    1    2  501    0 -0.44233766686E+01  0.13062046396E+03 -0.19382584077E+04  0.19426597558E+04  0.00000000000E+00 0. -1.
          1    1    1    2  502    0  0.89010258806E+02 -0.36331852723E+03  0.62395006685E+03  0.72748667639E+03  0.00000000000E+00 0. -1.
         22    1    3    3    0    0 -0.39829069571E+02  0.13067322814E+02  0.19292022750E+03  0.19742169052E+03  0.00000000000E+00 0. -1.
         22    1    3    3    0    0 -0.44757812566E+02  0.21963074046E+03  0.44821227799E+03  0.50113388439E+03  0.00000000000E+00 0. -1.
</event>
<event>
 7    1  0.6999029E-005  0.6959332E+03  0.7818608E-02  0.1108607E+00
          2   -1    0    0  502    0  0.00000000000E+00  0.00000000000E+00  0.21898766961E+04  0.21898766961E+04  0.00000000000E+00 0. -1.
          1   -1    0    0  501    0 -0.00000000000E+00 -0.00000000000E+00 -0.21591662609E+04  0.21591662609E+04  0.00000000000E+00 0. -1.
         25    2    1    2    0    0  0.69668340907E+03 -0.27409132414E+03  0.28484046008E+03  0.81071112677E+03  0.12499846770E+03 0.  0.
          2    1    1    2  501    0 -0.61237828670E+03  0.31860476773E+03 -0.18319202980E+04  0.19576639503E+04  0.00000000000E+00 0. -1.
          1    1    1    2  502    0 -0.84305122366E+02 -0.44513443592E+02  0.15777902731E+04  0.15806678798E+04  0.00000000000E+00 0. -1.
         22    1    3    3    0    0  0.11472035378E+03 -0.75940071945E+02  0.11956461420E+02  0.13809638326E+03  0.00000000000E+00 0.  1.
         22    1    3    3    0    0  0.58196305529E+03 -0.19815125219E+03  0.27288399866E+03  0.67261474351E+03  0.00000000000E+00 0.  1.
</event>
<event>
 7    1  0.6999029E-005  0.1070165E+04  0.7818608E-02  0.1090924E+00
          2   -1    0    0  502    0  0.00000000000E+00  0.00000000000E+00  0.32003454173E+04  0.32003454173E+04  0.00000000000E+00 0. -1.
          1   -1    0    0  501    0 -0.00000000000E+00 -0.00000000000E+00 -0.57271340587E+03  0.57271340587E+03  0.00000000000E+00 0. -1.
         25    2    1    2    0    0  0.82606980664E+03 -0.74872810220E+03  0.12446443898E+04  0.16756340323E+04  0.12499862633E+03 0.  0.
          2    1    1    2  501    0 -0.75039294584E+03  0.72986824488E+03  0.41462538270E+03  0.11259269230E+04  0.00000000000E+00 0. -1.
          1    1    1    2  502    0 -0.75676860796E+02  0.18859857322E+02  0.96836223890E+03  0.97149786784E+03  0.00000000000E+00 0. -1.
         22    1    3    3    0    0  0.53137205334E+03 -0.53969531547E+03  0.90048364805E+03  0.11766469704E+04  0.00000000000E+00 0.  1.
         22    1    3    3    0    0  0.29469775330E+03 -0.20903278673E+03  0.34416074178E+03  0.49898706187E+03  0.00000000000E+00 0.  1.
</event>
<event>
 7    1  0.6999029E-005  0.1798560E+03  0.7818608E-02  0.1352610E+00
          2   -1    0    0  502    0  0.00000000000E+00  0.00000000000E+00  0.13062666547E+04  0.13062666547E+04  0.00000000000E+00 0. -1.
          1   -1    0    0  501    0 -0.00000000000E+00 -0.00000000000E+00 -0.10414174802E+04  0.10414174802E+04  0.00000000000E+00 0. -1.
         25    2    1    2    0    0  0.16706877987E+03 -0.12480227416E+03  0.66090072106E+03  0.70420429447E+03  0.12500536152E+03 0.  0.
          2    1    1    2  501    0 -0.14423354559E+03  0.10689021431E+03 -0.10115200608E+04  0.10273274390E+04  0.00000000000E+00 0. -1.
          1    1    1    2  502    0 -0.22835234280E+02  0.17912059853E+02  0.61546851421E+03  0.61615240144E+03  0.00000000000E+00 0. -1.
         22    1    3    3    0    0  0.18456875548E+03 -0.12115712318E+03  0.63820082968E+03  0.67531101946E+03  0.00000000000E+00 0. -1.
         22    1    3    3    0    0 -0.17499975613E+02 -0.36451509805E+01  0.22699891374E+02  0.28893275004E+02  0.00000000000E+00 0. -1.
</event>
<event>
 7    1  0.6999029E-005  0.4209638E+03  0.7818608E-02  0.1265334E+00
          2   -1    0    0  502    0  0.00000000000E+00  0.00000000000E+00  0.18019685477E+04  0.18019685477E+04  0.00000000000E+00 0. -1.
          1   -1    0    0  501    0 -0.00000000000E+00 -0.00000000000E+00 -0.29635063236E+03  0.29635063236E+03  0.00000000000E+00 0. -1.
         25    2    1    2    0    0 -0.42697416102E+03 -0.61111291669E+02  0.28154168982E+03  0.53003194838E+03  0.12500647602E+03 0.  0.
          2    1    1    2  501    0  0.40701775296E+03  0.79937315104E+02  0.78221706448E+02  0.42210432470E+03  0.00000000000E+00 0. -1.
          1    1    1    2  502    0  0.19956408055E+02 -0.18826023435E+02  0.11458545191E+04  0.11461829070E+04  0.00000000000E+00 0. -1.
         22    1    3    3    0    0 -0.35406006252E+03 -0.23439290524E+02  0.27263447374E+03  0.44747903245E+03  0.00000000000E+00 0. -1.
         22    1    3    3    0    0 -0.72914098501E+02 -0.37672001145E+02  0.89072160856E+01  0.82552915932E+02  0.00000000000E+00 0. -1.
</event>
<event>
 7    1  0.6999029E-005  0.2047470E+03  0.7818608E-02  0.1301429E+00
          2   -1    0    0  502    0  0.00000000000E+00  0.00000000000E+00  0.39324164985E+03  0.39324164985E+03  0.00000000000E+00 0. -1.
          1   -1    0    0  501    0 -0.00000000000E+00 -0.00000000000E+00 -0.47428689899E+03  0.47428689899E+03  0.00000000000E+00 0. -1.
         25    2    1    2    0    0  0.20933313901E+02 -0.20062790187E+03 -0.23365486507E+03  0.33303128185E+03  0.12500192030E+03 0.  0.
          2    1    1    2  501    0  0.18145452039E+02  0.20953741821E+03 -0.13118880799E+03  0.24788241245E+03  0.00000000000E+00 0. -1.
          1    1    1    2  502    0 -0.39078765940E+02 -0.89095163403E+01  0.28379842392E+03  0.28661485455E+03  0.00000000000E+00 0. -1.
         22    1    3    3    0    0  0.26830291907E+02 -0.13234259170E+02  0.41545586932E+01  0.30203816605E+02  0.00000000000E+00 0.  1.
         22    1    3    3    0    0 -0.58969780059E+01 -0.18739364270E+03 -0.23780942377E+03  0.30282746524E+03  0.00000000000E+00 0.  1.
</event>
<event>
 7    1  0.6999029E-005  0.2733028E+03  0.7818608E-02  0.1261382E+00
          2   -1    0    0  502    0  0.00000000000E+00  0.00000000000E+00  0.78861923099E+03  0.78861923099E+03  0.00000000000E+00 0. -1.
          1   -1    0    0  501    0 -0.00000000000E+00 -0.00000000000E+00 -0.64802544203E+03  0.64802544203E+03  0.00000000000E+00 0. -1.
         25    2    1    2    0    0  0.24291467585E+03  0.15034368439E+03  0.45204770313E+03  0.54916878650E+03  0.12501386713E+03 0.  0.
          2    1    1    2  501    0 -0.41725551644E+02  0.13715224268E+02 -0.53989327475E+03  0.54167691216E+03  0.00000000000E+00 0. -1.
          1    1    1    2  502    0 -0.20118912420E+03 -0.16405890866E+03  0.22843936059E+03  0.34579897437E+03  0.00000000000E+00 0. -1.
         22    1    3    3    0    0  0.12381738570E+03  0.73345302165E+01  0.15329293908E+03  0.19718840104E+03  0.00000000000E+00 0. -1.
         22    1    3    3    0    0  0.11909729015E+03  0.14300915417E+03  0.29875476406E+03  0.35198038545E+03  0.00000000000E+00 0. -1.
</event>
<event>
 7    1  0.6999029E-005  0.4977947E+02  0.7818608E-02  0.1453534E+00
          2   -1    0    0  502    0  0.00000000000E+00  0.00000000000E+00  0.29532161185E+04  0.29532161185E+04  0.00000000000E+00 0. -1.
          1   -1    0    0  501    0 -0.00000000000E+00 -0.00000000000E+00 -0.18518186711E+04  0.18518186711E+04  0.00000000000E+00 0. -1.
         25    2    1    2    0    0  0.49919420725E+02  0.76697898562E+02  0.57236047924E+02  0.16515275993E+03  0.12499981088E+03 0.  0.
          2    1    1    2  501    0 -0.39051600502E+02 -0.30686334997E+02 -0.17973206336E+04  0.17980067126E+04  0.00000000000E+00 0. -1.
          1    1    1    2  502    0 -0.10867820223E+02 -0.46011563565E+02  0.28414820330E+04  0.28418753170E+04  0.00000000000E+00 0. -1.
         22    1    3    3    0    0  0.32327420707E+02  0.18730874915E+02 -0.37351134334E+02  0.52830058117E+02  0.00000000000E+00 0.  1.
         22    1    3    3    0    0  0.17592000018E+02  0.57967023647E+02  0.94587182257E+02  0.11232270181E+03  0.00000000000E+00 0.  1.
</event>
<event>
 7    1  0.6999029E-005  0.9115681E+03  0.7818608E-02  0.9624467E-01
          2   -1    0    0  502    0  0.00000000000E+00  0.00000000000E+00  0.24370089369E+04  0.24370089369E+04  0.00000000000E+00 0. -1.
          1   -1    0    0  501    0 -0.00000000000E+00 -0.00000000000E+00 -0.20216967415E+04  0.20216967415E+04  0.00000000000E+00 0. -1.
         25    2    1    2    0    0  0.22585373748E+03 -0.11841877878E+04 -0.87066654622E+03  0.14923130039E+04  0.12500895748E+03 0.  0.
          2    1    1    2  501    0 -0.47908649353E+03  0.60884807466E+03 -0.59904278986E+03  0.97932227095E+03  0.00000000000E+00 0. -1.
          1    1    1    2  502    0  0.25323275605E+03  0.57533971318E+03  0.18850215315E+04  0.19870704035E+04  0.00000000000E+00 0. -1.
         22    1    3    3    0    0  0.32930163142E+02 -0.48814200504E+02 -0.59173261897E+02  0.83478720276E+02  0.00000000000E+00 0.  1.
         22    1    3    3    0    0  0.19292357434E+03 -0.11353735873E+04 -0.81149328432E+03  0.14088342837E+04  0.00000000000E+00 0.  1.
</event>
<event>
 7    1  0.6999029E-005  0.2021314E+03  0.7818608E-02  0.1235332E+00
          2   -1    0    0  502    0  0.00000000000E+00  0.00000000000E+00  0.13927895725E+04  0.13927895725E+04  0.00000000000E+00 0. -1.
          1   -1    0    0  501    0 -0.00000000000E+00 -0.00000000000E+00 -0.53406330979E+03  0.53406330979E+03  0.00000000000E+00 0. -1.
         25    2    1    2    0    0 -0.28107922362E+02  0.17968869754E+03  0.13043728356E+03  0.25635335922E+03  0.12500030608E+03 0.  0.
          2    1    1    2  501    0 -0.46080403746E+02 -0.20065284956E+03 -0.44728995206E+03  0.49239544155E+03  0.00000000000E+00 0. -1.
          1    1    1    2  502    0  0.74188326108E+02  0.20964152023E+02  0.11755789312E+04  0.11781040815E+04  0.00000000000E+00 0. -1.
         22    1    3    3    0    0  0.36057161099E+02  0.11309735283E+02  0.83586461758E+01  0.38702660692E+02  0.00000000000E+00 0. -1.
         22    1    3    3    0    0 -0.64165083461E+02  0.16837896225E+03  0.12207863739E+03  0.21765069853E+03  0.00000000000E+00 0. -1.
</event>
<event>
 7    1  0.6999029E-005  0.7315971E+02  0.7818608E-02  0.1435931E+00
          2   -1    0    0  502    0  0.00000000000E+00  0.00000000000E+00  0.18165275454E+04  0.18165275454E+04  0.00000000000E+00 0. -1.
          1   -1    0    0  501    0 -0.00000000000E+00 -0.00000000000E+00 -0.81876420299E+02  0.81876420299E+02  0.00000000000E+00 0. -1.
         25    2    1    2    0    0 -0.62547833792E+02  0.54306096206E+02  0.21304384500E+03  0.26052641676E+03  0.12499980136E+03 0.  0.
          2    1    1    2  501    0  0.34239093171E+02  0.13098602843E+02 -0.51421344915E+02  0.63150958904E+02  0.00000000000E+00 0. -1.
          1    1    1    2  502    0  0.28308740621E+02 -0.67404699049E+02  0.15730286250E+04  0.15747265901E+04  0.00000000000E+00 0. -1.
         22    1    3    3    0    0  0.52907938755E+01 -0.26594278489E+02  0.10890515279E+03  0.11223003364E+03  0.00000000000E+00 0.  1.
         22    1    3    3    0    0 -0.67838627667E+02  0.80900374695E+02  0.10413869222E+03  0.14829638312E+03  0.00000000000E+00 0.  1.
</event>
<event>
 7    1  0.6999029E-005  0.8605624E+03  0.7818608E-02  0.1144046E+00
          2   -1    0    0  502    0  0.00000000000E+00  0.00000000000E+00  0.15525889637E+04  0.15525889637E+04  0.00000000000E+00 0. -1.
          1   -1    0    0  501    0 -0.00000000000E+00 -0.00000000000E+00 -0.75613709088E+03  0.75613709088E+03  0.00000000000E+00 0. -1.
         25    2    1    2    0    0  0.53446132920E+03  0.70537326347E+03  0.18928347897E+03  0.91359364968E+03  0.12499907237E+03 0.  0.
          2    1    1    2  501    0 -0.52529171477E+03 -0.65648287169E+03  0.56982982763E+02  0.84270291726E+03  0.00000000000E+00 0. -1.
          1    1    1    2  502    0 -0.91696144363E+01 -0.48890391781E+02  0.55018541107E+03  0.55242948762E+03  0.00000000000E+00 0. -1.
         22    1    3    3    0    0  0.51794903284E+03  0.68503113832E+03  0.15873297779E+03  0.87334702114E+03  0.00000000000E+00 0.  1.
         22    1    3    3    0    0  0.16512296365E+02  0.20342125148E+02  0.30550501182E+02  0.40246628546E+02  0.00000000000E+00 0.  1.
</event>
<event>
 7    1  0.6999029E-005  0.4672527E+03  0.7818608E-02  0.1183373E+00
          2   -1    0    0  502    0  0.00000000000E+00  0.00000000000E+00  0.90280652915E+03  0.90280652915E+03  0.00000000000E+00 0. -1.
          1   -1    0    0  501    0 -0.00000000000E+00 -0.00000000000E+00 -0.58989580040E+03  0.58989580040E+03  0.00000000000E+00 0. -1.
         25    2    1    2    0    0  0.33188048747E+03  0.29642159449E+03  0.90516729399E+02  0.47098729260E+03  0.12500132740E+03 0.  0.
          2    1    1    2  501    0 -0.38809462194E+03 -0.28161846170E+03 -0.25342620033E+03  0.54235710797E+03  0.00000000000E+00 0. -1.
          1    1    1    2  502    0  0.56214134471E+02 -0.14803132784E+02  0.47582019968E+03  0.47935792898E+03  0.00000000000E+00 0. -1.
         22    1    3    3    0    0  0.29353581709E+03  0.28117575145E+03  0.44070715359E+02  0.40885854164E+03  0.00000000000E+00 0.  1.
         22    1    3    3    0    0  0.38344670375E+02  0.15245843039E+02  0.46446014040E+02  0.62128750964E+02  0.00000000000E+00 0.  1.
</event>
<event>
 7    1  0.6999029E-005  0.3167846E+03  0.7818608E-02  0.1145169E+00
          2   -1    0    0  502    0  0.00000000000E+00  0.00000000000E+00  0.11648757789E+04  0.11648757789E+04  0.00000000000E+00 0. -1.
          1   -1    0    0  501    0 -0.00000000000E+00 -0.00000000000E+00 -0.81811917403E+03  0.81811917403E+03  0.00000000000E+00 0. -1.
         25    2    1    2    0    0  0.36442423065E+03  0.18725081300E+03  0.56160591761E+03  0.70632492818E+03  0.12500324243E+03 0.  0.
          2    1    1    2  501    0 -0.23281355481E+03 -0.20857433447E+03 -0.70368111812E+03  0.76998215583E+03  0.00000000000E+00 0. -1.
          1    1    1    2  502    0 -0.13161067584E+03  0.21323521474E+02  0.48883180541E+03  0.50668786895E+03  0.00000000000E+00 0. -1.
         22    1    3    3    0    0  0.31024247198E+03  0.18334471043E+03  0.53694956121E+03  0.64666877576E+03  0.00000000000E+00 0.  1.
         22    1    3    3    0    0  0.54181758671E+02  0.39061025697E+01  0.24656356395E+02  0.59656152412E+02  0.00000000000E+00 0.  1.
</event>
<event>
 7    1  0.6999029E-005  0.6680190E+03  0.7818608E-02  0.1113733E+00
          2   -1    0    0  502    0  0.00000000000E+00  0.00000000000E+00  0.14526501742E+04  0.14526501742E+04  0.00000000000E+00 0. -1.
          1   -1    0    0  501    0 -0.00000000000E+00 -0.00000000000E+00 -0.11048518201E+04  0.11048518201E+04  0.00000000000E+00 0. -1.
         25    2    1    2    0    0  0.37812021362E+03 -0.54701033178E+03 -0.51228892270E+03  0.84868091639E+03  0.12499663395E+03 0.  0.
          2    1    1    2  501    0 -0.45764676466E+03  0.49869063516E+03 -0.15097254899E+03  0.69348801096E+03  0.00000000000E+00 0. -1.
          1    1    1    2  502    0  0.79526551043E+02  0.48319696618E+02  0.10110598258E+04  0.10153330669E+04  0.00000000000E+00 0. -1.
         22    1    3    3    0    0  0.18359275409E+03 -0.19327288187E+03 -0.26153749994E+03  0.37344687720E+03  0.00000000000E+00 0.  1.
         22    1    3    3    0    0  0.19452745953E+03 -0.35373744991E+03 -0.25075142276E+03  0.47523403918E+03  0.00000000000E+00 0.  1.
</event>
<event>
 7    1  0.6999029E-005  0.8718375E+03  0.7818608E-02  0.1076106E+00
          2   -1    0    0  502    0  0.00000000000E+00  0.00000000000E+00  0.21801899517E+04  0.21801899517E+04  0.00000000000E+00 0. -1.
          1   -1    0    0  501    0 -0.00000000000E+00 -0.00000000000E+00 -0.11839800571E+04  0.11839800571E+04  0.00000000000E+00 0. -1.
         25    2    1    2    0    0  0.82570861017E+03 -0.25182875064E+03 -0.72757965923E+03  0.11358743520E+04  0.12500381779E+03 0.  0.
          2    1    1    2  501    0 -0.83444731755E+03  0.36822847696E+03  0.58506281924E+03  0.10836018824E+04  0.00000000000E+00 0. -1.
          1    1    1    2  502    0  0.87387073869E+01 -0.11639972632E+03  0.11387267345E+04  0.11446937744E+04  0.00000000000E+00 0. -1.
         22    1    3    3    0    0  0.17621107952E+03 -0.27058807326E+02 -0.21015206970E+03  0.27558377310E+03  0.00000000000E+00 0.  1.
         22    1    3    3    0    0  0.64949753065E+03 -0.22476994332E+03 -0.51742758953E+03  0.86029057891E+03  0.00000000000E+00 0.  1.
</event>
<event>
 7    1  0.6999029E-005  0.3823416E+03  0.7818608E-02  0.1250125E+00
          2   -1    0    0  502    0  0.00000000000E+00  0.00000000000E+00  0.23655092071E+04  0.23655092071E+04  0.00000000000E+00 0. -1.
          1   -1    0    0  501    0 -0.00000000000E+00 -0.00000000000E+00 -0.33649761787E+03  0.33649761787E+03  0.00000000000E+00 0. -1.
         25    2    1    2    0    0 -0.29873132887E+03 -0.21037713041E+03  0.10324384230E+04  0.11022942701E+04  0.12499846721E+03 0.  0.
          2    1    1    2  501    0 -0.17000577756E+02 -0.30702984122E+02 -0.27001670282E+03  0.27228792239E+03  0.00000000000E+00 0. -1.
          1    1    1    2  502    0  0.31573190663E+03  0.24108011453E+03  0.12665898691E+04  0.13274246325E+04  0.00000000000E+00 0. -1.
         22    1    3    3    0    0 -0.14304762936E+03 -0.13869026094E+03  0.70625963874E+03  0.73382578999E+03  0.00000000000E+00 0. -1.
         22    1    3    3    0    0 -0.15568369951E+03 -0.71686869471E+02  0.32617878428E+03  0.36846848015E+03  0.00000000000E+00 0. -1.
</event>
<event>
 7    1  0.6999029E-005  0.9669256E+03  0.7818608E-02  0.1115290E+00
          2   -1    0    0  502    0  0.00000000000E+00  0.00000000000E+00  0.20537135888E+04  0.20537135888E+04  0.00000000000E+00 0. -1.
          1   -1    0    0  501    0 -0.00000000000E+00 -0.00000000000E+00 -0.20378045181E+04  0.20378045181E+04  0.00000000000E+00 0. -1.
         25    2    1    2    0    0 -0.91506445503E+03 -0.35649199234E+03 -0.13662671789E+04  0.16872286739E+04  0.12500038533E+03 0.  0.
          2    1    1    2  501    0  0.87500900369E+03  0.30781754059E+03 -0.88936004510E+02  0.93182724135E+03  0.00000000000E+00 0. -1.
          1    1    1    2  502    0  0.40055451348E+02  0.48674451753E+02  0.14711122542E+04  0.14724621916E+04  0.00000000000E+00 0. -1.
         22    1    3    3    0    0 -0.70127592923E+03 -0.23261419537E+03 -0.10871917304E+04  0.13144896924E+04  0.00000000000E+00 0. -1.
         22    1    3    3    0    0 -0.21378852581E+03 -0.12387779697E+03 -0.27907544853E+03  0.37273898149E+03  0.00000000000E+00 0. -1.
</event>
<event>
 7    1  0.6999029E-005  0.1030685E+03  0.7818608E-02  0.1380840E+00
          2   -1    0    0  502    0  0.00000000000E+00  0.00000000000E+00  0.29001678303E+02  0.29001678303E+02  0.00000000000E+00 0. -1.
          1   -1    0    0  501    0 -0.00000000000E+00 -0.00000000000E+00 -0.21066898852E+04  0.21066898852E+04  0.00000000000E+00 0. -1.
         25    2    1    2    0    0  0.42077478776E+02  0.79840701226E+02 -0.36621470244E+03  0.39734445477E+03  0.12499742263E+03 0.  0.
          2    1    1    2  501    0 -0.24090659787E+02  0.31986449675E+02 -0.14810452097E+04  0.14815864490E+04  0.00000000000E+00 0. -1.
          1    1    1    2  502    0 -0.17986818989E+02 -0.11182715090E+03 -0.23042829485E+03  0.25676065976E+03  0.00000000000E+00 0. -1.
         22    1    3    3    0    0 -0.11119066076E+02  0.92563895673E+02 -0.17281247967E+03  0.19635646550E+03  0.00000000000E+00 0. -1.
         22    1    3    3    0    0  0.53196544852E+02 -0.12723194447E+02 -0.19340222277E+03  0.20098798927E+03  0.00000000000E+00 0. -1.
</event>
<event>
 7    1  0.6999029E-005  0.1025818E+04  0.7818608E-02  0.1123712E+00
          2   -1    0    0  502    0  0.00000000000E+00  0.00000000000E+00  0.13458315640E+04  0.13458315640E+04  0.00000000000E+00 0. -1.
          1   -1    0    0  501    0 -0.00000000000E+00 -0.00000000000E+00 -0.28471135341E+04  0.28471135341E+04  0.00000000000E+00 0. -1.
         25    2    1    2    0    0  0.98409344097E+03  0.23056060465E+03  0.46177753995E+03  0.11182399819E+04  0.12499627104E+03 0.  0.
          2    1    1    2  501    0 -0.98798848599E+03 -0.28389208885E+03 -0.24123513317E+04  0.26222423447E+04  0.00000000000E+00 0. -1.
          1    1    1    2  502    0  0.38950450241E+01  0.53331484205E+02  0.44929182172E+03  0.45246277156E+03  0.00000000000E+00 0. -1.
         22    1    3    3    0    0  0.95996673556E+03  0.22848792208E+03  0.42547740647E+03  0.10746040607E+04  0.00000000000E+00 0.  1.
         22    1    3    3    0    0  0.24126705411E+02  0.20726825673E+01  0.36300133482E+02  0.43635921187E+02  0.00000000000E+00 0.  1.
</event>
<event>
 7    1  0.6999029E-005  0.8046587E+03  0.7818608E-02  0.1101457E+00
          2   -1    0    0  502    0  0.00000000000E+00  0.00000000000E+00  0.11838293750E+04  0.11838293750E+04  0.00000000000E+00 0. -1.
          1   -1    0    0  501    0 -0.00000000000E+00 -0.00000000000E+00 -0.16482335276E+04  0.16482335276E+04  0.00000000000E+00 0. -1.
         25    2    1    2    0    0 -0.76755954122E+03  0.40019538492E+03 -0.22075018460E+03  0.90203162508E+03  0.12500565270E+03 0.  0.
          2    1    1    2  501    0  0.70329211274E+03 -0.33663508231E+03 -0.94372063014E+03  0.12241534227E+04  0.00000000000E+00 0. -1.
          1    1    1    2  502    0  0.64267428483E+02 -0.63560302612E+02  0.70006666213E+03  0.70587785478E+03  0.00000000000E+00 0. -1.
         22    1    3    3    0    0 -0.56108416490E+02  0.55236546870E+02  0.74556299862E+01  0.79087400575E+02  0.00000000000E+00 0. -1.
         22    1    3    3    0    0 -0.71145112473E+03  0.34495883805E+03 -0.22820581459E+03  0.82294422451E+03  0.00000000000E+00 0. -1.
</event>
<event>
 7    1  0.6999029E-005  0.1533306E+04  0.7818608E-02  0.1118411E+00
          2   -1    0    0  502    0  0.00000000000E+00  0.00000000000E+00  0.34263468162E+04  0.34263468162E+04  0.00000000000E+00 0. -1.
          1   -1    0    0  501    0 -0.00000000000E+00 -0.00000000000E+00 -0.19838696895E+04  0.19838696895E+04  0.00000000000E+00 0. -1.
         25    2    1    2    0    0  0.80473870941E+03 -0.12910184882E+04  0.43851728519E+03  0.15881611876E+04  0.12500168500E+03 0.  0.
          2    1    1    2  501    0 -0.20182294266E+02 -0.32458794382E+02 -0.11634561069E+04  0.11640837646E+04  0.00000000000E+00 0. -1.
          1    1    1    2  502    0 -0.78455641514E+03  0.13234772825E+04  0.21674159484E+04  0.26579715535E+04  0.00000000000E+00 0. -1.
         22    1    3    3    0    0  0.57550357177E+03 -0.10209084138E+04  0.34761548233E+03  0.12224135446E+04  0.00000000000E+00 0.  1.
         22    1    3    3    0    0  0.22923513764E+03 -0.27011007431E+03  0.90901802860E+02  0.36574764297E+03  0.00000000000E+00 0.  1.
</event>
<event>
 7    1  0.6999029E-005  0.2005067E+03  0.7818608E-02  0.1151856E+00
          2   -1    0    0  502    0  0.00000000000E+00  0.00000000000E+00  0.19889405652E+04  0.19889405652E+04  0.00000000000E+00 0. -1.
          1   -1    0    0  501    0 -0.00000000000E+00 -0.00000000000E+00 -0.64380223970E+02  0.64380223970E+02  0.00000000000E+00 0. -1.
         25    2    1    2    0    0  0.89955073463E+02 -0.19880833702E+03  0.42240554912E+03  0.49159741611E+03  0.12499960598E+03 0.  0.
          2    1    1    2  501    0  0.11789989560E+03  0.16218065748E+03  0.52386430586E+03  0.56092491654E+03  0.00000000000E+00 0. -1.
          1    1    1    2  502    0 -0.20785496906E+03  0.36627679538E+02  0.97829048627E+03  0.10007984565E+04  0.00000000000E+00 0. -1.
         22    1    3    3    0    0  0.49039962074E+02 -0.15437876543E+03  0.39163734463E+03  0.42381308474E+03  0.00000000000E+00 0. -1.
         22    1    3    3    0    0  0.40915111390E+02 -0.44429571587E+02  0.30768204491E+02  0.67784331368E+02  0.00000000000E+00 0. -1.
</event>
<event>
 7    1  0.6999029E-005  0.5235543E+03  0.7818608E-02  0.1182588E+00
          2   -1    0    0  502    0  0.00000000000E+00  0.00000000000E+00  0.13949069902E+04  0.13949069902E+04  0.00000000000E+00 0. -1.
          1   -1    0    0  501    0 -0.00000000000E+00 -0.00000000000E+00 -0.65166385033E+03  0.65166385033E+03  0.00000000000E+00 0. -1.
         25    2    1    2    0    0  0.32068676821E+03 -0.46241409489E+03  0.25723842813E+02  0.57702080934E+03  0.12499799945E+03 0.  0.
          2    1    1    2  501    0 -0.10564814799E+02  0.51259528628E+02 -0.31308804983E+03  0.31743232591E+03  0.00000000000E+00 0. -1.
          1    1    1    2  502    0 -0.31012195341E+03  0.41115456626E+03  0.10306073469E+04  0.11521177053E+04  0.00000000000E+00 0. -1.
         22    1    3    3    0    0  0.27657037690E+02 -0.12717328669E+03  0.20386358692E+02  0.13173291237E+03  0.00000000000E+00 0.  1.
         22    1    3    3    0    0  0.29302973052E+03 -0.33524080820E+03  0.53374841206E+01  0.44528789697E+03  0.00000000000E+00 0.  1.
</event>
<event>
 7    1  0.9158719E-005  0.2586586E+03  0.7818608E-02  0.1228891E+00
          2   -1    0    0  502    0  0.00000000000E+00  0.00000000000E+00  0.31215642716E+04  0.31215642716E+04  0.00000000000E+00 0. -1.
          1   -1    0    0  501    0 -0.00000000000E+00 -0.00000000000E+00 -0.62701554723E+03  0.62701554723E+03  0.00000000000E+00 0. -1.
         25    2    1    2    0    0  0.18921146758E+03 -0.26070099060E+03 -0.32199313632E+03  0.47230309328E+03  0.12499858447E+03 0.  0.
          2    1    1    2  501    0 -0.39264961049E+02  0.51011658331E+02 -0.21978916533E+03  0.22902227762E+03  0.00000000000E+00 0. -1.
          1    1    1    2  502    0 -0.14994650653E+03  0.20968933227E+03  0.30363310260E+04  0.30472544479E+04  0.00000000000E+00 0. -1.
         22    1    3    3    0    0  0.17749544769E+03 -0.20951252883E+03 -0.31724520642E+03  0.41957675660E+03  0.00000000000E+00 0.  1.
         22    1    3    3    0    0  0.11716019890E+02 -0.51188461773E+02 -0.47479299006E+01  0.52726336674E+02  0.00000000000E+00 0.  1.
</event>
<event>
 7    1  0.6999029E-005  0.8244901E+03  0.7818608E-02  0.1030939E+00
          2   -1    0    0  502    0  0.00000000000E+00  0.00000000000E+00  0.83424530083E+03  0.83424530083E+03  0.00000000000E+00 0. -1.
          1   -1    0    0  501    0 -0.00000000000E+00 -0.00000000000E+00 -0.13106331522E+04  0.13106331522E+04  0.00000000000E+00 0. -1.
         25    2    1    2    0    0  0.42081783435E+03 -0.86465461917E+03 -0.44765152538E+03  0.10680507479E+04  0.12500100657E+03 0.  0.
          2    1    1    2  501    0  0.20131137637E+02  0.23327585841E+03 -0.17580441002E+03  0.29279699350E+03  0.00000000000E+00 0. -1.
          1    1    1    2  502    0 -0.44094897199E+03  0.63137876076E+03  0.14706808407E+03  0.78403071164E+03  0.00000000000E+00 0. -1.
         22    1    3    3    0    0  0.39752099151E+03 -0.82713599863E+03 -0.45325822503E+03  0.10235330564E+04  0.00000000000E+00 0.  1.
         22    1    3    3    0    0  0.23296842845E+02 -0.37518620543E+02  0.56066996506E+01  0.44517691483E+02  0.00000000000E+00 0.  1.
</event>
<event>
 7    1  0.6999029E-005  0.2696006E+03  0.7818608E-02  0.1163446E+00
          2   -1    0    0  502    0  0.00000000000E+00  0.00000000000E+00  0.18281440537E+04  0.18281440537E+04  0.00000000000E+00 0. -1.
          1   -1    0    0  501    0 -0.00000000000E+00 -0.00000000000E+00 -0.17744786429E+03  0.17744786429E+03  0.00000000000E+00 0. -1.
         25    2    1    2    0    0  0.23484750724E+03 -0.12114445062E+03  0.12755011185E+04  0.13085706057E+04  0.12499838908E+03 0.  0.
          2    1    1    2  501    0  0.68735878297E+02  0.10603704717E+03 -0.80079658578E+02  0.14960356966E+03  0.00000000000E+00 0. -1.
          1    1    1    2  502    0 -0.30358338554E+03  0.15107403449E+02  0.45527472949E+03  0.54741774261E+03  0.00000000000E+00 0. -1.
         22    1    3    3    0    0  0.18974763125E+03 -0.13868701986E+03  0.11558719577E+04  0.11795245803E+04  0.00000000000E+00 0. -1.
         22    1    3    3    0    0  0.45099875994E+02  0.17542569241E+02  0.11962916083E+03  0.12904602540E+03  0.00000000000E+00 0. -1.
</event>
<event>
 7    1  0.6999029E-005  0.2969373E+03  0.7818608E-02  0.1175345E+00
          2   -1    0    0  502    0  0.00000000000E+00  0.00000000000E+00  0.11824546412E+04  0.11824546412E+04  0.00000000000E+00 0. -1.
          1   -1    0    0  501    0 -0.00000000000E+00 -0.00000000000E+00 -0.32798709332E+03  0.32798709332E+03  0.00000000000E+00 0. -1.
         25    2    1    2    0    0 -0.40738466009E+02  0.37343171281E+03  0.30591788547E+03  0.50032239655E+03  0.12500352434E+03 0.  0.
          2    1    1    2  501    0  0.24367000445E+02 -0.97110348312E+02 -0.19363941582E+03  0.21799172879E+03  0.00000000000E+00 0. -1.
          1    1    1    2  502    0  0.16371465564E+02 -0.27632136450E+03  0.74218907824E+03  0.79212760917E+03  0.00000000000E+00 0. -1.
         22    1    3    3    0    0  0.27407837060E+02  0.26796986719E+03  0.22467903164E+03  0.35077016195E+03  0.00000000000E+00 0.  1.
         22    1    3    3    0    0 -0.68146303069E+02  0.10546184562E+03  0.81238853829E+02  0.14955223460E+03  0.00000000000E+00 0.  1.
</event>
<event>
 7    1  0.6999029E-005  0.6895934E+02  0.7818608E-02  0.1371060E+00
          2   -1    0    0  502    0  0.00000000000E+00  0.00000000000E+00  0.12517661122E+04  0.12517661122E+04  0.00000000000E+00 0. -1.
          1   -1    0    0  501    0 -0.00000000000E+00 -0.00000000000E+00 -0.36813785395E+03  0.36813785395E+03  0.00000000000E+00 0. -1.
         25    2    1    2    0    0 -0.12532556613E+03 -0.45571002917E+02  0.65968526638E+03  0.68454081552E+03  0.12501305369E+03 0.  0.
          2    1    1    2  501    0  0.63408958482E+02  0.26285013819E+02 -0.35055727954E+03  0.35721422733E+03  0.00000000000E+00 0. -1.
          1    1    1    2  502    0  0.61916607651E+02  0.19285989098E+02  0.57450027139E+03  0.57814892330E+03  0.00000000000E+00 0. -1.
         22    1    3    3    0    0  0.94766069784E+00  0.32536477100E+02  0.86031950238E+02  0.91983785879E+02  0.00000000000E+00 0. -1.
         22    1    3    3    0    0 -0.12627322683E+03 -0.78107480017E+02  0.57365331614E+03  0.59255702964E+03  0.00000000000E+00 0. -1.
</event>
<event>
 7    1  0.6999029E-005  0.2937137E+03  0.7818608E-02  0.1151923E+00
          2   -1    0    0  502    0  0.00000000000E+00  0.00000000000E+00  0.42365240444E+03  0.42365240444E+03  0.00000000000E+00 0. -1.
          1   -1    0    0  501    0 -0.00000000000E+00 -0.00000000000E+00 -0.11075425172E+04  0.11075425172E+04  0.00000000000E+00 0. -1.
         25    2    1    2    0    0  0.35564833425E+03 -0.19353545465E+03 -0.21479452530E+03  0.47507951415E+03  0.12498858669E+03 0.  0.
          2    1    1    2  501    0 -0.23575258208E+03  0.13663263422E+03 -0.72133956817E+03  0.77108918376E+03  0.00000000000E+00 0. -1.
          1    1    1    2  502    0 -0.11989575217E+03  0.56902820429E+02  0.25224398076E+03  0.28502622369E+03  0.00000000000E+00 0. -1.
         22    1    3    3    0    0  0.32576411511E+03 -0.13680873116E+03 -0.14976141330E+03  0.38375430751E+03  0.00000000000E+00 0. -1.
         22    1    3    3    0    0  0.29884219135E+02 -0.56726723495E+02 -0.65033111995E+02  0.91325206639E+02  0.00000000000E+00 0. -1.
</event>
<event>
 7    1  0.6999029E-005  0.2541402E+03  0.7818608E-02  0.1230219E+00
          2   -1    0    0  502    0  0.00000000000E+00  0.00000000000E+00  0.12589972675E+03  0.12589972675E+03  0.00000000000E+00 0. -1.
          1   -1    0    0  501    0 -0.00000000000E+00 -0.00000000000E+00 -0.21527137207E+04  0.21527137207E+04  0.00000000000E+00 0. -1.
         25    2    1    2    0    0 -0.55630926079E+02 -0.27695885178E+03 -0.93562326829E+03  0.98530004949E+03  0.12499712736E+03 0.  0.
          2    1    1    2  501    0  0.58897737718E+02  0.26597277834E+02 -0.10345981443E+04  0.10366145276E+04  0.00000000000E+00 0. -1.
          1    1    1    2  502    0 -0.32668116392E+01  0.25036157394E+03 -0.56592581367E+02  0.25669887033E+03  0.00000000000E+00 0. -1.
         22    1    3    3    0    0 -0.17515068689E+02 -0.13935384848E+02 -0.23332203541E+03  0.23439314151E+03  0.00000000000E+00 0. -1.
         22    1    3    3    0    0 -0.38115857390E+02 -0.26302346693E+03 -0.70230123288E+03  0.75090690798E+03  0.00000000000E+00 0. -1.
</event>
<event>
 7    1  0.6999029E-005  0.2491623E+03  0.7818608E-02  0.1169448E+00
          2   -1    0    0  502    0  0.00000000000E+00  0.00000000000E+00  0.18383605496E+04  0.18383605496E+04  0.00000000000E+00 0. -1.
          1   -1    0    0  501    0 -0.00000000000E+00 -0.00000000000E+00 -0.17295857433E+03  0.17295857433E+03  0.00000000000E+00 0. -1.
         25    2    1    2    0    0 -0.21915598372E+03 -0.28968159427E+03  0.29910424684E+03  0.48686140659E+03  0.12500362993E+03 0.  0.
          2    1    1    2  501    0  0.64832512083E+02  0.10990978475E+03 -0.99230473737E+01  0.12799172737E+03  0.00000000000E+00 0. -1.
          1    1    1    2  502    0  0.15432347164E+03  0.17977180952E+03  0.13762207758E+04  0.13964659900E+04  0.00000000000E+00 0. -1.
         22    1    3    3    0    0 -0.60241910807E+02 -0.16891395919E+03  0.10183880118E+03  0.20623325351E+03  0.00000000000E+00 0.  1.
         22    1    3    3    0    0 -0.15891407291E+03 -0.12076763508E+03  0.19726544566E+03  0.28062815309E+03  0.00000000000E+00 0.  1.
</event>
<event>
 7    1  0.6999029E-005  0.4747298E+02  0.7818608E-02  0.1482908E+00
          2   -1    0    0  502    0  0.00000000000E+00  0.00000000000E+00  0.28663318345E+04  0.28663318345E+04  0.00000000000E+00 0. -1.
          1   -1    0    0  501    0 -0.00000000000E+00 -0.00000000000E+00 -0.83961926064E+03  0.83961926064E+03  0.00000000000E+00 0. -1.
         25    2    1    2    0    0  0.32166472119E+02 -0.77869186555E+02 -0.15976703765E+03  0.21965507032E+03  0.12499820581E+03 0.  0.
          2    1    1    2  501    0 -0.79997693572E+01  0.45810940513E+02 -0.64893402045E+03  0.65059818742E+03  0.00000000000E+00 0. -1.
          1    1    1    2  502    0 -0.24166702762E+02  0.32058246042E+02  0.28354136320E+04  0.28356978374E+04  0.00000000000E+00 0. -1.
         22    1    3    3    0    0 -0.52069740906E+01 -0.63497507222E+02 -0.98313041686E+01  0.64464723255E+02  0.00000000000E+00 0.  1.
         22    1    3    3    0    0  0.37373446210E+02 -0.14371679333E+02 -0.14993573348E+03  0.15519034707E+03  0.00000000000E+00 0.  1.
</event>
<event>
 7    1  0.6999029E-005  0.1184437E+03  0.7818608E-02  0.1268067E+00
          2   -1    0    0  502    0  0.00000000000E+00  0.00000000000E+00  0.63729269990E+02  0.63729269990E+02  0.00000000000E+00 0. -1.
          1   -1    0    0  501    0 -0.00000000000E+00 -0.00000000000E+00 -0.85761083694E+03  0.85761083694E+03  0.00000000000E+00 0. -1.
         25    2    1    2    0    0  0.17339108833E+03  0.68646487475E+02 -0.56525405607E+03  0.60820559047E+03  0.12500033049E+03 0.  0.
          2    1    1    2  501    0 -0.94756872004E+02  0.60674735072E+01 -0.15590490003E+03  0.18254319182E+03  0.00000000000E+00 0. -1.
          1    1    1    2  502    0 -0.78634216322E+02 -0.74713960983E+02 -0.72722610853E+02  0.13059132464E+03  0.00000000000E+00 0. -1.
         22    1    3    3    0    0  0.14513929663E+03  0.95601360503E+02 -0.36608236736E+03  0.40524231670E+03  0.00000000000E+00 0. -1.
         22    1    3    3    0    0  0.28251791696E+02 -0.26954873027E+02 -0.19917168871E+03  0.20296327377E+03  0.00000000000E+00 0. -1.
</event>
<event>
 7    1  0.6999029E-005  0.3987084E+03  0.7818608E-02  0.1142338E+00
          2   -1    0    0  502    0  0.00000000000E+00  0.00000000000E+00  0.93372014083E+03  0.93372014083E+03  0.00000000000E+00 0. -1.
          1   -1    0    0  501    0 -0.00000000000E+00 -0.00000000000E+00 -0.60763634089E+03  0.60763634089E+03  0.00000000000E+00 0. -1.
         25    2    1    2    0    0  0.20000600448E+03  0.41943720390E+03  0.32672198797E+03  0.58163760256E+03  0.12500029376E+03 0.  0.
          2    1    1    2  501    0 -0.77609315412E+02 -0.77368439922E+02 -0.40298330497E+03  0.41761779826E+03  0.00000000000E+00 0. -1.
          1    1    1    2  502    0 -0.12239668907E+03 -0.34206876398E+03  0.40234511694E+03  0.54210108090E+03  0.00000000000E+00 0. -1.
         22    1    3    3    0    0  0.97782424112E+02  0.23297202116E+03  0.25036541477E+03  0.35569678944E+03  0.00000000000E+00 0. -1.
         22    1    3    3    0    0  0.10222358037E+03  0.18646518275E+03  0.76356573197E+02  0.22594081312E+03  0.00000000000E+00 0. -1.
</event>
<event>
 7    1  0.6999029E-005  0.7645240E+03  0.7818608E-02  0.1066506E+00
          2   -1    0    0  502    0  0.00000000000E+00  0.00000000000E+00  0.25469385187E+04  0.25469385187E+04  0.00000000000E+00 0. -1.
          1   -1    0    0  501    0 -0.00000000000E+00 -0.00000000000E+00 -0.57832536643E+03  0.57832536643E+03  0.00000000000E+00 0. -1.
         25    2    1    2    0    0  0.13901913719E+03  0.85385635755E+03  0.67389347365E+03  0.11037003756E+04  0.12500042138E+03 0.  0.
          2    1    1    2  501    0 -0.16616362304E+03 -0.70449133652E+03  0.59127007335E+01  0.72384622185E+03  0.00000000000E+00 0. -1.
          1    1    1    2  502    0  0.27144485850E+02 -0.14936502103E+03  0.12888069779E+04  0.12977172877E+04  0.00000000000E+00 0. -1.
         22    1    3    3    0    0  0.13178896905E+03  0.77889500234E+03  0.65465619416E+03  0.10259729478E+04  0.00000000000E+00 0. -1.
         22    1    3    3    0    0  0.72301681333E+01  0.74961355208E+02  0.19237279491E+02  0.77727427772E+02  0.00000000000E+00 0. -1.
</event>
<event>
 7    1  0.6999029E-005  0.5985042E+03  0.7818608E-02  0.1227215E+00
          2   -1    0    0  502    0  0.00000000000E+00  0.00000000000E+00  0.18550694698E+04  0.18550694698E+04  0.00000000000E+00 0. -1.
          1   -1    0    0  501    0 -0.00000000000E+00 -0.00000000000E+00 -0.45525249343E+03  0.45525249343E+03  0.00000000000E+00 0. -1.
         25    2    1    2    0    0  0.42051647507E+03 -0.44102665687E+03  0.10194204629E+04  0.11942288217E+04  0.12500312150E+03 0.  0.
          2    1    1    2  501    0 -0.26765533074E+02  0.92153090563E+01 -0.25283724815E+03  0.25441696039E+03  0.00000000000E+00 0. -1.
          1    1    1    2  502    0 -0.39375094200E+03  0.43181134781E+03  0.63323376162E+03  0.86167618122E+03  0.00000000000E+00 0. -1.
         22    1    3    3    0    0  0.35415222654E+03 -0.29294229521E+03  0.74057696137E+03  0.87160382261E+03  0.00000000000E+00 0.  1.
         22    1    3    3    0    0  0.66364248534E+02 -0.14808436166E+03  0.27884350155E+03  0.32262499904E+03  0.00000000000E+00 0.  1.
</event>
<event>
 7    1  0.1912997E-004  0.8838528E+02  0.7818608E-02  0.1324774E+00
          2   -1    0    0  502    0  0.00000000000E+00  0.00000000000E+00  0.17813641184E+04  0.17813641184E+04  0.00000000000E+00 0. -1.
          1   -1    0    0  501    0 -0.00000000000E+00 -0.00000000000E+00 -0.12795495803E+04  0.12795495803E+04  0.00000000000E+00 0. -1.
         25    2    1    2    0    0  0.26941508967E+02  0.16095459223E+03 -0.26119656455E+03  0.33238652992E+03  0.12499973711E+03 0.  0.
          2    1    1    2  501    0 -0.15372541370E+02 -0.73612239705E+02 -0.98020529183E+03  0.98308569871E+03  0.00000000000E+00 0. -1.
          1    1    1    2  502    0 -0.11568967597E+02 -0.87342352525E+02  0.17432163944E+04  0.17454414700E+04  0.00000000000E+00 0. -1.
         22    1    3    3    0    0 -0.29422547493E+02  0.44681373799E+02 -0.17041424030E+02  0.56147320493E+02  0.00000000000E+00 0. -1.
         22    1    3    3    0    0  0.56364056460E+02  0.11627321843E+03 -0.24415514052E+03  0.27623920943E+03  0.00000000000E+00 0. -1.
</event>
<event>
 7    1  0.6999029E-005  0.1113166E+04  0.7818608E-02  0.1112572E+00
          2   -1    0    0  502    0  0.00000000000E+00  0.00000000000E+00  0.24836221339E+04  0.24836221339E+04  0.00000000000E+00 0. -1.
          1   -1    0    0  501    0 -0.00000000000E+00 -0.00000000000E+00 -0.15528774597E+04  0.15528774597E+04  0.00000000000E+00 0. -1.
         25    2    1    2    0    0 -0.87839617335E+02  0.11014821921E+04 -0.48005600910E+03  0.12112211658E+04  0.12499649068E+03 0.  0.
          2    1    1    2  501    0  0.14293395051E+03 -0.11147513995E+04 -0.25996482196E+03  0.11535521252E+04  0.00000000000E+00 0. -1.
          1    1    1    2  502    0 -0.55094333173E+02  0.13269207396E+02  0.16707655052E+04  0.16717263026E+04  0.00000000000E+00 0. -1.
         22    1    3    3    0    0  0.27188731706E+02  0.10884413788E+03 -0.60207703533E+02  0.12732337196E+03  0.00000000000E+00 0.  1.
         22    1    3    3    0    0 -0.11502834904E+03  0.99263805419E+03 -0.41984830557E+03  0.10838977938E+04  0.00000000000E+00 0.  1.
</event>
<event>
 7    1  0.6999029E-005  0.7671377E+02  0.7818608E-02  0.1353223E+00
          2   -1    0    0  502    0  0.00000000000E+00  0.00000000000E+00  0.52351557602E+03  0.52351557602E+03  0.00000000000E+00 0. -1.
          1   -1    0    0  501    0 -0.00000000000E+00 -0.00000000000E+00 -0.60111040783E+03  0.60111040783E+03  0.00000000000E+00 0. -1.
         25    2    1    2    0    0  0.10795363459E+03 -0.27640828808E+02 -0.41685809435E+02  0.17258235999E+03  0.12501584553E+03 0.  0.
          2    1    1    2  501    0 -0.47986689145E+02  0.59039201916E+02 -0.48851500982E+03  0.49440394873E+03  0.00000000000E+00 0. -1.
          1    1    1    2  502    0 -0.59966945443E+02 -0.31398373107E+02  0.45260598745E+03  0.45763967513E+03  0.00000000000E+00 0. -1.
         22    1    3    3    0    0  0.11995561543E+02 -0.25575043395E+02  0.38335958331E+02  0.47619555253E+02  0.00000000000E+00 0.  1.
         22    1    3    3    0    0  0.95958073046E+02 -0.20657854135E+01 -0.80021767766E+02  0.12496280474E+03  0.00000000000E+00 0.  1.
</event>
<event>
 7    1  0.6999029E-005  0.1197304E+04  0.7818608E-02  0.1000742E+00
          2   -1    0    0  502    0  0.00000000000E+00  0.00000000000E+00  0.25579342689E+04  0.25579342689E+04  0.00000000000E+00 0. -1.
          1   -1    0    0  501    0 -0.00000000000E+00 -0.00000000000E+00 -0.14261885162E+04  0.14261885162E+04  0.00000000000E+00 0. -1.
         25    2    1    2    0    0  0.83563898551E+03 -0.10140821893E+04 -0.25796464338E+03  0.13449263691E+04  0.12500392122E+03 0.  0.
          2    1    1    2  501    0 -0.59884036283E+03  0.91771367788E+03 -0.12512914956E+03  0.11029349386E+04  0.00000000000E+00 0. -1.
          1    1    1    2  502    0 -0.23679862267E+03  0.96368511412E+02  0.15148395457E+04  0.15362614773E+04  0.00000000000E+00 0. -1.
         22    1    3    3    0    0  0.30702824298E+03 -0.35940431233E+03 -0.15365573330E+03  0.49703911926E+03  0.00000000000E+00 0. -1.
         22    1    3    3    0    0  0.52861074253E+03 -0.65467787697E+03 -0.10430891009E+03  0.84788724983E+03  0.00000000000E+00 0. -1.
</event>
<event>
 7    1  0.6999029E-005  0.8582856E+02  0.7818608E-02  0.1361511E+00
          2   -1    0    0  502    0  0.00000000000E+00  0.00000000000E+00  0.76101433834E+03  0.76101433834E+03  0.00000000000E+00 0. -1.
          1   -1    0    0  501    0 -0.00000000000E+00 -0.00000000000E+00 -0.10083628262E+04  0.10083628262E+04  0.00000000000E+00 0. -1.
         25    2    1    2    0    0  0.81107327753E+02 -0.11249017669E+03  0.14627089175E+03  0.23717107855E+03  0.12499003265E+03 0.  0.
          2    1    1    2  501    0 -0.35030281950E+02  0.44221507795E+02 -0.95910050731E+03  0.96075826592E+03  0.00000000000E+00 0. -1.
          1    1    1    2  502    0 -0.46077045803E+02  0.68268668897E+02  0.56548112769E+03  0.57144782008E+03  0.00000000000E+00 0. -1.
         22    1    3    3    0    0  0.56941746300E+02 -0.11240545098E+03  0.46175024108E+02  0.13419940660E+03  0.00000000000E+00 0.  1.
         22    1    3    3    0    0  0.24165581453E+02 -0.84725712228E-01  0.10009586764E+03  0.10297167195E+03  0.00000000000E+00 0.  1.
</event>
<event>
 7    1  0.6999029E-005  0.1616066E+03  0.7818608E-02  0.1213271E+00
          2   -1    0    0  502    0  0.00000000000E+00  0.00000000000E+00  0.95220947936E+03  0.95220947936E+03  0.00000000000E+00 0. -1.
          1   -1    0    0  501    0 -0.00000000000E+00 -0.00000000000E+00 -0.52728614211E+03  0.52728614211E+03  0.00000000000E+00 0. -1.
         25    2    1    2    0    0 -0.12175266499E+03  0.22254193278E+03  0.13635561833E+03  0.31395269870E+03  0.12499927636E+03 0.  0.
          2    1    1    2  501    0  0.20648837780E+02 -0.15541838069E+03 -0.41914091063E+03  0.44750458156E+03  0.00000000000E+00 0. -1.
          1    1    1    2  502    0  0.10110382721E+03 -0.67123552092E+02  0.70770862954E+03  0.71803834121E+03  0.00000000000E+00 0. -1.
         22    1    3    3    0    0 -0.13759646013E+03  0.22245760165E+03  0.14137418574E+03  0.29733286190E+03  0.00000000000E+00 0. -1.
         22    1    3    3    0    0  0.15843795141E+02  0.84331124010E-01 -0.50185674067E+01  0.16619836793E+02  0.00000000000E+00 0. -1.
</event>
<event>
 7    1  0.6999029E-005  0.3124575E+03  0.7818608E-02  0.1229229E+00
          2   -1    0    0  502    0  0.00000000000E+00  0.00000000000E+00  0.14573819524E+04  0.14573819524E+04  0.00000000000E+00 0. -1.
          1   -1    0    0  501    0 -0.00000000000E+00 -0.00000000000E+00 -0.15134729199E+04  0.15134729199E+04  0.00000000000E+00 0. -1.
         25    2    1    2    0    0  0.12291886686E+03  0.25765353701E+03  0.39229875688E+02  0.31410022289E+03  0.12500229561E+03 0.  0.
          2    1    1    2  501    0 -0.17584741509E+03 -0.26195761765E+03 -0.13573867736E+04  0.13935720146E+04  0.00000000000E+00 0. -1.
          1    1    1    2  502    0  0.52928548233E+02  0.43040806410E+01  0.12620659304E+04  0.12631826349E+04  0.00000000000E+00 0. -1.
         22    1    3    3    0    0 -0.31890755657E+01  0.26654959476E+02 -0.31690378411E+02  0.41532362700E+02  0.00000000000E+00 0.  1.
         22    1    3    3    0    0  0.12610794243E+03  0.23099857753E+03  0.70920254099E+02  0.27256786019E+03  0.00000000000E+00 0.  1.
</event>
<event>
 7    1  0.6999029E-005  0.1406725E+03  0.7818608E-02  0.1223077E+00
          2   -1    0    0  502    0  0.00000000000E+00  0.00000000000E+00  0.11474356023E+04  0.11474356023E+04  0.00000000000E+00 0. -1.
          1   -1    0    0  501    0 -0.00000000000E+00 -0.00000000000E+00 -0.87074081122E+03  0.87074081122E+03  0.00000000000E+00 0. -1.
         25    2    1    2    0    0 -0.22963849656E+03 -0.86391683802E+02 -0.14203064158E+03  0.30982957004E+03  0.12499718873E+03 0.  0.
          2    1    1    2  501    0  0.12561227185E+03 -0.56111235851E+01 -0.63407744844E+03  0.64642411633E+03  0.00000000000E+00 0. -1.
          1    1    1    2  502    0  0.10402622471E+03  0.92002807387E+02  0.10528028811E+04  0.10619227271E+04  0.00000000000E+00 0. -1.
         22    1    3    3    0    0 -0.15858117232E+03 -0.44323731686E+00 -0.11260573411E+03  0.19449482262E+03  0.00000000000E+00 0.  1.
         22    1    3    3    0    0 -0.71057324239E+02 -0.85948446485E+02 -0.29424907474E+02  0.11533474741E+03  0.00000000000E+00 0.  1.
</event>
<event>
 7    1  0.6999029E-005  0.4824693E+03  0.7818608E-02  0.1086839E+00
          2   -1    0    0  502    0  0.00000000000E+00  0.00000000000E+00  0.12858421105E+04  0.12858421105E+04  0.00000000000E+00 0. -1.
          1   -1    0    0  501    0 -0.00000000000E+00 -0.00000000000E+00 -0.28617545542E+04  0.28617545542E+04  0.00000000000E+00 0. -1.
         25    2    1    2    0    0 -0.58278921086E+03 -0.67000223414E+02 -0.41936890276E+03  0.73186554930E+03  0.12499844566E+03 0.  0.
          2    1    1    2  501    0  0.14320235734E+03 -0.11331599025E+03 -0.22322806456E+04  0.22397375537E+04  0.00000000000E+00 0. -1.
          1    1    1    2  502    0  0.43958685352E+03  0.18031621366E+03  0.10757371047E+04  0.11759935617E+04  0.00000000000E+00 0. -1.
         22    1    3    3    0    0 -0.35869744919E+03 -0.70220274645E+02 -0.19304546518E+03  0.41335372099E+03  0.00000000000E+00 0.  1.
         22    1    3    3    0    0 -0.22409176167E+03  0.32200512305E+01 -0.22632343757E+03  0.31851182831E+03  0.00000000000E+00 0.  1.
</event>
<event>
 7    1  0.6999029E-005  0.1804183E+03  0.7818608E-02  0.1298027E+00
          2   -1    0    0  502    0  0.00000000000E+00  0.00000000000E+00  0.12591866115E+04  0.12591866115E+04  0.00000000000E+00 0. -1.
          1   -1    0    0  501    0 -0.00000000000E+00 -0.00000000000E+00 -0.41100737520E+03  0.41100737520E+03  0.00000000000E+00 0. -1.
         25    2    1    2    0    0 -0.19969060972E+03 -0.60757505451E+02  0.28547284162E+03  0.37508332107E+03  0.12499976146E+03 0.  0.
          2    1    1    2  501    0  0.43048636473E+02 -0.18703051531E+02 -0.35634652439E+03  0.35942431009E+03  0.00000000000E+00 0. -1.
          1    1    1    2  502    0  0.15664197324E+03  0.79460556982E+02  0.91905291906E+03  0.93568635553E+03  0.00000000000E+00 0. -1.
         22    1    3    3    0    0 -0.22937216441E+02  0.32039022319E+02  0.76674516408E+02  0.86206706906E+02  0.00000000000E+00 0. -1.
         22    1    3    3    0    0 -0.17675339328E+03 -0.92796527770E+02  0.20879832521E+03  0.28887661417E+03  0.00000000000E+00 0. -1.
</event>
<event>
 7    1  0.6999029E-005  0.7839355E+02  0.7818608E-02  0.1400962E+00
          2   -1    0    0  502    0  0.00000000000E+00  0.00000000000E+00  0.83749911524E+03  0.83749911524E+03  0.00000000000E+00 0. -1.
          1   -1    0    0  501    0 -0.00000000000E+00 -0.00000000000E+00 -0.16858235332E+04  0.16858235332E+04  0.00000000000E+00 0. -1.
         25    2    1    2    0    0 -0.11508592237E+03  0.30214570633E+02  0.86831870967E+02  0.19319156470E+03  0.12500206818E+03 0.  0.
          2    1    1    2  501    0  0.44789875858E+02  0.80000341426E+00 -0.16302190988E+04  0.16308344745E+04  0.00000000000E+00 0. -1.
          1    1    1    2  502    0  0.70296046510E+02 -0.31014574047E+02  0.69506280992E+03  0.69929660924E+03  0.00000000000E+00 0. -1.
         22    1    3    3    0    0 -0.73779427983E+02  0.19790888623E+02  0.11788723145E+03  0.14047235530E+03  0.00000000000E+00 0.  1.
         22    1    3    3    0    0 -0.41306494386E+02  0.10423682010E+02 -0.31055360478E+02  0.52719209398E+02  0.00000000000E+00 0.  1.
</event>
<event>
 7    1  0.6999029E-005  0.1170757E+04  0.7818608E-02  0.1076625E+00
          2   -1    0    0  502    0  0.00000000000E+00  0.00000000000E+00  0.88274084489E+03  0.88274084489E+03  0.00000000000E+00 0. -1.
          1   -1    0    0  501    0 -0.00000000000E+00 -0.00000000000E+00 -0.24084111962E+04  0.24084111962E+04  0.00000000000E+00 0. -1.
         25    2    1    2    0    0 -0.35091121624E+03 -0.10833164576E+04 -0.12249645252E+03  0.11521044390E+04  0.12500411380E+03 0.  0.
          2    1    1    2  501    0 -0.41277896507E+01 -0.86215424257E+02 -0.74669662883E+03  0.75166880575E+03  0.00000000000E+00 0. -1.
          1    1    1    2  502    0  0.35503900589E+03  0.11695318819E+04 -0.65647726993E+03  0.13873787963E+04  0.00000000000E+00 0. -1.
         22    1    3    3    0    0 -0.68704491917E+02 -0.36079345661E+03 -0.31075357740E+01  0.36728991590E+03  0.00000000000E+00 0. -1.
         22    1    3    3    0    0 -0.28220672432E+03 -0.72252300103E+03 -0.11938891675E+03  0.78481452313E+03  0.00000000000E+00 0. -1.
</event>
<event>
 7    1  0.6999029E-005  0.4587549E+03  0.7818608E-02  0.1112279E+00
          2   -1    0    0  502    0  0.00000000000E+00  0.00000000000E+00  0.12194788657E+04  0.12194788657E+04  0.00000000000E+00 0. -1.
          1   -1    0    0  501    0 -0.00000000000E+00 -0.00000000000E+00 -0.12397098247E+04  0.12397098247E+04  0.00000000000E+00 0. -1.
         25    2    1    2    0    0 -0.70384825241E+02  0.48637851748E+03 -0.46426535824E+03  0.68752135313E+03  0.12500080901E+03 0.  0.
          2    1    1    2  501    0 -0.11902147555E+03 -0.69882509289E+02 -0.60851552652E+03  0.62397181248E+03  0.00000000000E+00 0. -1.
          1    1    1    2  502    0  0.18940630079E+03 -0.41649600819E+03  0.10525499257E+04  0.11476955248E+04  0.00000000000E+00 0. -1.
         22    1    3    3    0    0 -0.86451868279E+02  0.22524841177E+03 -0.26700823750E+03  0.35986688015E+03  0.00000000000E+00 0. -1.
         22    1    3    3    0    0  0.16067043038E+02  0.26113010572E+03 -0.19725712074E+03  0.32765447298E+03  0.00000000000E+00 0. -1.
</event>
<event>
 7    1  0.6999029E-005  0.1766190E+03  0.7818608E-02  0.1210713E+00
          2   -1    0    0  502    0  0.00000000000E+00  0.00000000000E+00  0.16519822621E+04  0.16519822621E+04  0.00000000000E+00 0. -1.
          1   -1    0    0  501    0 -0.00000000000E+00 -0.00000000000E+00 -0.74530333834E+03  0.74530333834E+03  0.00000000000E+00 0. -1.
         25    2    1    2    0    0  0.22095569909E+03  0.16133865084E+03  0.20228969348E+03  0.36248755870E+03  0.12499811563E+03 0.  0.
          2    1    1    2  501    0 -0.10945941755E+03 -0.32227685528E+02 -0.65494045524E+03  0.66480597750E+03  0.00000000000E+00 0. -1.
          1    1    1    2  502    0 -0.11149628154E+03 -0.12911096531E+03  0.13593296855E+04  0.13699920643E+04  0.00000000000E+00 0. -1.
         22    1    3    3    0    0  0.82524246818E+02  0.11444008168E+02  0.11143177823E+03  0.13913395644E+03  0.00000000000E+00 0. -1.
         22    1    3    3    0    0  0.13843145227E+03  0.14989464267E+03  0.90857915250E+02  0.22335360226E+03  0.00000000000E+00 0. -1.
</event>
<event>
 7    1  0.6999029E-005  0.6811978E+02  0.7818608E-02  0.1388799E+00
          2   -1    0    0  502    0  0.00000000000E+00  0.00000000000E+00  0.20781653178E+03  0.20781653178E+03  0.00000000000E+00 0. -1.
          1   -1    0    0  501    0 -0.00000000000E+00 -0.00000000000E+00 -0.18281675108E+04  0.18281675108E+04  0.00000000000E+00 0. -1.
         25    2    1    2    0    0  0.12247864305E+02  0.72250977668E+02 -0.25999160548E+03  0.29764188550E+03  0.12499937252E+03 0.  0.
          2    1    1    2  501    0 -0.57468708171E+02 -0.37870514304E+02 -0.15442983038E+04  0.15458311937E+04  0.00000000000E+00 0. -1.
          1    1    1    2  502    0  0.45220843867E+02 -0.34380463364E+02  0.18393893023E+03  0.19251096341E+03  0.00000000000E+00 0. -1.
         22    1    3    3    0    0  0.14259225509E+01  0.96226981818E+01  0.13624693218E+02  0.16741022690E+02  0.00000000000E+00 0.  1.
         22    1    3    3    0    0  0.10821941754E+02  0.62628279486E+02 -0.27361629870E+03  0.28090086281E+03  0.00000000000E+00 0.  1.
</event>
<event>
 7    1  0.6999029E-005  0.2583305E+03  0.7818608E-02  0.1230138E+00
          2   -1    0    0  502    0  0.00000000000E+00  0.00000000000E+00  0.79168528320E+03  0.79168528320E+03  0.00000000000E+00 0. -1.
          1   -1    0    0  501    0 -0.00000000000E+00 -0.00000000000E+00 -0.54012831313E+03  0.54012831313E+03  0.00000000000E+00 0. -1.
         25    2    1    2    0    0  0.26520408556E+03 -0.48515744083E+01 -0.30778135854E+03  0.42510176609E+03  0.12500160836E+03 0.  0.
          2    1    1    2  501    0 -0.24357331617E+03  0.64691644025E+02 -0.79849202127E+02  0.26436502082E+03  0.00000000000E+00 0. -1.
          1    1    1    2  502    0 -0.21630769395E+02 -0.59840069616E+02  0.63918753074E+03  0.64234680942E+03  0.00000000000E+00 0. -1.
         22    1    3    3    0    0  0.10545530983E+03 -0.36617446808E+02 -0.20228942473E+03  0.23104690247E+03  0.00000000000E+00 0. -1.
         22    1    3    3    0    0  0.15974877573E+03  0.31765872400E+02 -0.10549193381E+03  0.19405486362E+03  0.00000000000E+00 0. -1.
</event>
<event>
 7    1  0.6999029E-005  0.3782441E+03  0.7818608E-02  0.1286889E+00
          2   -1    0    0  502    0  0.00000000000E+00  0.00000000000E+00  0.51273476743E+03  0.51273476743E+03  0.00000000000E+00 0. -1.
          1   -1    0    0  501    0 -0.00000000000E+00 -0.00000000000E+00 -0.10522197975E+04  0.10522197975E+04  0.00000000000E+00 0. -1.
         25    2    1    2    0    0 -0.14922379756E+03 -0.37055335600E+03 -0.42590658966E+03  0.59715925090E+03  0.12500086564E+03 0.  0.
          2    1    1    2  501    0  0.12023054517E+02  0.21735559440E+02 -0.45804769361E+03  0.45872069716E+03  0.00000000000E+00 0. -1.
          1    1    1    2  502    0  0.13720074304E+03  0.34881779656E+03  0.34446925323E+03  0.50907461684E+03  0.00000000000E+00 0. -1.
         22    1    3    3    0    0 -0.26506264021E+02 -0.18808740369E+03 -0.13751989949E+03  0.23450197486E+03  0.00000000000E+00 0. -1.
         22    1    3    3    0    0 -0.12271753354E+03 -0.18246595231E+03 -0.28838669018E+03  0.36265727604E+03  0.00000000000E+00 0. -1.
</event>
<event>
 7    1  0.6999029E-005  0.1828837E+03  0.7818608E-02  0.1197056E+00
          2   -1    0    0  502    0  0.00000000000E+00  0.00000000000E+00  0.26594299927E+04  0.26594299927E+04  0.00000000000E+00 0. -1.
          1   -1    0    0  501    0 -0.00000000000E+00 -0.00000000000E+00 -0.15711944524E+03  0.15711944524E+03  0.00000000000E+00 0. -1.
         25    2    1    2    0    0  0.20988592270E+03  0.12367983174E+03  0.44404360470E+03  0.52167861060E+03  0.12500019422E+03 0.  0.
          2    1    1    2  501    0 -0.17833240664E+03  0.50304294002E-01 -0.48045764572E+02  0.18469121603E+03  0.00000000000E+00 0. -1.
          1    1    1    2  502    0 -0.31553516065E+02 -0.12373013603E+03  0.21063127073E+04  0.21101796113E+04  0.00000000000E+00 0. -1.
         22    1    3    3    0    0  0.15351258620E+03  0.14716596793E+03  0.35028895401E+03  0.40978810078E+03  0.00000000000E+00 0.  1.
         22    1    3    3    0    0  0.56373336498E+02 -0.23486136195E+02  0.93754650685E+02  0.11189050981E+03  0.00000000000E+00 0.  1.
</event>
<event>
 7    1  0.8128947E-005  0.1885650E+03  0.7818608E-02  0.1244418E+00
          2   -1    0    0  502    0  0.00000000000E+00  0.00000000000E+00  0.72985270297E+03  0.72985270297E+03  0.00000000000E+00 0. -1.
          1   -1    0    0  501    0 -0.00000000000E+00 -0.00000000000E+00 -0.10298292618E+04  0.10298292618E+04  0.00000000000E+00 0. -1.
         25    2    1    2    0    0  0.19119999955E+03 -0.17599042923E+03 -0.15678932877E+03  0.32824147702E+03  0.12501800916E+03 0.  0.
          2    1    1    2  501    0 -0.52605384675E+02  0.53953535604E+02 -0.77220653685E+03  0.77587450406E+03  0.00000000000E+00 0. -1.
          1    1    1    2  502    0 -0.13859461487E+03  0.12203689363E+03  0.62901930678E+03  0.65556598370E+03  0.00000000000E+00 0. -1.
         22    1    3    3    0    0 -0.75127152372E+01 -0.52465635903E+02 -0.41994256351E+02  0.67621013061E+02  0.00000000000E+00 0. -1.
         22    1    3    3    0    0  0.19871271478E+03 -0.12352479333E+03 -0.11479507242E+03  0.26062046396E+03  0.00000000000E+00 0. -1.
</event>
<event>
 7    1  0.6999029E-005  0.1631431E+03  0.7818608E-02  0.1270034E+00
          2   -1    0    0  502    0  0.00000000000E+00  0.00000000000E+00  0.11207563967E+04  0.11207563967E+04  0.00000000000E+00 0. -1.
          1   -1    0    0  501    0 -0.00000000000E+00 -0.00000000000E+00 -0.98068062739E+02  0.98068062739E+02  0.00000000000E+00 0. -1.
         25    2    1    2    0    0  0.18901599981E+03 -0.32927543120E+02  0.13632143457E+03  0.26648656878E+03  0.12498114473E+03 0.  0.
          2    1    1    2  501    0 -0.12838478862E+03  0.62899351399E+02  0.13086925393E+03  0.19381884320E+03  0.00000000000E+00 0. -1.
          1    1    1    2  502    0 -0.60631211192E+02 -0.29971808279E+02  0.75549764548E+03  0.75851904748E+03  0.00000000000E+00 0. -1.
         22    1    3    3    0    0  0.55773195723E+02  0.39922302198E+02  0.10729782310E+02  0.69423107121E+02  0.00000000000E+00 0. -1.
         22    1    3    3    0    0  0.13324280409E+03 -0.72849845318E+02  0.12559165226E+03  0.19706346166E+03  0.00000000000E+00 0. -1.
</event>
<event>
 7    1  0.6999029E-005  0.5341450E+03  0.7818608E-02  0.1115489E+00
          2   -1    0    0  502    0  0.00000000000E+00  0.00000000000E+00  0.29875020482E+04  0.29875020482E+04  0.00000000000E+00 0. -1.
          1   -1    0    0  501    0 -0.00000000000E+00 -0.00000000000E+00 -0.21489188360E+03  0.21489188360E+03  0.00000000000E+00 0. -1.
         25    2    1    2    0    0  0.60432112689E+03  0.16717582901E+03  0.45350505238E+03  0.78386387977E+03  0.12499586899E+03 0.  0.
          2    1    1    2  501    0 -0.99295211284E+02 -0.55645934812E+02  0.14819850752E+03  0.18686574506E+03  0.00000000000E+00 0. -1.
          1    1    1    2  502    0 -0.50502591560E+03 -0.11152989420E+03  0.21709066047E+04  0.22316643070E+04  0.00000000000E+00 0. -1.
         22    1    3    3    0    0 -0.10769580088E+01  0.93258078331E+01 -0.24559835951E+01  0.97037305049E+01  0.00000000000E+00 0. -1.
         22    1    3    3    0    0  0.60539808489E+03  0.15785002118E+03  0.45596103598E+03  0.77416014927E+03  0.00000000000E+00 0. -1.
</event>
<event>
 7    1  0.6999029E-005  0.5199429E+03  0.7818608E-02  0.1248330E+00
          2   -1    0    0  502    0  0.00000000000E+00  0.00000000000E+00  0.69631028292E+03  0.69631028292E+03  0.00000000000E+00 0. -1.
          1   -1    0    0  501    0 -0.00000000000E+00 -0.00000000000E+00 -0.88530241586E+03  0.88530241586E+03  0.00000000000E+00 0. -1.
         25    2    1    2    0    0  0.51972145578E+03  0.85159128832E+02 -0.57258533040E+03  0.78793496972E+03  0.12500034835E+03 0.  0.
          2    1    1    2  501    0 -0.49501093732E+03 -0.76227525629E+02  0.10233340767E+03  0.51119330009E+03  0.00000000000E+00 0. -1.
          1    1    1    2  502    0 -0.24710518463E+02 -0.89316032027E+01  0.28125978979E+03  0.28248442897E+03  0.00000000000E+00 0. -1.
         22    1    3    3    0    0  0.51667042097E+03  0.83139854269E+02 -0.57906245448E+03  0.78049592277E+03  0.00000000000E+00 0. -1.
         22    1    3    3    0    0  0.30510348094E+01  0.20192745626E+01  0.64771240761E+01  0.74390469460E+01  0.00000000000E+00 0. -1.
</event>
<event>
 7    1  0.6999029E-005  0.8205713E+02  0.7818608E-02  0.1372620E+00
          2   -1    0    0  502    0  0.00000000000E+00  0.00000000000E+00  0.17310272342E+04  0.17310272342E+04  0.00000000000E+00 0. -1.
          1   -1    0    0  501    0 -0.00000000000E+00 -0.00000000000E+00 -0.37637570434E+03  0.37637570434E+03  0.00000000000E+00 0. -1.
         25    2    1    2    0    0 -0.20449326875E+01  0.95923045630E+02 -0.10344851150E+03  0.18849872578E+03  0.12499905062E+03 0.  0.
          2    1    1    2  501    0 -0.44501103662E+02 -0.68939144744E+02 -0.22265230430E+03  0.23729096594E+03  0.00000000000E+00 0. -1.
          1    1    1    2  502    0  0.46546036349E+02 -0.26983900886E+02  0.16807523457E+04  0.16816132468E+04  0.00000000000E+00 0. -1.
         22    1    3    3    0    0  0.26319874575E+02  0.41763033253E+02  0.17988211479E+02  0.52540103696E+02  0.00000000000E+00 0.  1.
         22    1    3    3    0    0 -0.28364807262E+02  0.54160012377E+02 -0.12143672298E+03  0.13595862208E+03  0.00000000000E+00 0.  1.
</event>
<event>
 7    1  0.6999029E-005  0.1044756E+04  0.7818608E-02  0.1106432E+00
          2   -1    0    0  502    0  0.00000000000E+00  0.00000000000E+00  0.11928427847E+04  0.11928427847E+04  0.00000000000E+00 0. -1.
          1   -1    0    0  501    0 -0.00000000000E+00 -0.00000000000E+00 -0.17802120526E+04  0.17802120526E+04  0.00000000000E+00 0. -1.
         25    2    1    2    0    0 -0.96848703967E+02 -0.10582420321E+04  0.29543591744E+03  0.11100285383E+04  0.12500041824E+03 0.  0.
          2    1    1    2  501    0  0.15498110112E+03  0.10285050401E+04 -0.11717514580E+04  0.15667939361E+04  0.00000000000E+00 0. -1.
          1    1    1    2  502    0 -0.58132397148E+02  0.29736992089E+02  0.28894627261E+03  0.29623236277E+03  0.00000000000E+00 0. -1.
         22    1    3    3    0    0 -0.22182294945E+02 -0.80613117530E+03  0.23897422980E+03  0.84109940465E+03  0.00000000000E+00 0.  1.
         22    1    3    3    0    0 -0.74666409022E+02 -0.25211085684E+03  0.56461687645E+02  0.26892913369E+03  0.00000000000E+00 0.  1.
</event>
<event>
 7    1  0.6999029E-005  0.7923826E+03  0.7818608E-02  0.1155543E+00
          2   -1    0    0  502    0  0.00000000000E+00  0.00000000000E+00  0.77249179401E+03  0.77249179401E+03  0.00000000000E+00 0. -1.
          1   -1    0    0  501    0 -0.00000000000E+00 -0.00000000000E+00 -0.12199021931E+04  0.12199021931E+04  0.00000000000E+00 0. -1.
         25    2    1    2    0    0 -0.59101684317E+03 -0.49207156887E+03 -0.33874091462E+03  0.84959150121E+03  0.12499989554E+03 0.  0.
          2    1    1    2  501    0 -0.47118784553E+02  0.14614165131E+01 -0.30960204040E+03  0.31317046320E+03  0.00000000000E+00 0. -1.
          1    1    1    2  502    0  0.63813562772E+03  0.49061015236E+03  0.20093255598E+03  0.82963202266E+03  0.00000000000E+00 0. -1.
         22    1    3    3    0    0 -0.38509684345E+03 -0.26002181148E+03 -0.24611697907E+03  0.52581792349E+03  0.00000000000E+00 0. -1.
         22    1    3    3    0    0 -0.20591999972E+03 -0.23204975739E+03 -0.92623935558E+02  0.32377357772E+03  0.00000000000E+00 0. -1.
</event>
<event>
 7    1  0.6999029E-005  0.2103234E+03  0.7818608E-02  0.1326869E+00
          2   -1    0    0  502    0  0.00000000000E+00  0.00000000000E+00  0.18308524477E+03  0.18308524477E+03  0.00000000000E+00 0. -1.
          1   -1    0    0  501    0 -0.00000000000E+00 -0.00000000000E+00 -0.12826652812E+04  0.12826652812E+04  0.00000000000E+00 0. -1.
         25    2    1    2    0    0  0.14496728390E+03 -0.18782226073E+03  0.23136387153E+02  0.26916981981E+03  0.12499753782E+03 0.  0.
          2    1    1    2  501    0 -0.13608395786E+03  0.15810048715E+03 -0.11414416249E+04  0.11603463236E+04  0.00000000000E+00 0. -1.
          1    1    1    2  502    0 -0.88833260453E+01  0.29721773574E+02  0.18725201397E+02  0.36234382475E+02  0.00000000000E+00 0. -1.
         22    1    3    3    0    0  0.43280943817E+02 -0.65193043888E+02 -0.51056589610E+02  0.93435263212E+02  0.00000000000E+00 0.  1.
         22    1    3    3    0    0  0.10168634009E+03 -0.12262921684E+03  0.74192976763E+02  0.17573455660E+03  0.00000000000E+00 0.  1.
</event>
<event>
 7    1  0.6999029E-005  0.1332975E+03  0.7818608E-02  0.1415394E+00
          2   -1    0    0  502    0  0.00000000000E+00  0.00000000000E+00  0.91444765206E+03  0.91444765206E+03  0.00000000000E+00 0. -1.
          1   -1    0    0  501    0 -0.00000000000E+00 -0.00000000000E+00 -0.10520528535E+04  0.10520528535E+04  0.00000000000E+00 0. -1.
         25    2    1    2    0    0 -0.29000268720E+02  0.15304864885E+03 -0.47773360537E+03  0.51780170603E+03  0.12499721823E+03 0.  0.
          2    1    1    2  501    0 -0.13956590425E+01 -0.23491176862E+02 -0.54908187234E+03  0.54958592211E+03  0.00000000000E+00 0. -1.
          1    1    1    2  502    0  0.30395927763E+02 -0.12955747199E+03  0.88921027626E+03  0.89911287744E+03  0.00000000000E+00 0. -1.
         22    1    3    3    0    0 -0.26107050787E+02  0.16011412244E+03 -0.48233583604E+03  0.50888699044E+03  0.00000000000E+00 0.  1.
         22    1    3    3    0    0 -0.28932179327E+01 -0.70654735882E+01  0.46022306684E+01  0.89147155960E+01  0.00000000000E+00 0.  1.
</event>
<event>
 7    1  0.6999029E-005  0.3345807E+02  0.7818608E-02  0.1622507E+00
          2   -1    0    0  502    0  0.00000000000E+00  0.00000000000E+00  0.43315598128E+04  0.43315598128E+04  0.00000000000E+00 0. -1.
          1   -1    0    0  501    0 -0.00000000000E+00 -0.00000000000E+00 -0.13636042622E+03  0.13636042622E+03  0.00000000000E+00 0. -1.
         25    2    1    2    0    0  0.14625787718E+02  0.20717594125E+02  0.20234793662E+04  0.20274955378E+04  0.12500511149E+03 0.  0.
          2    1    1    2  501    0  0.18983984566E+02 -0.13455199250E+02 -0.13321565386E+03  0.13523255706E+03  0.00000000000E+00 0. -1.
          1    1    1    2  502    0 -0.33609772284E+02 -0.72623948748E+01  0.23049356742E+04  0.23051921442E+04  0.00000000000E+00 0. -1.
         22    1    3    3    0    0 -0.35939312368E+02 -0.32796049130E+02  0.53897229503E+03  0.54116388444E+03  0.00000000000E+00 0. -1.
         22    1    3    3    0    0  0.50565100086E+02  0.53513643255E+02  0.14845070712E+04  0.14863316533E+04  0.00000000000E+00 0. -1.
</event>
<event>
 7    1  0.6999029E-005  0.6812475E+02  0.7818608E-02  0.1442406E+00
          2   -1    0    0  502    0  0.00000000000E+00  0.00000000000E+00  0.15630353275E+04  0.15630353275E+04  0.00000000000E+00 0. -1.
          1   -1    0    0  501    0 -0.00000000000E+00 -0.00000000000E+00 -0.23162384998E+03  0.23162384998E+03  0.00000000000E+00 0. -1.
         25    2    1    2    0    0  0.26222328888E+02  0.32256783671E+02  0.13942645258E+04  0.14004739812E+04  0.12500277379E+03 0.  0.
          2    1    1    2  501    0 -0.63171300858E+02 -0.25811820550E+02 -0.22118427596E+03  0.23147213064E+03  0.00000000000E+00 0. -1.
          1    1    1    2  502    0  0.36948971970E+02 -0.64449631201E+01  0.15833122761E+03  0.16271306560E+03  0.00000000000E+00 0. -1.
         22    1    3    3    0    0  0.43171464259E+02 -0.36839854072E+02  0.78992315174E+03  0.79195930187E+03  0.00000000000E+00 0.  1.
         22    1    3    3    0    0 -0.16949135371E+02  0.69096637742E+02  0.60434137411E+03  0.60851467936E+03  0.00000000000E+00 0.  1.
</event>
<event>
 7    1  0.6999029E-005  0.5215625E+03  0.7818608E-02  0.1133730E+00
          2   -1    0    0  502    0  0.00000000000E+00  0.00000000000E+00  0.31036557599E+04  0.31036557599E+04  0.00000000000E+00 0. -1.
          1   -1    0    0  501    0 -0.00000000000E+00 -0.00000000000E+00 -0.68390727260E+03  0.68390727260E+03  0.00000000000E+00 0. -1.
         25    2    1    2    0    0  0.59471376226E+03 -0.11086136193E+03  0.96050740440E+03  0.11420047841E+04  0.12500300999E+03 0.  0.
          2    1    1    2  501    0 -0.50599632173E+03  0.83059079591E+02 -0.48101892764E+03  0.70307204257E+03  0.00000000000E+00 0. -1.
          1    1    1    2  502    0 -0.88717440533E+02  0.27802282342E+02  0.19402600105E+04  0.19424862058E+04  0.00000000000E+00 0. -1.
         22    1    3    3    0    0  0.39466694766E+03 -0.84029361661E+02  0.74143894838E+03  0.84412952050E+03  0.00000000000E+00 0.  1.
         22    1    3    3    0    0  0.20004681460E+03 -0.26832000272E+02  0.21906845602E+03  0.29787526364E+03  0.00000000000E+00 0.  1.
</event>
<event>
 7    1  0.6999029E-005  0.2584745E+03  0.7818608E-02  0.1239941E+00
          2   -1    0    0  502    0  0.00000000000E+00  0.00000000000E+00  0.87546687681E+03  0.87546687681E+03  0.00000000000E+00 0. -1.
          1   -1    0    0  501    0 -0.00000000000E+00 -0.00000000000E+00 -0.77767993336E+03  0.77767993336E+03  0.00000000000E+00 0. -1.
         25    2    1    2    0    0 -0.13272475699E+03  0.25900846185E+03 -0.24445527244E+03  0.40010622702E+03  0.12500147298E+03 0.  0.
          2    1    1    2  501    0  0.13938995846E+03 -0.20187485216E+03 -0.42119995849E+03  0.48743453046E+03  0.00000000000E+00 0. -1.
          1    1    1    2  502    0 -0.66652014730E+01 -0.57133609690E+02  0.76344217439E+03  0.76560605268E+03  0.00000000000E+00 0. -1.
         22    1    3    3    0    0 -0.13892357899E+03  0.24189066475E+03 -0.17729321167E+03  0.33052040391E+03  0.00000000000E+00 0.  1.
         22    1    3    3    0    0  0.61988220000E+01  0.17117797099E+02 -0.67162060771E+02  0.69585823116E+02  0.00000000000E+00 0.  1.
</event>
<event>
 7    1  0.6999029E-005  0.6747501E+03  0.7818608E-02  0.1112454E+00
          2   -1    0    0  502    0  0.00000000000E+00  0.00000000000E+00  0.50246035677E+04  0.50246035677E+04  0.00000000000E+00 0. -1.
          1   -1    0    0  501    0 -0.00000000000E+00 -0.00000000000E+00 -0.30388100683E+04  0.30388100683E+04  0.00000000000E+00 0. -1.
         25    2    1    2    0    0 -0.71300611587E+03  0.11220853639E+03  0.14845940179E+04  0.16554796270E+04  0.12499968183E+03 0.  0.
          2    1    1    2  501    0  0.76063376098E+02  0.54598149734E+02 -0.29212373940E+04  0.29227375023E+04  0.00000000000E+00 0. -1.
          1    1    1    2  502    0  0.63694273978E+03 -0.16680668612E+03  0.34224368754E+04  0.34851965067E+04  0.00000000000E+00 0. -1.
         22    1    3    3    0    0 -0.32539778423E+03  0.11429351044E+03  0.69219084155E+03  0.77335301489E+03  0.00000000000E+00 0. -1.
         22    1    3    3    0    0 -0.38760833164E+03 -0.20849740515E+01  0.79240317639E+03  0.88212661213E+03  0.00000000000E+00 0. -1.
</event>
<event>
 7    1  0.6999029E-005  0.3780105E+03  0.7818608E-02  0.1180771E+00
          2   -1    0    0  502    0  0.00000000000E+00  0.00000000000E+00  0.30281562228E+03  0.30281562228E+03  0.00000000000E+00 0. -1.
          1   -1    0    0  501    0 -0.00000000000E+00 -0.00000000000E+00 -0.10443208022E+04  0.10443208022E+04  0.00000000000E+00 0. -1.
         25    2    1    2    0    0 -0.30996053789E+03 -0.16434505354E+03 -0.49043059674E+03  0.61581764115E+03  0.12499746098E+03 0.  0.
          2    1    1    2  501    0  0.38393192422E+03  0.16540424149E+03 -0.39140774484E+03  0.57267993527E+03  0.00000000000E+00 0. -1.
          1    1    1    2  502    0 -0.73971386331E+02 -0.10591879446E+01  0.14033316163E+03  0.15863884810E+03  0.00000000000E+00 0. -1.
         22    1    3    3    0    0 -0.11696097901E+03 -0.73625999813E+02 -0.29836429547E+03  0.32881896429E+03  0.00000000000E+00 0. -1.
         22    1    3    3    0    0 -0.19299955888E+03 -0.90719053729E+02 -0.19206630127E+03  0.28699867686E+03  0.00000000000E+00 0. -1.
</event>
<event>
 7    1  0.6999029E-005  0.3004263E+02  0.7818608E-02  0.1656520E+00
          2   -1    0    0  502    0  0.00000000000E+00  0.00000000000E+00  0.21373339761E+02  0.21373339761E+02  0.00000000000E+00 0. -1.
          1   -1    0    0  501    0 -0.00000000000E+00 -0.00000000000E+00 -0.24242091055E+04  0.24242091055E+04  0.00000000000E+00 0. -1.
         25    2    1    2    0    0  0.79113986394E+01 -0.49171291047E+02 -0.89364638478E+03  0.90372028169E+03  0.12500432156E+03 0.  0.
          2    1    1    2  501    0 -0.88067952488E+01  0.19428278383E+02 -0.15118375910E+04  0.15119880685E+04  0.00000000000E+00 0. -1.
          1    1    1    2  502    0  0.89539660942E+00  0.29743012664E+02  0.26482101075E+01  0.29874095036E+02  0.00000000000E+00 0. -1.
         22    1    3    3    0    0  0.40015527108E+02 -0.20612012148E+01 -0.71665149291E+03  0.71777075258E+03  0.00000000000E+00 0.  1.
         22    1    3    3    0    0 -0.32104128468E+02 -0.47110089832E+02 -0.17699489187E+03  0.18594952911E+03  0.00000000000E+00 0.  1.
</event>
<event>
 7    1  0.6999029E-005  0.5862129E+02  0.7818608E-02  0.1543065E+00
          2   -1    0    0  502    0  0.00000000000E+00  0.00000000000E+00  0.17139006091E+04  0.17139006091E+04  0.00000000000E+00 0. -1.
          1   -1    0    0  501    0 -0.00000000000E+00 -0.00000000000E+00 -0.42668948500E+03  0.42668948500E+03  0.00000000000E+00 0. -1.
         25    2    1    2    0    0 -0.76528328408E+02  0.20941505301E+01  0.10540108748E+04  0.10641542020E+04  0.12499708418E+03 0.  0.
          2    1    1    2  501    0  0.57900928593E+02  0.89541540125E+01 -0.41940189052E+03  0.42347448587E+03  0.00000000000E+00 0. -1.
          1    1    1    2  502    0  0.18627399814E+02 -0.11048304543E+02  0.65260213987E+03  0.65296140623E+03  0.00000000000E+00 0. -1.
         22    1    3    3    0    0 -0.17980116797E+02  0.58492988720E+02  0.33311457893E+03  0.33868870224E+03  0.00000000000E+00 0. -1.
         22    1    3    3    0    0 -0.58548211610E+02 -0.56398838190E+02  0.72089629586E+03  0.72546549981E+03  0.00000000000E+00 0. -1.
</event>
<event>
 7    1  0.6999029E-005  0.3064479E+03  0.7818608E-02  0.1229045E+00
          2   -1    0    0  502    0  0.00000000000E+00  0.00000000000E+00  0.17435308807E+04  0.17435308807E+04  0.00000000000E+00 0. -1.
          1   -1    0    0  501    0 -0.00000000000E+00 -0.00000000000E+00 -0.14008584759E+04  0.14008584759E+04  0.00000000000E+00 0. -1.
         25    2    1    2    0    0  0.29129090824E+03  0.11276954884E+03  0.14930868397E+04  0.15305230786E+04  0.12500087566E+03 0.  0.
          2    1    1    2  501    0 -0.46705666425E+02  0.27594231303E+02 -0.12955668109E+04  0.12967020562E+04  0.00000000000E+00 0. -1.
          1    1    1    2  502    0 -0.24458524181E+03 -0.14036378014E+03  0.14515237602E+03  0.31716422174E+03  0.00000000000E+00 0. -1.
         22    1    3    3    0    0  0.21212790911E+03  0.12622345694E+03  0.95060510122E+03  0.98213067836E+03  0.00000000000E+00 0. -1.
         22    1    3    3    0    0  0.79162999128E+02 -0.13453908103E+02  0.54248173851E+03  0.54839240029E+03  0.00000000000E+00 0. -1.
</event>
<event>
 7    1  0.6999029E-005  0.1754081E+03  0.7818608E-02  0.1217985E+00
          2   -1    0    0  502    0  0.00000000000E+00  0.00000000000E+00  0.73481448598E+03  0.73481448598E+03  0.00000000000E+00 0. -1.
          1   -1    0    0  501    0 -0.00000000000E+00 -0.00000000000E+00 -0.53563628531E+03  0.53563628531E+03  0.00000000000E+00 0. -1.
         25    2    1    2    0    0 -0.27309993581E+03  0.51797939857E+02  0.43533832610E+03  0.53142305333E+03  0.12499760771E+03 0.  0.
          2    1    1    2  501    0  0.16737252964E+03 -0.40120627891E+02 -0.46002960541E+03  0.49117254231E+03  0.00000000000E+00 0. -1.
          1    1    1    2  502    0  0.10572740616E+03 -0.11677311966E+02  0.22386947999E+03  0.24785517565E+03  0.00000000000E+00 0. -1.
         22    1    3    3    0    0 -0.29770652335E+02  0.19216511148E+02  0.15403000061E+03  0.15805317817E+03  0.00000000000E+00 0. -1.
         22    1    3    3    0    0 -0.24332928347E+03  0.32581428709E+02  0.28130832549E+03  0.37336987516E+03  0.00000000000E+00 0. -1.
</event>
<event>
 7    1  0.7978636E-005  0.1596578E+04  0.7818608E-02  0.1117805E+00
          2   -1    0    0  502    0  0.00000000000E+00  0.00000000000E+00  0.10418294107E+04  0.10418294107E+04  0.00000000000E+00 0. -1.
          1   -1    0    0  501    0 -0.00000000000E+00 -0.00000000000E+00 -0.40420145942E+04  0.40420145942E+04  0.00000000000E+00 0. -1.
         25    2    1    2    0    0 -0.12796199873E+04 -0.93871569424E+03 -0.12568987877E+03  0.15968835111E+04  0.12499814281E+03 0.  0.
          2    1    1    2  501    0 -0.36342136973E+02 -0.68777289780E+01 -0.10343646285E+04  0.10350257189E+04  0.00000000000E+00 0. -1.
          1    1    1    2  502    0  0.13159621243E+04  0.94559342322E+03 -0.18401306762E+04  0.24519347749E+04  0.00000000000E+00 0. -1.
         22    1    3    3    0    0 -0.50018052325E+03 -0.34694000584E+03  0.10510925268E+02  0.60881721644E+03  0.00000000000E+00 0. -1.
         22    1    3    3    0    0 -0.77943946410E+03 -0.59177568840E+03 -0.13620080403E+03  0.98806629464E+03  0.00000000000E+00 0. -1.
</event>
<event>
 7    1  0.6999029E-005  0.8073833E+02  0.7818608E-02  0.1388478E+00
          2   -1    0    0  502    0  0.00000000000E+00  0.00000000000E+00  0.34136197622E+03  0.34136197622E+03  0.00000000000E+00 0. -1.
          1   -1    0    0  501    0 -0.00000000000E+00 -0.00000000000E+00 -0.18311688464E+03  0.18311688464E+03  0.00000000000E+00 0. -1.
         25    2    1    2    0    0 -0.25321805525E+02  0.25107447958E+02  0.16003429770E+03  0.20617246798E+03  0.12499812933E+03 0.  0.
          2    1    1    2  501    0  0.63995575310E+02 -0.53626671489E+02 -0.14496042276E+03  0.16728651386E+03  0.00000000000E+00 0. -1.
          1    1    1    2  502    0 -0.38673769785E+02  0.28519223531E+02  0.14317121665E+03  0.15101987901E+03  0.00000000000E+00 0. -1.
         22    1    3    3    0    0 -0.44338599778E+02  0.37252695454E+02  0.15584945194E+02  0.59971370382E+02  0.00000000000E+00 0.  1.
         22    1    3    3    0    0  0.19016794253E+02 -0.12145247496E+02  0.14444935250E+03  0.14620109760E+03  0.00000000000E+00 0.  1.
</event>
<event>
 7    1  0.6999029E-005  0.2808834E+03  0.7818608E-02  0.1215417E+00
          2   -1    0    0  502    0  0.00000000000E+00  0.00000000000E+00  0.20420759202E+03  0.20420759202E+03  0.00000000000E+00 0. -1.
          1   -1    0    0  501    0 -0.00000000000E+00 -0.00000000000E+00 -0.11472098367E+04  0.11472098367E+04  0.00000000000E+00 0. -1.
         25    2    1    2    0    0  0.22319627864E+03  0.11695079190E+03 -0.10747495082E+03  0.30112124648E+03  0.12501629295E+03 0.  0.
          2    1    1    2  501    0  0.40329762351E+02  0.55062707304E+02 -0.70712498495E+03  0.71041124415E+03  0.00000000000E+00 0. -1.
          1    1    1    2  502    0 -0.26352604099E+03 -0.17201349921E+03 -0.12840230886E+03  0.33988493805E+03  0.00000000000E+00 0. -1.
         22    1    3    3    0    0  0.35125796160E+02 -0.21763167382E+02 -0.40878731580E+02  0.58125103922E+02  0.00000000000E+00 0.  1.
         22    1    3    3    0    0  0.18807048248E+03  0.13871395928E+03 -0.66596219245E+02  0.24299614256E+03  0.00000000000E+00 0.  1.
</event>
<event>
 7    1  0.6999029E-005  0.1043205E+04  0.7818608E-02  0.1153871E+00
          2   -1    0    0  502    0  0.00000000000E+00  0.00000000000E+00  0.12233632288E+04  0.12233632288E+04  0.00000000000E+00 0. -1.
          1   -1    0    0  501    0 -0.00000000000E+00 -0.00000000000E+00 -0.20584925983E+04  0.20584925983E+04  0.00000000000E+00 0. -1.
         25    2    1    2    0    0 -0.45943117550E+03 -0.96105749672E+03 -0.28632716671E+03  0.11100975841E+04  0.12499953126E+03 0.  0.
          2    1    1    2  501    0  0.46022825485E+03  0.92454881108E+03 -0.11636344827E+04  0.15558424598E+04  0.00000000000E+00 0. -1.
          1    1    1    2  502    0 -0.79707934828E+00  0.36508685634E+02  0.61483227989E+03  0.61591578309E+03  0.00000000000E+00 0. -1.
         22    1    3    3    0    0 -0.10459016820E+03 -0.19693073230E+03 -0.11290416444E+03  0.24993632580E+03  0.00000000000E+00 0. -1.
         22    1    3    3    0    0 -0.35484100730E+03 -0.76412676442E+03 -0.17342300227E+03  0.86016125830E+03  0.00000000000E+00 0. -1.
</event>
<event>
 7    1  0.6999029E-005  0.6699258E+03  0.7818608E-02  0.1130411E+00
          2   -1    0    0  502    0  0.00000000000E+00  0.00000000000E+00  0.24618849013E+04  0.24618849013E+04  0.00000000000E+00 0. -1.
          1   -1    0    0  501    0 -0.00000000000E+00 -0.00000000000E+00 -0.94726836698E+03  0.94726836698E+03  0.00000000000E+00 0. -1.
         25    2    1    2    0    0 -0.45840649996E+03  0.38828943462E+03 -0.47777689216E+03  0.77768934316E+03  0.12499900615E+03 0.  0.
          2    1    1    2  501    0 -0.64165037547E+02  0.39561697971E+02 -0.26483897202E+03  0.27535787821E+03  0.00000000000E+00 0. -1.
          1    1    1    2  502    0  0.52257153750E+03 -0.42785113259E+03  0.22572323985E+04  0.23561060469E+04  0.00000000000E+00 0. -1.
         22    1    3    3    0    0 -0.34801030368E+03  0.22102955485E+03 -0.34148014113E+03  0.53532599635E+03  0.00000000000E+00 0. -1.
         22    1    3    3    0    0 -0.11039619628E+03  0.16725987977E+03 -0.13629675104E+03  0.24236334681E+03  0.00000000000E+00 0. -1.
</event>
<event>
 7    1  0.6999029E-005  0.1065195E+03  0.7818608E-02  0.1326662E+00
          2   -1    0    0  502    0  0.00000000000E+00  0.00000000000E+00  0.21900214784E+03  0.21900214784E+03  0.00000000000E+00 0. -1.
          1   -1    0    0  501    0 -0.00000000000E+00 -0.00000000000E+00 -0.40207215526E+03  0.40207215526E+03  0.00000000000E+00 0. -1.
         25    2    1    2    0    0  0.13346407777E+03  0.41673501399E+02 -0.30010606734E+03  0.35388873831E+03  0.12499698666E+03 0.  0.
          2    1    1    2  501    0 -0.73463125573E+02 -0.28815070638E+02 -0.47137489587E+02  0.91918888371E+02  0.00000000000E+00 0. -1.
          1    1    1    2  502    0 -0.60000952199E+02 -0.12858430761E+02  0.16417354951E+03  0.17526667642E+03  0.00000000000E+00 0. -1.
         22    1    3    3    0    0  0.10063708520E+03  0.28605308436E+01 -0.81734528174E+02  0.12967859750E+03  0.00000000000E+00 0. -1.
         22    1    3    3    0    0  0.32826992575E+02  0.38812970555E+02 -0.21837153917E+03  0.22421014081E+03  0.00000000000E+00 0. -1.
</event>
<event>
 7    1  0.6999029E-005  0.1235467E+03  0.7818608E-02  0.1435891E+00
          2   -1    0    0  502    0  0.00000000000E+00  0.00000000000E+00  0.10080304499E+04  0.10080304499E+04  0.00000000000E+00 0. -1.
          1   -1    0    0  501    0 -0.00000000000E+00 -0.00000000000E+00 -0.47425787116E+03  0.47425787116E+03  0.00000000000E+00 0. -1.
         25    2    1    2    0    0  0.14227930551E+03  0.27367232275E+02 -0.20922145421E+03  0.28353267161E+03  0.12499917117E+03 0.  0.
          2    1    1    2  501    0 -0.21079035237E+02 -0.52151380421E+01 -0.22344346064E+03  0.22449611020E+03  0.00000000000E+00 0. -1.
          1    1    1    2  502    0 -0.12120027027E+03 -0.22152094233E+02  0.96643749356E+03  0.97425953922E+03  0.00000000000E+00 0. -1.
         22    1    3    3    0    0  0.12986976801E+03 -0.91385409073E+01 -0.90103332508E+02  0.15832965642E+03  0.00000000000E+00 0.  1.
         22    1    3    3    0    0  0.12409537498E+02  0.36505773183E+02 -0.11911812170E+03  0.12520301519E+03  0.00000000000E+00 0.  1.
</event>
<event>
 7    1  0.6999029E-005  0.8885520E+02  0.7818608E-02  0.1378037E+00
          2   -1    0    0  502    0  0.00000000000E+00  0.00000000000E+00  0.11308646996E+04  0.11308646996E+04  0.00000000000E+00 0. -1.
          1   -1    0    0  501    0 -0.00000000000E+00 -0.00000000000E+00 -0.76439612783E+02  0.76439612783E+02  0.00000000000E+00 0. -1.
         25    2    1    2    0    0  0.65757297242E+02  0.24909966207E+02  0.11702293828E+03  0.18509526340E+03  0.12498543873E+03 0.  0.
          2    1    1    2  501    0 -0.99313360918E+01  0.46474702779E+02 -0.26259137461E+02  0.54296148438E+02  0.00000000000E+00 0. -1.
          1    1    1    2  502    0 -0.55825961151E+02 -0.71384668987E+02  0.96366128598E+03  0.96791290052E+03  0.00000000000E+00 0. -1.
         22    1    3    3    0    0  0.67224174455E+02  0.36646980835E+02  0.97620106408E+01  0.77184115512E+02  0.00000000000E+00 0. -1.
         22    1    3    3    0    0 -0.14668772128E+01 -0.11737014628E+02  0.10726092764E+03  0.10791114789E+03  0.00000000000E+00 0. -1.
</event>
<event>
 7    1  0.6999029E-005  0.4411161E+03  0.7818608E-02  0.1146023E+00
          2   -1    0    0  502    0  0.00000000000E+00  0.00000000000E+00  0.26507644087E+03  0.26507644087E+03  0.00000000000E+00 0. -1.
          1   -1    0    0  501    0 -0.00000000000E+00 -0.00000000000E+00 -0.36537142588E+04  0.36537142588E+04  0.00000000000E+00 0. -1.
         25    2    1    2    0    0  0.43985893286E+03 -0.17944377189E+03 -0.32290176469E+03  0.58784832202E+03  0.12499660785E+03 0.  0.
          2    1    1    2  501    0 -0.30484127102E+02  0.89739196670E+02 -0.28644584303E+04  0.28660259079E+04  0.00000000000E+00 0. -1.
          1    1    1    2  502    0 -0.40937480576E+03  0.89704575220E+02 -0.20127762292E+03  0.46491646980E+03  0.00000000000E+00 0. -1.
         22    1    3    3    0    0  0.38884105338E+03 -0.19502723490E+03 -0.26619063996E+03  0.50999063124E+03  0.00000000000E+00 0.  1.
         22    1    3    3    0    0  0.51017879478E+02  0.15583463007E+02 -0.56711124731E+02  0.77857690783E+02  0.00000000000E+00 0.  1.
</event>
<event>
 7    1  0.6999029E-005  0.1204263E+03  0.7818608E-02  0.1419817E+00
          2   -1    0    0  502    0  0.00000000000E+00  0.00000000000E+00  0.40505608407E+04  0.40505608407E+04  0.00000000000E+00 0. -1.
          1   -1    0    0  501    0 -0.00000000000E+00 -0.00000000000E+00 -0.13320755350E+02  0.13320755350E+02  0.00000000000E+00 0. -1.
         25    2    1    2    0    0 -0.66166995071E+02  0.10805952916E+03  0.34858975335E+04  0.34904385391E+04  0.12499859413E+03 0.  0.
          2    1    1    2  501    0  0.22679399584E+02 -0.10924998990E+02  0.21766117986E+02  0.33278741872E+02  0.00000000000E+00 0. -1.
          1    1    1    2  502    0  0.43487595488E+02 -0.97134530167E+02  0.52957643391E+03  0.54016431506E+03  0.00000000000E+00 0. -1.
         22    1    3    3    0    0 -0.78552806671E+02  0.12314944181E+03  0.24458851573E+04  0.24502429535E+04  0.00000000000E+00 0.  1.
         22    1    3    3    0    0  0.12385811600E+02 -0.15089912655E+02  0.10400123762E+04  0.10401955856E+04  0.00000000000E+00 0.  1.
</event>
<event>
 7    1  0.6999029E-005  0.4253577E+03  0.7818608E-02  0.1291630E+00
          2   -1    0    0  502    0  0.00000000000E+00  0.00000000000E+00  0.14531465648E+04  0.14531465648E+04  0.00000000000E+00 0. -1.
          1   -1    0    0  501    0 -0.00000000000E+00 -0.00000000000E+00 -0.91449378576E+03  0.91449378576E+03  0.00000000000E+00 0. -1.
         25    2    1    2    0    0 -0.42185781411E+03 -0.11339804340E+03  0.65739388970E+03  0.79913378450E+03  0.12499979096E+03 0.  0.
          2    1    1    2  501    0  0.20395167514E+02  0.55151578497E+01 -0.78387016339E+03  0.78415483986E+03  0.00000000000E+00 0. -1.
          1    1    1    2  502    0  0.40146264659E+03  0.10788288555E+03  0.66512905268E+03  0.78435172615E+03  0.00000000000E+00 0. -1.
         22    1    3    3    0    0 -0.29594065915E+03 -0.18860791629E+02  0.44454725813E+03  0.53437708400E+03  0.00000000000E+00 0.  1.
         22    1    3    3    0    0 -0.12591715496E+03 -0.94537251775E+02  0.21284663158E+03  0.26475670050E+03  0.00000000000E+00 0.  1.
</event>
<event>
 7    1  0.6999029E-005  0.3179554E+03  0.7818608E-02  0.1209093E+00
          2   -1    0    0  502    0  0.00000000000E+00  0.00000000000E+00  0.95381270669E+03  0.95381270669E+03  0.00000000000E+00 0. -1.
          1   -1    0    0  501    0 -0.00000000000E+00 -0.00000000000E+00 -0.11381007188E+04  0.11381007188E+04  0.00000000000E+00 0. -1.
         25    2    1    2    0    0  0.21234429331E+03 -0.31517065763E+03  0.56037504457E+03  0.68852558763E+03  0.12499860768E+03 0.  0.
          2    1    1    2  501    0 -0.17911740148E+03  0.25989955455E+03 -0.10473641625E+04  0.10938932812E+04  0.00000000000E+00 0. -1.
          1    1    1    2  502    0 -0.33226891831E+02  0.55271103078E+02  0.30270110574E+03  0.30949455664E+03  0.00000000000E+00 0. -1.
         22    1    3    3    0    0  0.48235584634E+02 -0.15512442815E+03  0.30349979743E+03  0.34424175643E+03  0.00000000000E+00 0.  1.
         22    1    3    3    0    0  0.16410870867E+03 -0.16004622947E+03  0.25687524715E+03  0.34428383120E+03  0.00000000000E+00 0.  1.
</event>
<event>
 7    1  0.6999029E-005  0.3057721E+03  0.7818608E-02  0.1225104E+00
          2   -1    0    0  502    0  0.00000000000E+00  0.00000000000E+00  0.62035715089E+03  0.62035715089E+03  0.00000000000E+00 0. -1.
          1   -1    0    0  501    0 -0.00000000000E+00 -0.00000000000E+00 -0.78630204759E+03  0.78630204759E+03  0.00000000000E+00 0. -1.
         25    2    1    2    0    0  0.29549510718E+03 -0.75905180090E+02  0.19589714490E+03  0.38350939255E+03  0.12499923225E+03 0.  0.
          2    1    1    2  501    0  0.12382059291E+02  0.55266863214E+02 -0.61893094317E+03  0.62151689758E+03  0.00000000000E+00 0. -1.
          1    1    1    2  502    0 -0.30787716647E+03  0.20638316876E+02  0.25708890157E+03  0.40163290835E+03  0.00000000000E+00 0. -1.
         22    1    3    3    0    0  0.28432503221E+03 -0.10033115766E+03  0.16967173585E+03  0.34597046563E+03  0.00000000000E+00 0. -1.
         22    1    3    3    0    0  0.11170074973E+02  0.24425977572E+02  0.26225409044E+02  0.37538926926E+02  0.00000000000E+00 0. -1.
</event>
<event>
 7    1  0.6999029E-005  0.1236613E+03  0.7818608E-02  0.1417921E+00
          2   -1    0    0  502    0  0.00000000000E+00  0.00000000000E+00  0.18822592269E+04  0.18822592269E+04  0.00000000000E+00 0. -1.
          1   -1    0    0  501    0 -0.00000000000E+00 -0.00000000000E+00 -0.27372745706E+03  0.27372745706E+03  0.00000000000E+00 0. -1.
         25    2    1    2    0    0 -0.15909852375E+02  0.14545095480E+03  0.17244352486E+03  0.25840065187E+03  0.12500009588E+03 0.  0.
          2    1    1    2  501    0  0.86186348330E+01 -0.12166778561E+03 -0.21453009817E+03  0.24678025437E+03  0.00000000000E+00 0. -1.
          1    1    1    2  502    0  0.72912175424E+01 -0.23783169184E+02  0.16506183432E+04  0.16508057777E+04  0.00000000000E+00 0. -1.
         22    1    3    3    0    0  0.37624559149E+02  0.87379478182E+02  0.37940158198E+02  0.10242185442E+03  0.00000000000E+00 0. -1.
         22    1    3    3    0    0 -0.53534411524E+02  0.58071476613E+02  0.13450336666E+03  0.15597879746E+03  0.00000000000E+00 0. -1.
</event>
<event>
 7    1  0.6999029E-005  0.3910578E+03  0.7818608E-02  0.1220264E+00
          2   -1    0    0  502    0  0.00000000000E+00  0.00000000000E+00  0.19595511950E+04  0.19595511950E+04  0.00000000000E+00 0. -1.
          1   -1    0    0  501    0 -0.00000000000E+00 -0.00000000000E+00 -0.85751775346E+03  0.85751775346E+03  0.00000000000E+00 0. -1.
         25    2    1    2    0    0  0.29118768485E+03  0.30982255615E+03 -0.25992489026E+03  0.51377633144E+03  0.12499954422E+03 0.  0.
          2    1    1    2  501    0 -0.45980965197E+02 -0.74642889717E+01 -0.44877448165E+03  0.45118566040E+03  0.00000000000E+00 0. -1.
          1    1    1    2  502    0 -0.24520671965E+03 -0.30235826718E+03  0.18107328134E+04  0.18521069566E+04  0.00000000000E+00 0. -1.
         22    1    3    3    0    0  0.23088638373E+03  0.23929439493E+03 -0.13670725696E+03  0.35952636029E+03  0.00000000000E+00 0.  1.
         22    1    3    3    0    0  0.60301301125E+02  0.70528161222E+02 -0.12321763330E+03  0.15424997115E+03  0.00000000000E+00 0.  1.
</event>
<event>
 7    1  0.6999029E-005  0.3452154E+03  0.7818608E-02  0.1240877E+00
          2   -1    0    0  502    0  0.00000000000E+00  0.00000000000E+00  0.18811228146E+04  0.18811228146E+04  0.00000000000E+00 0. -1.
          1   -1    0    0  501    0 -0.00000000000E+00 -0.00000000000E+00 -0.18967428796E+04  0.18967428796E+04  0.00000000000E+00 0. -1.
         25    2    1    2    0    0 -0.36928407086E+03  0.42946666794E+02  0.46082906296E+03  0.60514816270E+03  0.12500292944E+03 0.  0.
          2    1    1    2  501    0  0.37588616227E+02  0.20175501394E+02 -0.18031855892E+04  0.18036901686E+04  0.00000000000E+00 0. -1.
          1    1    1    2  502    0  0.33169545463E+03 -0.63122168189E+02  0.13267364613E+04  0.13690273629E+04  0.00000000000E+00 0. -1.
         22    1    3    3    0    0 -0.33857970417E+03  0.75182893638E+02  0.39470107383E+03  0.52543089104E+03  0.00000000000E+00 0.  1.
         22    1    3    3    0    0 -0.30704366689E+02 -0.32236226844E+02  0.66127989131E+02  0.79717271663E+02  0.00000000000E+00 0.  1.
</event>
<event>
 7    1  0.6999029E-005  0.5274670E+03  0.7818608E-02  0.1233380E+00
          2   -1    0    0  502    0  0.00000000000E+00  0.00000000000E+00  0.69308384010E+03  0.69308384010E+03  0.00000000000E+00 0. -1.
          1   -1    0    0  501    0 -0.00000000000E+00 -0.00000000000E+00 -0.15398231047E+04  0.15398231047E+04  0.00000000000E+00 0. -1.
         25    2    1    2    0    0 -0.10139835141E+03  0.51393498315E+03 -0.94701599035E+03  0.10894380859E+04  0.12500105755E+03 0.  0.
          2    1    1    2  501    0  0.13117327202E+03 -0.51861281580E+03 -0.38384539582E+03  0.65840942269E+03  0.00000000000E+00 0. -1.
          1    1    1    2  502    0 -0.29774920607E+02  0.46778326517E+01  0.48412212161E+03  0.48505943620E+03  0.00000000000E+00 0. -1.
         22    1    3    3    0    0 -0.13793602291E+02  0.36812762664E+03 -0.65556674470E+03  0.75198136261E+03  0.00000000000E+00 0.  1.
         22    1    3    3    0    0 -0.87604749121E+02  0.14580735651E+03 -0.29144924566E+03  0.33745672326E+03  0.00000000000E+00 0.  1.
</event>
<event>
 7    1  0.6999029E-005  0.1325875E+03  0.7818608E-02  0.1228550E+00
          2   -1    0    0  502    0  0.00000000000E+00  0.00000000000E+00  0.16289923348E+04  0.16289923348E+04  0.00000000000E+00 0. -1.
          1   -1    0    0  501    0 -0.00000000000E+00 -0.00000000000E+00 -0.41540832143E+03  0.41540832143E+03  0.00000000000E+00 0. -1.
         25    2    1    2    0    0  0.23058304664E+03 -0.10160041464E+03  0.22204603783E+03  0.35835913741E+03  0.12500257117E+03 0.  0.
          2    1    1    2  501    0 -0.10996647054E+03  0.65072763595E+02 -0.33240273916E+03  0.35611609091E+03  0.00000000000E+00 0. -1.
          1    1    1    2  502    0 -0.12061657610E+03  0.36527651047E+02  0.13239407147E+04  0.13299254279E+04  0.00000000000E+00 0. -1.
         22    1    3    3    0    0  0.26664384263E+02 -0.45936612543E+02  0.10268208524E+03  0.11560610879E+03  0.00000000000E+00 0.  1.
         22    1    3    3    0    0  0.20391866237E+03 -0.55663802098E+02  0.11936395259E+03  0.24275302862E+03  0.00000000000E+00 0.  1.
</event>
<event>
 7    1  0.6999029E-005  0.3990587E+03  0.7818608E-02  0.1193113E+00
          2   -1    0    0  502    0  0.00000000000E+00  0.00000000000E+00  0.27334417388E+04  0.27334417388E+04  0.00000000000E+00 0. -1.
          1   -1    0    0  501    0 -0.00000000000E+00 -0.00000000000E+00 -0.40804950595E+03  0.40804950595E+03  0.00000000000E+00 0. -1.
         25    2    1    2    0    0 -0.48342631153E+02  0.38253347953E+03 -0.13363599073E+03  0.42679365589E+03  0.12500149496E+03 0.  0.
          2    1    1    2  501    0  0.15481606372E+02 -0.43404517028E+03  0.24270936050E+03  0.49753665559E+03  0.00000000000E+00 0. -1.
          1    1    1    2  502    0  0.32861024781E+02  0.51511690751E+02  0.22163188631E+04  0.22171609333E+04  0.00000000000E+00 0. -1.
         22    1    3    3    0    0  0.13036549839E+02  0.30921088804E+03 -0.96021075846E+02  0.32403915183E+03  0.00000000000E+00 0. -1.
         22    1    3    3    0    0 -0.61379180993E+02  0.73322591488E+02 -0.37614914888E+02  0.10275450406E+03  0.00000000000E+00 0. -1.
</event>
<event>
 7    1  0.6999029E-005  0.2226530E+03  0.7818608E-02  0.1150031E+00
          2   -1    0    0  502    0  0.00000000000E+00  0.00000000000E+00  0.27118221831E+04  0.27118221831E+04  0.00000000000E+00 0. -1.
          1   -1    0    0  501    0 -0.00000000000E+00 -0.00000000000E+00 -0.83623544755E+03  0.83623544755E+03  0.00000000000E+00 0. -1.
         25    2    1    2    0    0 -0.13405214829E+03  0.36937293883E+03 -0.60727451345E+03  0.73403932918E+03  0.12500022275E+03 0.  0.
          2    1    1    2  501    0  0.23401335492E+02 -0.17749543122E+03 -0.11104436299E+03  0.21067297206E+03  0.00000000000E+00 0. -1.
          1    1    1    2  502    0  0.11065081280E+03 -0.19187750762E+03  0.25939056120E+04  0.26033453294E+04  0.00000000000E+00 0. -1.
         22    1    3    3    0    0 -0.27244092699E+02  0.25272119659E+03 -0.37424625264E+03  0.45240524025E+03  0.00000000000E+00 0.  1.
         22    1    3    3    0    0 -0.10680805559E+03  0.11665174225E+03 -0.23302826081E+03  0.28163408892E+03  0.00000000000E+00 0.  1.
</event>
<event>
 7    1  0.6999029E-005  0.3680691E+03  0.7818608E-02  0.1180670E+00
          2   -1    0    0  502    0  0.00000000000E+00  0.00000000000E+00  0.55584290450E+03  0.55584290450E+03  0.00000000000E+00 0. -1.
          1   -1    0    0  501    0 -0.00000000000E+00 -0.00000000000E+00 -0.70646977941E+03  0.70646977941E+03  0.00000000000E+00 0. -1.
         25    2    1    2    0    0 -0.26641228245E+03  0.23806628327E+03 -0.17471466295E+03  0.41689322377E+03  0.12499474829E+03 0.  0.
          2    1    1    2  501    0 -0.56077645783E+02 -0.51390196380E+02 -0.32562701065E+03  0.33439288974E+03  0.00000000000E+00 0. -1.
          1    1    1    2  502    0  0.32248992824E+03 -0.18667608689E+03  0.34971479870E+03  0.51102657040E+03  0.00000000000E+00 0. -1.
         22    1    3    3    0    0 -0.23523030113E+03  0.24634436307E+03 -0.13667165594E+03  0.36701223593E+03  0.00000000000E+00 0. -1.
         22    1    3    3    0    0 -0.31181981324E+02 -0.82780798057E+01 -0.38043007013E+02  0.49880987833E+02  0.00000000000E+00 0. -1.
</event>
<event>
 7    1  0.6999029E-005  0.5223857E+02  0.7818608E-02  0.1512898E+00
          2   -1    0    0  502    0  0.00000000000E+00  0.00000000000E+00  0.55053829444E+02  0.55053829444E+02  0.00000000000E+00 0. -1.
          1   -1    0    0  501    0 -0.00000000000E+00 -0.00000000000E+00 -0.14434995687E+04  0.14434995687E+04  0.00000000000E+00 0. -1.
         25    2    1    2    0    0  0.47258937713E+02 -0.61459493802E+02 -0.69368572342E+03  0.70910892270E+03  0.12499961923E+03 0.  0.
          2    1    1    2  501    0 -0.70843658855E+01  0.28813585128E+02 -0.72755792113E+03  0.72816271501E+03  0.00000000000E+00 0. -1.
          1    1    1    2  502    0 -0.40174571828E+02  0.32645908674E+02  0.32797905270E+02  0.61281760458E+02  0.00000000000E+00 0. -1.
         22    1    3    3    0    0 -0.19139566818E+02  0.28686364635E+02 -0.13675923172E+03  0.14104012902E+03  0.00000000000E+00 0.  1.
         22    1    3    3    0    0  0.66398504532E+02 -0.90145858437E+02 -0.55692649170E+03  0.56806879368E+03  0.00000000000E+00 0.  1.
</event>
<event>
 7    1  0.6999029E-005  0.8235371E+02  0.7818608E-02  0.1416298E+00
          2   -1    0    0  502    0  0.00000000000E+00  0.00000000000E+00  0.72680076056E+03  0.72680076056E+03  0.00000000000E+00 0. -1.
          1   -1    0    0  501    0 -0.00000000000E+00 -0.00000000000E+00 -0.66188096098E+03  0.66188096098E+03  0.00000000000E+00 0. -1.
         25    2    1    2    0    0 -0.69181767236E+02  0.81291729985E+02  0.36914068891E+03  0.40408865093E+03  0.12501330855E+03 0.  0.
          2    1    1    2  501    0  0.60484187303E+01 -0.37337373915E+02 -0.63949206914E+03  0.64060968566E+03  0.00000000000E+00 0. -1.
          1    1    1    2  502    0  0.63133348505E+02 -0.43954356070E+02  0.33527117982E+03  0.34398338496E+03  0.00000000000E+00 0. -1.
         22    1    3    3    0    0 -0.87410276038E+02  0.65159568336E+02  0.36295128646E+03  0.37897224443E+03  0.00000000000E+00 0.  1.
         22    1    3    3    0    0  0.18228508802E+02  0.16132161649E+02  0.61894024478E+01  0.25116406496E+02  0.00000000000E+00 0.  1.
</event>
<event>
 7    1  0.6999029E-005  0.1211931E+03  0.7818608E-02  0.1252897E+00
          2   -1    0    0  502    0  0.00000000000E+00  0.00000000000E+00  0.54355198777E+03  0.54355198777E+03  0.00000000000E+00 0. -1.
          1   -1    0    0  501    0 -0.00000000000E+00 -0.00000000000E+00 -0.25320064419E+04  0.25320064419E+04  0.00000000000E+00 0. -1.
         25    2    1    2    0    0 -0.13480948511E+03  0.13467498571E+03 -0.36298054963E+02  0.23076776857E+03  0.12500106066E+03 0.  0.
          2    1    1    2  501    0  0.28548889792E+02 -0.11710425203E+03 -0.23904352306E+04  0.23934721717E+04  0.00000000000E+00 0. -1.
          1    1    1    2  502    0  0.10626059532E+03 -0.17570733677E+02  0.43827883143E+03  0.45131848941E+03  0.00000000000E+00 0. -1.
         22    1    3    3    0    0 -0.32656948510E+02 -0.17194753483E+02 -0.30114964137E+02  0.47634513730E+02  0.00000000000E+00 0.  1.
         22    1    3    3    0    0 -0.10215253660E+03  0.15186973919E+03 -0.61830908253E+01  0.18313325484E+03  0.00000000000E+00 0.  1.
</event>
<event>
 7    1  0.6999029E-005  0.2921750E+02  0.7818608E-02  0.1627924E+00
          2   -1    0    0  502    0  0.00000000000E+00  0.00000000000E+00  0.18411331721E+04  0.18411331721E+04  0.00000000000E+00 0. -1.
          1   -1    0    0  501    0 -0.00000000000E+00 -0.00000000000E+00 -0.22437483584E+02  0.22437483584E+02  0.00000000000E+00 0. -1.
         25    2    1    2    0    0  0.13214728371E+02 -0.24107055605E+02  0.28502566075E+03  0.31244326815E+03  0.12500155739E+03 0.  0.
          2    1    1    2  501    0  0.12360295410E+02  0.27642203388E+02  0.17976449087E+02  0.35213932364E+02  0.00000000000E+00 0. -1.
          1    1    1    2  502    0 -0.25575023781E+02 -0.35351477832E+01  0.15156935786E+04  0.15159134551E+04  0.00000000000E+00 0. -1.
         22    1    3    3    0    0 -0.13772289737E+02  0.48366826443E+02  0.12399321749E+03  0.13380337756E+03  0.00000000000E+00 0. -1.
         22    1    3    3    0    0  0.26987018108E+02 -0.72473882048E+02  0.16103244326E+03  0.17863989058E+03  0.00000000000E+00 0. -1.
</event>
<event>
 7    1  0.6999029E-005  0.2110444E+03  0.7818608E-02  0.1287546E+00
          2   -1    0    0  502    0  0.00000000000E+00  0.00000000000E+00  0.57679050215E+03  0.57679050215E+03  0.00000000000E+00 0. -1.
          1   -1    0    0  501    0 -0.00000000000E+00 -0.00000000000E+00 -0.22072470139E+03  0.22072470139E+03  0.00000000000E+00 0. -1.
         25    2    1    2    0    0  0.79447874224E+02 -0.22944803641E+03  0.12090285241E+03  0.29866826848E+03  0.12500747475E+03 0.  0.
          2    1    1    2  501    0 -0.57421859957E+02  0.19107649845E+03 -0.53697475572E+02  0.20661780451E+03  0.00000000000E+00 0. -1.
          1    1    1    2  502    0 -0.22026014267E+02  0.38371537963E+02  0.28886042392E+03  0.29222913055E+03  0.00000000000E+00 0. -1.
         22    1    3    3    0    0  0.35071737997E+02  0.26149336039E+01  0.50659275816E+01  0.35532074329E+02  0.00000000000E+00 0.  1.
         22    1    3    3    0    0  0.44376136227E+02 -0.23206297001E+03  0.11583692483E+03  0.26313619415E+03  0.00000000000E+00 0.  1.
</event>
<event>
 7    1  0.6999029E-005  0.1555215E+03  0.7818608E-02  0.1256548E+00
          2   -1    0    0  502    0  0.00000000000E+00  0.00000000000E+00  0.95127519202E+03  0.95127519202E+03  0.00000000000E+00 0. -1.
          1   -1    0    0  501    0 -0.00000000000E+00 -0.00000000000E+00 -0.82584374762E+03  0.82584374762E+03  0.00000000000E+00 0. -1.
         25    2    1    2    0    0  0.14457786061E+03 -0.81634906969E+02  0.28956713237E+03  0.35642851492E+03  0.12500058513E+03 0.  0.
          2    1    1    2  501    0  0.12519488230E+02  0.79973032037E+02 -0.78046552156E+03  0.78465205905E+03  0.00000000000E+00 0. -1.
          1    1    1    2  502    0 -0.15709734884E+03  0.16618749317E+01  0.61632983358E+03  0.63603836567E+03  0.00000000000E+00 0. -1.
         22    1    3    3    0    0  0.12006909922E+03 -0.26670166671E+02  0.10310370449E+03  0.16049380131E+03  0.00000000000E+00 0. -1.
         22    1    3    3    0    0  0.24508761392E+02 -0.54964740297E+02  0.18646342788E+03  0.19593471361E+03  0.00000000000E+00 0. -1.
</event>
<event>
 7    1  0.6999029E-005  0.4103549E+02  0.7818608E-02  0.1562673E+00
          2   -1    0    0  502    0  0.00000000000E+00  0.00000000000E+00  0.40667806060E+03  0.40667806060E+03  0.00000000000E+00 0. -1.
          1   -1    0    0  501    0 -0.00000000000E+00 -0.00000000000E+00 -0.82652610626E+03  0.82652610626E+03  0.00000000000E+00 0. -1.
         25    2    1    2    0    0  0.39994867282E+02  0.60079791848E+01 -0.68851021875E+03  0.70093257127E+03  0.12499785162E+03 0.  0.
          2    1    1    2  501    0 -0.39287815651E+02  0.21273570711E+02 -0.12753569065E+03  0.13513493131E+03  0.00000000000E+00 0. -1.
          1    1    1    2  502    0 -0.70705163068E+00 -0.27281549896E+02  0.39619786374E+03  0.39713666428E+03  0.00000000000E+00 0. -1.
         22    1    3    3    0    0  0.54723255171E+01  0.10114271379E+02  0.45363063398E-01  0.11499864777E+02  0.00000000000E+00 0.  1.
         22    1    3    3    0    0  0.34522541765E+02 -0.41062921938E+01 -0.68855558182E+03  0.68943270649E+03  0.00000000000E+00 0.  1.
</event>
<event>
 7    1  0.6999029E-005  0.4242138E+03  0.7818608E-02  0.1107280E+00
          2   -1    0    0  502    0  0.00000000000E+00  0.00000000000E+00  0.34275425895E+03  0.34275425895E+03  0.00000000000E+00 0. -1.
          1   -1    0    0  501    0 -0.00000000000E+00 -0.00000000000E+00 -0.94741578547E+03  0.94741578547E+03  0.00000000000E+00 0. -1.
         25    2    1    2    0    0 -0.11413089506E+03 -0.38032816394E+03 -0.30986265006E+03  0.51895651372E+03  0.12500251094E+03 0.  0.
          2    1    1    2  501    0  0.27317866835E+03  0.37735328154E+03 -0.37032826443E+03  0.59511772563E+03  0.00000000000E+00 0. -1.
          1    1    1    2  502    0 -0.15904777329E+03  0.29748824034E+01  0.75529387970E+02  0.17609580506E+03  0.00000000000E+00 0. -1.
         22    1    3    3    0    0  0.40620922442E+01 -0.19306444767E+03 -0.16809807577E+03  0.25602215651E+03  0.00000000000E+00 0.  1.
         22    1    3    3    0    0 -0.11819298730E+03 -0.18726371627E+03 -0.14176457428E+03  0.26293435721E+03  0.00000000000E+00 0.  1.
</event>
<event>
 7    1  0.6999029E-005  0.2711285E+03  0.7818608E-02  0.1177043E+00
          2   -1    0    0  502    0  0.00000000000E+00  0.00000000000E+00  0.67588811413E+03  0.67588811413E+03  0.00000000000E+00 0. -1.
          1   -1    0    0  501    0 -0.00000000000E+00 -0.00000000000E+00 -0.89970713788E+03  0.89970713788E+03  0.00000000000E+00 0. -1.
         25    2    1    2    0    0 -0.28001866822E+03 -0.20881140345E+03 -0.19476365098E+02  0.37150792183E+03  0.12500460162E+03 0.  0.
          2    1    1    2  501    0  0.23666359066E+03  0.11037097605E+03 -0.67371196305E+03  0.72255049419E+03  0.00000000000E+00 0. -1.
          1    1    1    2  502    0  0.43355077559E+02  0.98440427401E+02  0.46936930440E+03  0.48153683598E+03  0.00000000000E+00 0. -1.
         22    1    3    3    0    0 -0.17091129335E+03 -0.49679173069E+02 -0.12891286117E+02  0.17845132582E+03  0.00000000000E+00 0.  1.
         22    1    3    3    0    0 -0.10910737487E+03 -0.15913223038E+03 -0.65850789815E+01  0.19305659601E+03  0.00000000000E+00 0.  1.
</event>
<event>
 7    1  0.6999029E-005  0.3878059E+03  0.7818608E-02  0.1165506E+00
          2   -1    0    0  502    0  0.00000000000E+00  0.00000000000E+00  0.90349322076E+03  0.90349322076E+03  0.00000000000E+00 0. -1.
          1   -1    0    0  501    0 -0.00000000000E+00 -0.00000000000E+00 -0.33542925069E+03  0.33542925069E+03  0.00000000000E+00 0. -1.
         25    2    1    2    0    0 -0.43338738302E+03  0.10040417418E+03  0.16981805050E+03  0.49231055842E+03  0.12500357477E+03 0.  0.
          2    1    1    2  501    0  0.70092931682E+02 -0.49456222171E+02 -0.97517161696E+02  0.12987891980E+03  0.00000000000E+00 0. -1.
          1    1    1    2  502    0  0.36329445134E+03 -0.50947952009E+02  0.49576308127E+03  0.61673299323E+03  0.00000000000E+00 0. -1.
         22    1    3    3    0    0 -0.18988868761E+03  0.12283204188E+02  0.12966083404E+03  0.23026185674E+03  0.00000000000E+00 0. -1.
         22    1    3    3    0    0 -0.24349869541E+03  0.88120969992E+02  0.40157216465E+02  0.26204870168E+03  0.00000000000E+00 0. -1.
</event>
<event>
 7    1  0.6999029E-005  0.3010462E+03  0.7818608E-02  0.1165359E+00
          2   -1    0    0  502    0  0.00000000000E+00  0.00000000000E+00  0.28162254440E+03  0.28162254440E+03  0.00000000000E+00 0. -1.
          1   -1    0    0  501    0 -0.00000000000E+00 -0.00000000000E+00 -0.81396751878E+03  0.81396751878E+03  0.00000000000E+00 0. -1.
         25    2    1    2    0    0  0.26322725735E+03 -0.28761983645E+03 -0.83937059831E+01  0.40952351975E+03  0.12500119838E+03 0.  0.
          2    1    1    2  501    0 -0.16968545174E+03  0.22843213737E+03 -0.49610746427E+03  0.57192395475E+03  0.00000000000E+00 0. -1.
          1    1    1    2  502    0 -0.93541805615E+02  0.59187699082E+02 -0.27843804133E+02  0.11414258867E+03  0.00000000000E+00 0. -1.
         22    1    3    3    0    0  0.13636734771E+03 -0.20638422233E+03  0.41522637661E+02  0.25082788957E+03  0.00000000000E+00 0.  1.
         22    1    3    3    0    0  0.12685990965E+03 -0.81235614124E+02 -0.49916343644E+02  0.15869563019E+03  0.00000000000E+00 0.  1.
</event>
<event>
 7    1  0.6999029E-005  0.8713811E+03  0.7818608E-02  0.1117674E+00
          2   -1    0    0  502    0  0.00000000000E+00  0.00000000000E+00  0.17183532691E+04  0.17183532691E+04  0.00000000000E+00 0. -1.
          1   -1    0    0  501    0 -0.00000000000E+00 -0.00000000000E+00 -0.14134857547E+04  0.14134857547E+04  0.00000000000E+00 0. -1.
         25    2    1    2    0    0 -0.77264838424E+03  0.39830412549E+03 -0.60647550067E+03  0.10672717555E+04  0.12499906030E+03 0.  0.
          2    1    1    2  501    0  0.30981415022E+02  0.60398488875E+02 -0.44605113322E+03  0.45118670080E+03  0.00000000000E+00 0. -1.
          1    1    1    2  502    0  0.74166696921E+03 -0.45870261436E+03  0.13573941484E+04  0.16133805675E+04  0.00000000000E+00 0. -1.
         22    1    3    3    0    0 -0.26665493072E+03  0.72816695123E+02 -0.20021612644E+03  0.34131161781E+03  0.00000000000E+00 0. -1.
         22    1    3    3    0    0 -0.50599345352E+03  0.32548743037E+03 -0.40625937422E+03  0.72596013766E+03  0.00000000000E+00 0. -1.
</event>
<event>
 7    1  0.6999029E-005  0.3420946E+03  0.7818608E-02  0.1196470E+00
          2   -1    0    0  502    0  0.00000000000E+00  0.00000000000E+00  0.27823291695E+03  0.27823291695E+03  0.00000000000E+00 0. -1.
          1   -1    0    0  501    0 -0.00000000000E+00 -0.00000000000E+00 -0.15023900680E+04  0.15023900680E+04  0.00000000000E+00 0. -1.
         25    2    1    2    0    0  0.35975669212E+03 -0.61760774010E+02 -0.31015775832E+03  0.49503745180E+03  0.12499989163E+03 0.  0.
          2    1    1    2  501    0 -0.44747212867E+02 -0.52130506703E+02 -0.94655162850E+03  0.94904156295E+03  0.00000000000E+00 0. -1.
          1    1    1    2  502    0 -0.31500947926E+03  0.11389128071E+03  0.32552235742E+02  0.33654397023E+03  0.00000000000E+00 0. -1.
         22    1    3    3    0    0  0.35613578172E+03 -0.36359723771E+02 -0.27453592439E+03  0.45113711698E+03  0.00000000000E+00 0. -1.
         22    1    3    3    0    0  0.36209104043E+01 -0.25401050239E+02 -0.35621833923E+02  0.43900334822E+02  0.00000000000E+00 0. -1.
</event>
<event>
 7    1  0.6999029E-005  0.2066572E+03  0.7818608E-02  0.1162519E+00
          2   -1    0    0  502    0  0.00000000000E+00  0.00000000000E+00  0.22089231755E+04  0.22089231755E+04  0.00000000000E+00 0. -1.
          1   -1    0    0  501    0 -0.00000000000E+00 -0.00000000000E+00 -0.22235220272E+03  0.22235220272E+03  0.00000000000E+00 0. -1.
         25    2    1    2    0    0 -0.20202237504E+03  0.27532062931E+03  0.19603630097E+03  0.41311764745E+03  0.12498588079E+03 0.  0.
          2    1    1    2  501    0  0.93860365982E+02 -0.14856127344E+03 -0.39861701345E+02  0.18019205172E+03  0.00000000000E+00 0. -1.
          1    1    1    2  502    0  0.10816200906E+03 -0.12675935587E+03  0.18303963731E+04  0.18379656790E+04  0.00000000000E+00 0. -1.
         22    1    3    3    0    0 -0.71425845036E+02  0.40817419587E+02  0.96581165904E+02  0.12686857250E+03  0.00000000000E+00 0. -1.
         22    1    3    3    0    0 -0.13059653000E+03  0.23450320972E+03  0.99455135064E+02  0.28624907495E+03  0.00000000000E+00 0. -1.
</event>
<event>
 7    1  0.6999029E-005  0.5045809E+03  0.7818608E-02  0.1174449E+00
          2   -1    0    0  502    0  0.00000000000E+00  0.00000000000E+00  0.11122370771E+04  0.11122370771E+04  0.00000000000E+00 0. -1.
          1   -1    0    0  501    0 -0.00000000000E+00 -0.00000000000E+00 -0.12224608167E+04  0.12224608167E+04  0.00000000000E+00 0. -1.
         25    2    1    2    0    0 -0.35670305116E+03  0.39505639116E+03 -0.63915832405E+03  0.84110344512E+03  0.12500009309E+03 0.  0.
          2    1    1    2  501    0  0.31606006431E+03 -0.35157199622E+03 -0.36526013063E+03  0.59742095360E+03  0.00000000000E+00 0. -1.
          1    1    1    2  502    0  0.40642986849E+02 -0.43484394944E+02  0.89419471502E+03  0.89617349512E+03  0.00000000000E+00 0. -1.
         22    1    3    3    0    0 -0.20095126712E+03  0.19861010338E+03 -0.24497403027E+03  0.37395141453E+03  0.00000000000E+00 0. -1.
         22    1    3    3    0    0 -0.15575178404E+03  0.19644628779E+03 -0.39418429379E+03  0.46715203059E+03  0.00000000000E+00 0. -1.
</event>
<event>
 7    1  0.6999029E-005  0.6247093E+03  0.7818608E-02  0.1210133E+00
          2   -1    0    0  502    0  0.00000000000E+00  0.00000000000E+00  0.17968003992E+04  0.17968003992E+04  0.00000000000E+00 0. -1.
          1   -1    0    0  501    0 -0.00000000000E+00 -0.00000000000E+00 -0.57059347274E+03  0.57059347274E+03  0.00000000000E+00 0. -1.
         25    2    1    2    0    0  0.61828340166E+03  0.10015767325E+03 -0.23504358540E+03  0.68057072869E+03  0.12500042174E+03 0.  0.
          2    1    1    2  501    0 -0.61536555181E+03 -0.67828755951E+02  0.73989804585E+03  0.96474070130E+03  0.00000000000E+00 0. -1.
          1    1    1    2  502    0 -0.29178498525E+01 -0.32328917297E+02  0.72135246600E+03  0.72208244193E+03  0.00000000000E+00 0. -1.
         22    1    3    3    0    0  0.24907700309E+02  0.26005224001E+02  0.46931508285E+01  0.36313783536E+02  0.00000000000E+00 0.  1.
         22    1    3    3    0    0  0.59337570135E+03  0.74152449248E+02 -0.23973673623E+03  0.64425694516E+03  0.00000000000E+00 0.  1.
</event>
<event>
 7    1  0.6999029E-005  0.3883664E+03  0.7818608E-02  0.1172101E+00
          2   -1    0    0  502    0  0.00000000000E+00  0.00000000000E+00  0.16977813910E+04  0.16977813910E+04  0.00000000000E+00 0. -1.
          1   -1    0    0  501    0 -0.00000000000E+00 -0.00000000000E+00 -0.30939174805E+03  0.30939174805E+03  0.00000000000E+00 0. -1.
         25    2    1    2    0    0 -0.56845183425E+02  0.34615469908E+03  0.18392689080E+03  0.41534131708E+03  0.12499943178E+03 0.  0.
          2    1    1    2  501    0  0.21488754423E+02 -0.41727581043E+03  0.34581316496E+02  0.41925736247E+03  0.00000000000E+00 0. -1.
          1    1    1    2  502    0  0.35356429002E+02  0.71121111352E+02  0.11698814356E+04  0.11725744595E+04  0.00000000000E+00 0. -1.
         22    1    3    3    0    0 -0.52251449703E+02  0.12651560903E+03  0.13078624589E+03  0.18931839699E+03  0.00000000000E+00 0. -1.
         22    1    3    3    0    0 -0.45937337217E+01  0.21963909005E+03  0.53140644907E+02  0.22602292009E+03  0.00000000000E+00 0. -1.
</event>
<event>
 7    1  0.6999029E-005  0.6803648E+03  0.7818608E-02  0.1179800E+00
          2   -1    0    0  502    0  0.00000000000E+00  0.00000000000E+00  0.24111043963E+04  0.24111043963E+04  0.00000000000E+00 0. -1.
          1   -1    0    0  501    0 -0.00000000000E+00 -0.00000000000E+00 -0.68014891589E+03  0.68014891589E+03  0.00000000000E+00 0. -1.
         25    2    1    2    0    0 -0.18516324511E+03 -0.67412350346E+03  0.12267231550E+04  0.14174632592E+04  0.12499786790E+03 0.  0.
          2    1    1    2  501    0  0.25252487744E+02  0.32999927090E+02 -0.48357472486E+03  0.48535677378E+03  0.00000000000E+00 0. -1.
          1    1    1    2  502    0  0.15991075736E+03  0.64112357637E+03  0.98780705028E+03  0.11884332792E+04  0.00000000000E+00 0. -1.
         22    1    3    3    0    0 -0.12922510868E+03 -0.34347183926E+03  0.53538745088E+03  0.64908532230E+03  0.00000000000E+00 0. -1.
         22    1    3    3    0    0 -0.55938136427E+02 -0.33065166420E+03  0.69133570412E+03  0.76837793692E+03  0.00000000000E+00 0. -1.
</event>
<event>
 7    1  0.6999029E-005  0.4353142E+03  0.7818608E-02  0.1261005E+00
          2   -1    0    0  502    0  0.00000000000E+00  0.00000000000E+00  0.14137463937E+04  0.14137463937E+04  0.00000000000E+00 0. -1.
          1   -1    0    0  501    0 -0.00000000000E+00 -0.00000000000E+00 -0.75824962078E+03  0.75824962078E+03  0.00000000000E+00 0. -1.
         25    2    1    2    0    0  0.10737284836E+03 -0.40234482084E+03  0.78683887992E+02  0.44184455388E+03  0.12500068854E+03 0.  0.
          2    1    1    2  501    0  0.20771258576E+02 -0.18292088955E+02 -0.53439104993E+03  0.53510731629E+03  0.00000000000E+00 0. -1.
          1    1    1    2  502    0 -0.12814410694E+03  0.42063690980E+03  0.11112039348E+04  0.11950441443E+04  0.00000000000E+00 0. -1.
         22    1    3    3    0    0  0.28586236696E+02 -0.31332792932E+03  0.72113980573E+02  0.32278784118E+03  0.00000000000E+00 0. -1.
         22    1    3    3    0    0  0.78786611666E+02 -0.89016891524E+02  0.65699074193E+01  0.11905671270E+03  0.00000000000E+00 0. -1.
</event>
<event>
 7    1  0.6999029E-005  0.1097649E+03  0.7818608E-02  0.1267524E+00
          2   -1    0    0  502    0  0.00000000000E+00  0.00000000000E+00  0.23461963340E+03  0.23461963340E+03  0.00000000000E+00 0. -1.
          1   -1    0    0  501    0 -0.00000000000E+00 -0.00000000000E+00 -0.23753345661E+04  0.23753345661E+04  0.00000000000E+00 0. -1.
         25    2    1    2    0    0 -0.99997711727E+02 -0.16213243914E+03 -0.62606684579E+02  0.23628699130E+03  0.12500190052E+03 0.  0.
          2    1    1    2  501    0  0.91064520499E+02  0.59521151611E+02 -0.22064361252E+04  0.22091165404E+04  0.00000000000E+00 0. -1.
          1    1    1    2  502    0  0.89331912277E+01  0.10261128753E+03  0.12832787710E+03  0.16455066781E+03  0.00000000000E+00 0. -1.
         22    1    3    3    0    0  0.28796483248E+02 -0.17994999790E+02 -0.15534812469E+02  0.37341503228E+02  0.00000000000E+00 0.  1.
         22    1    3    3    0    0 -0.12879419497E+03 -0.14413743935E+03 -0.47071872110E+02  0.19894548807E+03  0.00000000000E+00 0.  1.
</event>
<event>
 7    1  0.6999029E-005  0.1091963E+03  0.7818608E-02  0.1297431E+00
          2   -1    0    0  502    0  0.00000000000E+00  0.00000000000E+00  0.16752657296E+04  0.16752657296E+04  0.00000000000E+00 0. -1.
          1   -1    0    0  501    0 -0.00000000000E+00 -0.00000000000E+00 -0.10349960995E+03  0.10349960995E+03  0.00000000000E+00 0. -1.
         25    2    1    2    0    0  0.14800498929E+03  0.80987095581E+02  0.85227854871E+03  0.87776269694E+03  0.12499696416E+03 0.  0.
          2    1    1    2  501    0 -0.55337854519E+02 -0.54938790472E+02 -0.70529717878E+02  0.10514271228E+03  0.00000000000E+00 0. -1.
          1    1    1    2  502    0 -0.92667134767E+02 -0.26048305109E+02  0.79001728887E+03  0.79585993037E+03  0.00000000000E+00 0. -1.
         22    1    3    3    0    0  0.33856691760E+02 -0.33455500959E+02  0.22635220120E+03  0.23130254022E+03  0.00000000000E+00 0. -1.
         22    1    3    3    0    0  0.11414829753E+03  0.11444259654E+03  0.62592634751E+03  0.64646015673E+03  0.00000000000E+00 0. -1.
</event>
<event>
 7    1  0.6999029E-005  0.5776533E+03  0.7818608E-02  0.1185785E+00
          2   -1    0    0  502    0  0.00000000000E+00  0.00000000000E+00  0.28124667075E+04  0.28124667075E+04  0.00000000000E+00 0. -1.
          1   -1    0    0  501    0 -0.00000000000E+00 -0.00000000000E+00 -0.88892526712E+03  0.88892526712E+03  0.00000000000E+00 0. -1.
         25    2    1    2    0    0  0.39325334903E+03  0.46656179414E+03  0.30452883502E+03  0.69331862026E+03  0.12499917425E+03 0.  0.
          2    1    1    2  501    0 -0.35083129022E+03 -0.44937071535E+03 -0.57726021521E+03  0.81132360380E+03  0.00000000000E+00 0. -1.
          1    1    1    2  502    0 -0.42422058803E+02 -0.17191078789E+02  0.21962728206E+04  0.21967497506E+04  0.00000000000E+00 0. -1.
         22    1    3    3    0    0  0.33796729479E+03  0.43251096837E+03  0.30588533550E+03  0.62837366955E+03  0.00000000000E+00 0.  1.
         22    1    3    3    0    0  0.55286054240E+02  0.34050825771E+02 -0.13565004795E+01  0.64944950709E+02  0.00000000000E+00 0.  1.
</event>
<event>
 7    1  0.6999029E-005  0.1022077E+03  0.7818608E-02  0.1277530E+00
          2   -1    0    0  502    0  0.00000000000E+00  0.00000000000E+00  0.44758424575E+03  0.44758424575E+03  0.00000000000E+00 0. -1.
          1   -1    0    0  501    0 -0.00000000000E+00 -0.00000000000E+00 -0.10517975732E+04  0.10517975732E+04  0.00000000000E+00 0. -1.
         25    2    1    2    0    0 -0.15489448122E+03  0.67129323213E+02  0.33844034602E+02  0.21276310169E+03  0.12499628960E+03 0.  0.
          2    1    1    2  501    0  0.55951104133E+02 -0.84484052567E+02 -0.95180406575E+03  0.95718287739E+03  0.00000000000E+00 0. -1.
          1    1    1    2  502    0  0.98943377087E+02  0.17354729354E+02  0.31374670371E+03  0.32943583987E+03  0.00000000000E+00 0. -1.
         22    1    3    3    0    0 -0.12010480105E+03  0.83235556433E+02  0.68222946150E+02  0.16126900344E+03  0.00000000000E+00 0.  1.
         22    1    3    3    0    0 -0.34789680174E+02 -0.16106233220E+02 -0.34378911548E+02  0.51494098248E+02  0.00000000000E+00 0.  1.
</event>
<event>
 7    1  0.6999029E-005  0.7390613E+02  0.7818608E-02  0.1383886E+00
          2   -1    0    0  502    0  0.00000000000E+00  0.00000000000E+00  0.41563841653E+03  0.41563841653E+03  0.00000000000E+00 0. -1.
          1   -1    0    0  501    0 -0.00000000000E+00 -0.00000000000E+00 -0.98445882497E+03  0.98445882497E+03  0.00000000000E+00 0. -1.
         25    2    1    2    0    0 -0.49208658785E+02  0.84723939892E+02  0.23554394877E+03  0.28408835877E+03  0.12500242277E+03 0.  0.
          2    1    1    2  501    0 -0.12782085948E+02 -0.52957838223E+02 -0.95158400096E+03  0.95314218522E+03  0.00000000000E+00 0. -1.
          1    1    1    2  502    0  0.61990744733E+02 -0.31766101668E+02  0.14721964376E+03  0.16286669751E+03  0.00000000000E+00 0. -1.
         22    1    3    3    0    0 -0.74097604953E+02  0.98446822167E+02  0.15098774916E+03  0.19488338116E+03  0.00000000000E+00 0. -1.
         22    1    3    3    0    0  0.24888946168E+02 -0.13722882275E+02  0.84556199608E+02  0.89204977616E+02  0.00000000000E+00 0. -1.
</event>
<event>
 7    1  0.6999029E-005  0.3198933E+03  0.7818608E-02  0.1210494E+00
          2   -1    0    0  502    0  0.00000000000E+00  0.00000000000E+00  0.10772446312E+03  0.10772446312E+03  0.00000000000E+00 0. -1.
          1   -1    0    0  501    0 -0.00000000000E+00 -0.00000000000E+00 -0.17665149579E+04  0.17665149579E+04  0.00000000000E+00 0. -1.
         25    2    1    2    0    0  0.29428397276E+03 -0.89034338014E+02 -0.89075129229E+03  0.95057459552E+03  0.12499610785E+03 0.  0.
          2    1    1    2  501    0 -0.30065971463E+03  0.15185874002E+03 -0.78838071851E+03  0.85732228377E+03  0.00000000000E+00 0. -1.
          1    1    1    2  502    0  0.63757418723E+01 -0.62824402009E+02  0.20341515995E+02  0.66342541745E+02  0.00000000000E+00 0. -1.
         22    1    3    3    0    0  0.13925967700E+03 -0.79760564941E+02 -0.30573155554E+03  0.34529232458E+03  0.00000000000E+00 0.  1.
         22    1    3    3    0    0  0.15502429576E+03 -0.92737730732E+01 -0.58501973674E+03  0.60528227094E+03  0.00000000000E+00 0.  1.
</event>
<event>
 7    1  0.6999029E-005  0.2266787E+03  0.7818608E-02  0.1141449E+00
          2   -1    0    0  502    0  0.00000000000E+00  0.00000000000E+00  0.61406249130E+03  0.61406249130E+03  0.00000000000E+00 0. -1.
          1   -1    0    0  501    0 -0.00000000000E+00 -0.00000000000E+00 -0.10204189292E+04  0.10204189292E+04  0.00000000000E+00 0. -1.
         25    2    1    2    0    0 -0.29419829747E+03  0.23927831167E+03  0.20546199871E+03  0.44905057348E+03  0.12500014385E+03 0.  0.
          2    1    1    2  501    0  0.10446159185E+03 -0.19505031940E+03 -0.84965135708E+03  0.87798876978E+03  0.00000000000E+00 0. -1.
          1    1    1    2  502    0  0.18973670561E+03 -0.44227992272E+02  0.23783292051E+03  0.30744207720E+03  0.00000000000E+00 0. -1.
         22    1    3    3    0    0 -0.74178125762E+02  0.49667409776E+01  0.16338835128E+02  0.76118462878E+02  0.00000000000E+00 0.  1.
         22    1    3    3    0    0 -0.22002017170E+03  0.23431157069E+03  0.18912316358E+03  0.37293211060E+03  0.00000000000E+00 0.  1.
</event>
<event>
 7    1  0.6999029E-005  0.2078364E+03  0.7818608E-02  0.1147365E+00
          2   -1    0    0  502    0  0.00000000000E+00  0.00000000000E+00  0.60728427304E+03  0.60728427304E+03  0.00000000000E+00 0. -1.
          1   -1    0    0  501    0 -0.00000000000E+00 -0.00000000000E+00 -0.12428024380E+04  0.12428024380E+04  0.00000000000E+00 0. -1.
         25    2    1    2    0    0  0.95171027304E+02 -0.58633110362E+02 -0.17963120195E+02  0.16865133524E+03  0.12500093249E+03 0.  0.
          2    1    1    2  501    0  0.11276118171E+03  0.17458773807E+03 -0.11127439247E+04  0.11319871926E+04  0.00000000000E+00 0. -1.
          1    1    1    2  502    0 -0.20793220901E+03 -0.11595462771E+03  0.49518887990E+03  0.54944818318E+03  0.00000000000E+00 0. -1.
         22    1    3    3    0    0  0.67318422122E+02 -0.96459275125E+02  0.19184863535E+01  0.11764285913E+03  0.00000000000E+00 0. -1.
         22    1    3    3    0    0  0.27852605182E+02  0.37826164763E+02 -0.19881606549E+02  0.51008476110E+02  0.00000000000E+00 0. -1.
</event>
<event>
 7    1  0.6999029E-005  0.7795659E+02  0.7818608E-02  0.1451244E+00
          2   -1    0    0  502    0  0.00000000000E+00  0.00000000000E+00  0.18230995338E+04  0.18230995338E+04  0.00000000000E+00 0. -1.
          1   -1    0    0  501    0 -0.00000000000E+00 -0.00000000000E+00 -0.17514975684E+02  0.17514975684E+02  0.00000000000E+00 0. -1.
         25    2    1    2    0    0  0.55948045846E+02  0.16341942290E+02  0.85682747346E+03  0.86785705624E+03  0.12500123148E+03 0.  0.
          2    1    1    2  501    0 -0.81555956749E+02  0.59316463225E+00  0.13026817567E+03  0.15369295208E+03  0.00000000000E+00 0. -1.
          1    1    1    2  502    0  0.25607910903E+02 -0.16935106923E+02  0.81848890896E+03  0.81906450115E+03  0.00000000000E+00 0. -1.
         22    1    3    3    0    0 -0.18007729707E+02 -0.39151904020E+02  0.20296519295E+03  0.20748980569E+03  0.00000000000E+00 0.  1.
         22    1    3    3    0    0  0.73955775553E+02  0.55493846310E+02  0.65386228051E+03  0.66036725055E+03  0.00000000000E+00 0.  1.
</event>
<event>
 7    1  0.6999029E-005  0.8133982E+03  0.7818608E-02  0.1101848E+00
          2   -1    0    0  502    0  0.00000000000E+00  0.00000000000E+00  0.10634941800E+04  0.10634941800E+04  0.00000000000E+00 0. -1.
          1   -1    0    0  501    0 -0.00000000000E+00 -0.00000000000E+00 -0.21680319948E+04  0.21680319948E+04  0.00000000000E+00 0. -1.
         25    2    1    2    0    0  0.22184342277E+03  0.81607025597E+03  0.48482317838E+03  0.98278395656E+03  0.12500249628E+03 0.  0.
          2    1    1    2  501    0 -0.27713910124E+02 -0.84540864760E+02 -0.14815890935E+04  0.14842578821E+04  0.00000000000E+00 0. -1.
          1    1    1    2  502    0 -0.19412951264E+03 -0.73152939121E+03 -0.10777189971E+03  0.76448433617E+03  0.00000000000E+00 0. -1.
         22    1    3    3    0    0  0.11339285223E+03  0.37025668212E+03  0.15213123979E+03  0.41604310319E+03  0.00000000000E+00 0.  1.
         22    1    3    3    0    0  0.10845057054E+03  0.44581357385E+03  0.33269193859E+03  0.56674085337E+03  0.00000000000E+00 0.  1.
</event>
<event>
 7    1  0.6999029E-005  0.2550241E+03  0.7818608E-02  0.1132846E+00
          2   -1    0    0  502    0  0.00000000000E+00  0.00000000000E+00  0.30492252354E+03  0.30492252354E+03  0.00000000000E+00 0. -1.
          1   -1    0    0  501    0 -0.00000000000E+00 -0.00000000000E+00 -0.11469514177E+04  0.11469514177E+04  0.00000000000E+00 0. -1.
         25    2    1    2    0    0 -0.28181950388E+03 -0.42995317002E+02  0.21350566508E+02  0.31201384006E+03  0.12500383853E+03 0.  0.
          2    1    1    2  501    0  0.61597949620E+02  0.18206542814E+03 -0.85808653562E+03  0.87934898086E+03  0.00000000000E+00 0. -1.
          1    1    1    2  502    0  0.22022155426E+03 -0.13907011114E+03 -0.52929250652E+01  0.26051112035E+03  0.00000000000E+00 0. -1.
         22    1    3    3    0    0 -0.29128348766E+03 -0.32717586234E+02  0.31416536261E+02  0.29479401178E+03  0.00000000000E+00 0.  1.
         22    1    3    3    0    0  0.94639837823E+01 -0.10277730768E+02 -0.10065969753E+02  0.17219828275E+02  0.00000000000E+00 0.  1.
</event>
<event>
 7    1  0.6999029E-005  0.1996898E+03  0.7818608E-02  0.1263626E+00
          2   -1    0    0  502    0  0.00000000000E+00  0.00000000000E+00  0.61254999937E+03  0.61254999937E+03  0.00000000000E+00 0. -1.
          1   -1    0    0  501    0 -0.00000000000E+00 -0.00000000000E+00 -0.46773348990E+03  0.46773348990E+03  0.00000000000E+00 0. -1.
         25    2    1    2    0    0 -0.40448779151E+02 -0.15573641905E+03 -0.24215284781E+03  0.31647053683E+03  0.12500265208E+03 0.  0.
          2    1    1    2  501    0 -0.53977161974E+02 -0.23340019186E+02 -0.16538402688E+03  0.17552825088E+03  0.00000000000E+00 0. -1.
          1    1    1    2  502    0  0.94425941124E+02  0.17907643824E+03  0.55235338416E+03  0.58828470155E+03  0.00000000000E+00 0. -1.
         22    1    3    3    0    0  0.23387575101E+02  0.94304928951E+01 -0.44104317885E+02  0.50804563982E+02  0.00000000000E+00 0. -1.
         22    1    3    3    0    0 -0.63836354251E+02 -0.16516691195E+03 -0.19804852992E+03  0.26566597285E+03  0.00000000000E+00 0. -1.
</event>
<event>
 7    1  0.6999029E-005  0.2049184E+03  0.7818608E-02  0.1252650E+00
          2   -1    0    0  502    0  0.00000000000E+00  0.00000000000E+00  0.11509633387E+04  0.11509633387E+04  0.00000000000E+00 0. -1.
          1   -1    0    0  501    0 -0.00000000000E+00 -0.00000000000E+00 -0.10399862913E+04  0.10399862913E+04  0.00000000000E+00 0. -1.
         25    2    1    2    0    0  0.19175462920E+03  0.16650778742E+03  0.17172420001E+03  0.33107191267E+03  0.12499891759E+03 0.  0.
          2    1    1    2  501    0 -0.17351135801E+03 -0.10531477389E+03 -0.94842776556E+03  0.96990340727E+03  0.00000000000E+00 0. -1.
          1    1    1    2  502    0 -0.18243271191E+02 -0.61193013525E+02  0.88768061302E+03  0.88997431007E+03  0.00000000000E+00 0. -1.
         22    1    3    3    0    0 -0.16199974502E+02  0.29228805959E+02  0.14439707191E+02  0.36404222495E+02  0.00000000000E+00 0.  1.
         22    1    3    3    0    0  0.20795460371E+03  0.13727898146E+03  0.15728449282E+03  0.29466769018E+03  0.00000000000E+00 0.  1.
</event>
<event>
 7    1  0.6999029E-005  0.1474699E+03  0.7818608E-02  0.1337411E+00
          2   -1    0    0  502    0  0.00000000000E+00  0.00000000000E+00  0.58202629815E+03  0.58202629815E+03  0.00000000000E+00 0. -1.
          1   -1    0    0  501    0 -0.00000000000E+00 -0.00000000000E+00 -0.45020266598E+03  0.45020266598E+03  0.00000000000E+00 0. -1.
         25    2    1    2    0    0 -0.96999827397E+00 -0.13991506706E+03 -0.34058883899E+03  0.38884427242E+03  0.12498777566E+03 0.  0.
          2    1    1    2  501    0 -0.16253587563E+02  0.17638949451E+03  0.80983587508E+01  0.17732178743E+03  0.00000000000E+00 0. -1.
          1    1    1    2  502    0  0.17223585837E+02 -0.36474427448E+02  0.46431411241E+03  0.46606290428E+03  0.00000000000E+00 0. -1.
         22    1    3    3    0    0  0.56171834150E+02 -0.10850823507E+03 -0.23101427921E+03  0.26133677359E+03  0.00000000000E+00 0. -1.
         22    1    3    3    0    0 -0.57141832424E+02 -0.31406831990E+02 -0.10957455978E+03  0.12750749883E+03  0.00000000000E+00 0. -1.
</event>
<event>
 7    1  0.6999029E-005  0.8161666E+02  0.7818608E-02  0.1359341E+00
          2   -1    0    0  502    0  0.00000000000E+00  0.00000000000E+00  0.22009987931E+04  0.22009987931E+04  0.00000000000E+00 0. -1.
          1   -1    0    0  501    0 -0.00000000000E+00 -0.00000000000E+00 -0.30680096656E+03  0.30680096656E+03  0.00000000000E+00 0. -1.
         25    2    1    2    0    0  0.71133787128E+02  0.12617039104E+02  0.61206168897E+02  0.15681539267E+03  0.12500266765E+03 0.  0.
          2    1    1    2  501    0 -0.24703693684E+02  0.55136384216E+02 -0.25465426617E+03  0.26172330547E+03  0.00000000000E+00 0. -1.
          1    1    1    2  502    0 -0.46430093444E+02 -0.67753423320E+02  0.20876459238E+04  0.20892610615E+04  0.00000000000E+00 0. -1.
         22    1    3    3    0    0  0.15308112585E+02  0.65613155058E+02  0.30099758686E+02  0.73793088433E+02  0.00000000000E+00 0.  1.
         22    1    3    3    0    0  0.55825674543E+02 -0.52996115954E+02  0.31106410211E+02  0.83022304236E+02  0.00000000000E+00 0.  1.
</event>
<event>
 7    1  0.6999029E-005  0.1622835E+03  0.7818608E-02  0.1230081E+00
          2   -1    0    0  502    0  0.00000000000E+00  0.00000000000E+00  0.64808172443E+03  0.64808172443E+03  0.00000000000E+00 0. -1.
          1   -1    0    0  501    0 -0.00000000000E+00 -0.00000000000E+00 -0.85876884729E+03  0.85876884729E+03  0.00000000000E+00 0. -1.
         25    2    1    2    0    0 -0.43398328002E+02 -0.18966944036E+03 -0.52453979981E+03  0.57325792792E+03  0.12499895544E+03 0.  0.
          2    1    1    2  501    0  0.10283317884E+03  0.10757805744E+03 -0.28751336834E+03  0.32374625571E+03  0.00000000000E+00 0. -1.
          1    1    1    2  502    0 -0.59434850836E+02  0.82091382910E+02  0.60136604529E+03  0.60984638809E+03  0.00000000000E+00 0. -1.
         22    1    3    3    0    0 -0.13684584880E+02 -0.54934557379E+02 -0.32962995893E+03  0.33445625018E+03  0.00000000000E+00 0.  1.
         22    1    3    3    0    0 -0.29713743122E+02 -0.13473488298E+03 -0.19490984088E+03  0.23880167774E+03  0.00000000000E+00 0.  1.
</event>
<event>
 7    1  0.6999029E-005  0.1034572E+03  0.7818608E-02  0.1340922E+00
          2   -1    0    0  502    0  0.00000000000E+00  0.00000000000E+00  0.52821095916E+03  0.52821095916E+03  0.00000000000E+00 0. -1.
          1   -1    0    0  501    0 -0.00000000000E+00 -0.00000000000E+00 -0.20184716071E+04  0.20184716071E+04  0.00000000000E+00 0. -1.
         25    2    1    2    0    0  0.62755063928E+02  0.94109932240E+02 -0.67722256071E+02  0.18167784084E+03  0.12500262593E+03 0.  0.
          2    1    1    2  501    0  0.29683142277E+02 -0.47216730146E+02 -0.18876548790E+04  0.18884786075E+04  0.00000000000E+00 0. -1.
          1    1    1    2  502    0 -0.92438206204E+02 -0.46893202094E+02  0.46511648721E+03  0.47652611791E+03  0.00000000000E+00 0. -1.
         22    1    3    3    0    0  0.29175599034E+02  0.11592913286E+03 -0.74792044723E+02  0.14101286955E+03  0.00000000000E+00 0.  1.
         22    1    3    3    0    0  0.33579464894E+02 -0.21819200622E+02  0.70697886516E+01  0.40664971288E+02  0.00000000000E+00 0.  1.
</event>
<event>
 7    1  0.6999029E-005  0.1925942E+03  0.7818608E-02  0.1254916E+00
          2   -1    0    0  502    0  0.00000000000E+00  0.00000000000E+00  0.46078266732E+03  0.46078266732E+03  0.00000000000E+00 0. -1.
          1   -1    0    0  501    0 -0.00000000000E+00 -0.00000000000E+00 -0.54591991126E+03  0.54591991126E+03  0.00000000000E+00 0. -1.
         25    2    1    2    0    0  0.21076787537E+03 -0.13379667189E+03  0.21629939236E+03  0.35317894567E+03  0.12500117533E+03 0.  0.
          2    1    1    2  501    0 -0.17078469405E+03  0.80747380129E+02 -0.45149248626E+03  0.48942110321E+03  0.00000000000E+00 0. -1.
          1    1    1    2  502    0 -0.39983181318E+02  0.53049291757E+02  0.15005584996E+03  0.16410252969E+03  0.00000000000E+00 0. -1.
         22    1    3    3    0    0  0.17403639668E+03 -0.53696210076E+02  0.18514613964E+03  0.25971338696E+03  0.00000000000E+00 0. -1.
         22    1    3    3    0    0  0.36731478689E+02 -0.80100461810E+02  0.31153252722E+02  0.93465558706E+02  0.00000000000E+00 0. -1.
</event>
<event>
 7    1  0.6999029E-005  0.1838431E+03  0.7818608E-02  0.1278360E+00
          2   -1    0    0  502    0  0.00000000000E+00  0.00000000000E+00  0.38160748130E+04  0.38160748130E+04  0.00000000000E+00 0. -1.
          1   -1    0    0  501    0 -0.00000000000E+00 -0.00000000000E+00 -0.54752998221E+03  0.54752998221E+03  0.00000000000E+00 0. -1.
         25    2    1    2    0    0 -0.20765941105E+02 -0.21130494582E+03  0.27142672374E+03  0.36657648920E+03  0.12499940655E+03 0.  0.
          2    1    1    2  501    0  0.46320713210E+02  0.30402344998E+02 -0.49602539282E+03  0.49911030983E+03  0.00000000000E+00 0. -1.
          1    1    1    2  502    0 -0.25554772105E+02  0.18090260082E+03  0.34931434998E+04  0.34979179961E+04  0.00000000000E+00 0. -1.
         22    1    3    3    0    0 -0.27783620269E+02 -0.10332248193E+02  0.11099440429E+01  0.29663392991E+02  0.00000000000E+00 0.  1.
         22    1    3    3    0    0  0.70176791639E+01 -0.20097269763E+03  0.27031677970E+03  0.33691309621E+03  0.00000000000E+00 0.  1.
</event>
<event>
 7    1  0.6999029E-005  0.2348126E+03  0.7818608E-02  0.1152134E+00
          2   -1    0    0  502    0  0.00000000000E+00  0.00000000000E+00  0.66237148451E+03  0.66237148451E+03  0.00000000000E+00 0. -1.
          1   -1    0    0  501    0 -0.00000000000E+00 -0.00000000000E+00 -0.24775595727E+04  0.24775595727E+04  0.00000000000E+00 0. -1.
         25    2    1    2    0    0  0.27482520197E+03 -0.18998120073E+03  0.41077967166E+03  0.54404613488E+03  0.12499803982E+03 0.  0.
          2    1    1    2  501    0 -0.11615160221E+03  0.11802287723E+03 -0.23663510245E+04  0.23721378049E+04  0.00000000000E+00 0. -1.
          1    1    1    2  502    0 -0.15867359976E+03  0.71958323500E+02  0.14038326464E+03  0.22374711746E+03  0.00000000000E+00 0. -1.
         22    1    3    3    0    0  0.41927370847E+02 -0.94967505099E+02  0.14235353456E+03  0.17618530090E+03  0.00000000000E+00 0. -1.
         22    1    3    3    0    0  0.23289783112E+03 -0.95013695629E+02  0.26842613710E+03  0.36786083398E+03  0.00000000000E+00 0. -1.
</event>
<event>
 7    1  0.6999029E-005  0.1111556E+04  0.7818608E-02  0.1120531E+00
          2   -1    0    0  502    0  0.00000000000E+00  0.00000000000E+00  0.35229245378E+04  0.35229245378E+04  0.00000000000E+00 0. -1.
          1   -1    0    0  501    0 -0.00000000000E+00 -0.00000000000E+00 -0.70609696811E+03  0.70609696811E+03  0.00000000000E+00 0. -1.
         25    2    1    2    0    0 -0.94981879962E+03  0.58929384589E+03  0.72102862769E+03  0.13360131926E+04  0.12500392014E+03 0.  0.
          2    1    1    2  501    0  0.34699881970E+02  0.37842772427E+02 -0.27274037318E+03  0.27753102240E+03  0.00000000000E+00 0. -1.
          1    1    1    2  502    0  0.91511891765E+03 -0.62713661831E+03  0.23685393151E+04  0.26154772908E+04  0.00000000000E+00 0. -1.
         22    1    3    3    0    0 -0.72676524966E+03  0.42195516462E+03  0.48234178666E+03  0.96896206749E+03  0.00000000000E+00 0. -1.
         22    1    3    3    0    0 -0.22305354995E+03  0.16733868126E+03  0.23868684103E+03  0.36705112515E+03  0.00000000000E+00 0. -1.
</event>
<event>
 7    1  0.6999029E-005  0.3247837E+03  0.7818608E-02  0.1218675E+00
          2   -1    0    0  502    0  0.00000000000E+00  0.00000000000E+00  0.13808358610E+04  0.13808358610E+04  0.00000000000E+00 0. -1.
          1   -1    0    0  501    0 -0.00000000000E+00 -0.00000000000E+00 -0.27226652034E+03  0.27226652034E+03  0.00000000000E+00 0. -1.
         25    2    1    2    0    0 -0.12657254182E+03  0.32042665985E+03  0.52836043100E+03  0.64303300703E+03  0.12503139764E+03 0.  0.
          2    1    1    2  501    0 -0.31417481006E+02 -0.47598690551E+02 -0.17907260720E+03  0.18793534023E+03  0.00000000000E+00 0. -1.
          1    1    1    2  502    0  0.15799002283E+03 -0.27282796930E+03  0.75928151686E+03  0.82213403408E+03  0.00000000000E+00 0. -1.
         22    1    3    3    0    0 -0.11570466161E+03  0.21600190426E+03  0.27250389161E+03  0.36647341282E+03  0.00000000000E+00 0.  1.
         22    1    3    3    0    0 -0.10867880210E+02  0.10442475560E+03  0.25585653939E+03  0.27655959421E+03  0.00000000000E+00 0.  1.
</event>
<event>
 7    1  0.6999029E-005  0.5097859E+03  0.7818608E-02  0.1095978E+00
          2   -1    0    0  502    0  0.00000000000E+00  0.00000000000E+00  0.16996581465E+04  0.16996581465E+04  0.00000000000E+00 0. -1.
          1   -1    0    0  501    0 -0.00000000000E+00 -0.00000000000E+00 -0.48386230021E+03  0.48386230021E+03  0.00000000000E+00 0. -1.
         25    2    1    2    0    0  0.58016312279E+03  0.19123990784E+03  0.70627218497E+03  0.94212945403E+03  0.12500222994E+03 0.  0.
          2    1    1    2  501    0 -0.48551582323E+03 -0.70760826713E+02 -0.18935460075E+03  0.52591622339E+03  0.00000000000E+00 0. -1.
          1    1    1    2  502    0 -0.94647299561E+02 -0.12047908113E+03  0.69887826208E+03  0.71547476930E+03  0.00000000000E+00 0. -1.
         22    1    3    3    0    0  0.45732868331E+03  0.14562951845E+03  0.46886232699E+03  0.67096152117E+03  0.00000000000E+00 0. -1.
         22    1    3    3    0    0  0.12283443947E+03  0.45610389395E+02  0.23740985799E+03  0.27116793286E+03  0.00000000000E+00 0. -1.
</event>
<event>
 7    1  0.6999029E-005  0.7456454E+03  0.7818608E-02  0.1046140E+00
          2   -1    0    0  502    0  0.00000000000E+00  0.00000000000E+00  0.32735431533E+04  0.32735431533E+04  0.00000000000E+00 0. -1.
          1   -1    0    0  501    0 -0.00000000000E+00 -0.00000000000E+00 -0.99428570250E+03  0.99428570250E+03  0.00000000000E+00 0. -1.
         25    2    1    2    0    0 -0.57278674956E+03 -0.32227243738E+03  0.47818452468E+03  0.82233221143E+03  0.12500256771E+03 0.  0.
          2    1    1    2  501    0  0.74628831307E+03  0.20863169735E+03 -0.63424109046E+03  0.10013666622E+04  0.00000000000E+00 0. -1.
          1    1    1    2  502    0 -0.17350156351E+03  0.11364074004E+03  0.24353140165E+04  0.24441299821E+04  0.00000000000E+00 0. -1.
         22    1    3    3    0    0 -0.54823107735E+03 -0.30169623425E+03  0.41318541594E+03  0.74986673474E+03  0.00000000000E+00 0. -1.
         22    1    3    3    0    0 -0.24555672214E+02 -0.20576203132E+02  0.64999108746E+02  0.72465476684E+02  0.00000000000E+00 0. -1.
</event>
<event>
 7    1  0.6999029E-005  0.1169352E+03  0.7818608E-02  0.1268541E+00
          2   -1    0    0  502    0  0.00000000000E+00  0.00000000000E+00  0.74762208458E+02  0.74762208458E+02  0.00000000000E+00 0. -1.
          1   -1    0    0  501    0 -0.00000000000E+00 -0.00000000000E+00 -0.19658785676E+04  0.19658785676E+04  0.00000000000E+00 0. -1.
         25    2    1    2    0    0 -0.66748156816E+02  0.19183027256E+03 -0.33666823119E+03  0.41258255720E+03  0.12499879480E+03 0.  0.
          2    1    1    2  501    0  0.57662697395E+02 -0.96527786632E+02 -0.15232124538E+04  0.15273567952E+04  0.00000000000E+00 0. -1.
          1    1    1    2  502    0  0.90854594218E+01 -0.95302485931E+02 -0.31235674146E+02  0.10070142371E+03  0.00000000000E+00 0. -1.
         22    1    3    3    0    0 -0.62430533183E+02  0.18672380523E+02 -0.97895425285E+02  0.11759993010E+03  0.00000000000E+00 0. -1.
         22    1    3    3    0    0 -0.43176236336E+01  0.17315789204E+03 -0.23877280590E+03  0.29498262710E+03  0.00000000000E+00 0. -1.
</event>
<event>
 7    1  0.6999029E-005  0.7959638E+02  0.7818608E-02  0.1419329E+00
          2   -1    0    0  502    0  0.00000000000E+00  0.00000000000E+00  0.19421044560E+04  0.19421044560E+04  0.00000000000E+00 0. -1.
          1   -1    0    0  501    0 -0.00000000000E+00 -0.00000000000E+00 -0.34945659693E+03  0.34945659693E+03  0.00000000000E+00 0. -1.
         25    2    1    2    0    0  0.67698666334E+02 -0.89604934591E+02  0.63408861560E+03  0.65597676333E+03  0.12499995145E+03 0.  0.
          2    1    1    2  501    0 -0.59798988930E+02  0.52199852124E+02 -0.33357266015E+03  0.34288695402E+03  0.00000000000E+00 0. -1.
          1    1    1    2  502    0 -0.78996774042E+01  0.37405082467E+02  0.12921319036E+04  0.12926973356E+04  0.00000000000E+00 0. -1.
         22    1    3    3    0    0 -0.53102553421E+01  0.54340048596E+00  0.33701234409E+03  0.33705461600E+03  0.00000000000E+00 0.  1.
         22    1    3    3    0    0  0.73008921676E+02 -0.90148335077E+02  0.29707627151E+03  0.31892214733E+03  0.00000000000E+00 0.  1.
</event>
<event>
 7    1  0.6999029E-005  0.2760049E+03  0.7818608E-02  0.1148303E+00
          2   -1    0    0  502    0  0.00000000000E+00  0.00000000000E+00  0.15088665072E+04  0.15088665072E+04  0.00000000000E+00 0. -1.
          1   -1    0    0  501    0 -0.00000000000E+00 -0.00000000000E+00 -0.35335995841E+03  0.35335995841E+03  0.00000000000E+00 0. -1.
         25    2    1    2    0    0  0.26891146438E+03 -0.21530376873E+03 -0.66185825349E+02  0.37238941934E+03  0.12499691058E+03 0.  0.
          2    1    1    2  501    0 -0.12216019420E+03  0.20131998511E+03 -0.22853732608E+02  0.23659066454E+03  0.00000000000E+00 0. -1.
          1    1    1    2  502    0 -0.14675127018E+03  0.13983783618E+02  0.12445461067E+04  0.12532463817E+04  0.00000000000E+00 0. -1.
         22    1    3    3    0    0  0.27764231146E+03 -0.18998103047E+03 -0.47560453816E+02  0.33976468595E+03  0.00000000000E+00 0. -1.
         22    1    3    3    0    0 -0.87308470823E+01 -0.25322738261E+02 -0.18625371533E+02  0.32624733387E+02  0.00000000000E+00 0. -1.
</event>
<event>
 7    1  0.6999029E-005  0.2292098E+03  0.7818608E-02  0.1225452E+00
          2   -1    0    0  502    0  0.00000000000E+00  0.00000000000E+00  0.15137382468E+04  0.15137382468E+04  0.00000000000E+00 0. -1.
          1   -1    0    0  501    0 -0.00000000000E+00 -0.00000000000E+00 -0.24469163721E+03  0.24469163721E+03  0.00000000000E+00 0. -1.
         25    2    1    2    0    0  0.24924506791E+03 -0.66852990631E+02  0.44906626568E+03  0.53280170629E+03  0.12499888407E+03 0.  0.
          2    1    1    2  501    0 -0.19369621677E+03  0.11766315472E+03 -0.13757237593E+03  0.26512072908E+03  0.00000000000E+00 0. -1.
          1    1    1    2  502    0 -0.55548851147E+02 -0.50810164093E+02  0.95755271982E+03  0.96050744863E+03  0.00000000000E+00 0. -1.
         22    1    3    3    0    0  0.25585056262E+03 -0.55600780606E+02  0.37356752452E+03  0.45618379254E+03  0.00000000000E+00 0. -1.
         22    1    3    3    0    0 -0.66054947102E+01 -0.11252210025E+02  0.75498741163E+02  0.76617913754E+02  0.00000000000E+00 0. -1.
</event>
<event>
 7    1  0.6999029E-005  0.8163750E+03  0.7818608E-02  0.1073723E+00
          2   -1    0    0  502    0  0.00000000000E+00  0.00000000000E+00  0.25607307873E+04  0.25607307873E+04  0.00000000000E+00 0. -1.
          1   -1    0    0  501    0 -0.00000000000E+00 -0.00000000000E+00 -0.58318022494E+03  0.58318022494E+03  0.00000000000E+00 0. -1.
         25    2    1    2    0    0  0.70590839536E+03 -0.38544796184E+03  0.69873462890E+03  0.10727220801E+04  0.12500314249E+03 0.  0.
          2    1    1    2  501    0 -0.50699258818E+02 -0.11836233885E+03 -0.27923105768E+03  0.30748990500E+03  0.00000000000E+00 0. -1.
          1    1    1    2  502    0 -0.65520913655E+03  0.50381030069E+03  0.15580469912E+04  0.17636990272E+04  0.00000000000E+00 0. -1.
         22    1    3    3    0    0  0.41784921570E+03 -0.19855089394E+03  0.32611827890E+03  0.56601550896E+03  0.00000000000E+00 0.  1.
         22    1    3    3    0    0  0.28805917966E+03 -0.18689706790E+03  0.37261635000E+03  0.50670657117E+03  0.00000000000E+00 0.  1.
</event>
<event>
 7    1  0.6999029E-005  0.1789385E+03  0.7818608E-02  0.1263929E+00
          2   -1    0    0  502    0  0.00000000000E+00  0.00000000000E+00  0.79035501778E+03  0.79035501778E+03  0.00000000000E+00 0. -1.
          1   -1    0    0  501    0 -0.00000000000E+00 -0.00000000000E+00 -0.29096899175E+03  0.29096899175E+03  0.00000000000E+00 0. -1.
         25    2    1    2    0    0  0.10034025215E+03 -0.19527834019E+03  0.25241523682E+03  0.35712795822E+03  0.12500052165E+03 0.  0.
          2    1    1    2  501    0  0.66588064416E+01  0.65093193380E+02 -0.21906552373E+03  0.22862888535E+03  0.00000000000E+00 0. -1.
          1    1    1    2  502    0 -0.10699905859E+03  0.13018514681E+03  0.46603631295E+03  0.49556716596E+03  0.00000000000E+00 0. -1.
         22    1    3    3    0    0 -0.50596419243E+01 -0.75531964474E+02  0.14867410508E+03  0.16683724751E+03  0.00000000000E+00 0. -1.
         22    1    3    3    0    0  0.10539989407E+03 -0.11974637572E+03  0.10374113174E+03  0.19029071071E+03  0.00000000000E+00 0. -1.
</event>
<event>
 7    1  0.6999029E-005  0.2890613E+03  0.7818608E-02  0.1259850E+00
          2   -1    0    0  502    0  0.00000000000E+00  0.00000000000E+00  0.42798588266E+03  0.42798588266E+03  0.00000000000E+00 0. -1.
          1   -1    0    0  501    0 -0.00000000000E+00 -0.00000000000E+00 -0.20682215727E+04  0.20682215727E+04  0.00000000000E+00 0. -1.
         25    2    1    2    0    0  0.18052280561E+03 -0.21994170636E+03 -0.17227384658E+04  0.17505472523E+04  0.12500009376E+03 0.  0.
          2    1    1    2  501    0 -0.17478375034E+03  0.26170611214E+03 -0.25529964607E+03  0.40523740918E+03  0.00000000000E+00 0. -1.
          1    1    1    2  502    0 -0.57390552690E+01 -0.41764405777E+02  0.33780242187E+03  0.34042279384E+03  0.00000000000E+00 0. -1.
         22    1    3    3    0    0  0.11724460685E+03 -0.46456501394E+02 -0.70509678751E+03  0.71628624454E+03  0.00000000000E+00 0.  1.
         22    1    3    3    0    0  0.63278198761E+02 -0.17348520497E+03 -0.10176416783E+04  0.10342610078E+04  0.00000000000E+00 0.  1.
</event>
<event>
 7    1  0.6999029E-005  0.3500154E+03  0.7818608E-02  0.1079212E+00
          2   -1    0    0  502    0  0.00000000000E+00  0.00000000000E+00  0.83552869669E+03  0.83552869669E+03  0.00000000000E+00 0. -1.
          1   -1    0    0  501    0 -0.00000000000E+00 -0.00000000000E+00 -0.13466402600E+04  0.13466402600E+04  0.00000000000E+00 0. -1.
         25    2    1    2    0    0 -0.61595587976E+03  0.12036351986E+02  0.61682845248E+03  0.88070817000E+03  0.12499208504E+03 0.  0.
          2    1    1    2  501    0  0.33796045169E+03  0.89725786553E+01 -0.81505707765E+03  0.88239209759E+03  0.00000000000E+00 0. -1.
          1    1    1    2  502    0  0.27799542808E+03 -0.21008930641E+02 -0.31288293816E+03  0.41906868910E+03  0.00000000000E+00 0. -1.
         22    1    3    3    0    0 -0.76949099570E+02  0.56839540509E+01  0.14537226297E+03  0.16457996870E+03  0.00000000000E+00 0.  1.
         22    1    3    3    0    0 -0.53900678019E+03  0.63523979350E+01  0.47145618951E+03  0.71612820129E+03  0.00000000000E+00 0.  1.
</event>
<event>
 7    1  0.6999029E-005  0.7221275E+02  0.7818608E-02  0.1449702E+00
          2   -1    0    0  502    0  0.00000000000E+00  0.00000000000E+00  0.30078712595E+03  0.30078712595E+03  0.00000000000E+00 0. -1.
          1   -1    0    0  501    0 -0.00000000000E+00 -0.00000000000E+00 -0.38925917077E+03  0.38925917077E+03  0.00000000000E+00 0. -1.
         25    2    1    2    0    0 -0.45570856998E+02  0.40714067956E+02 -0.16043440167E+03  0.21236385461E+03  0.12499948468E+03 0.  0.
          2    1    1    2  501    0  0.19631075778E+02  0.27172160888E+02 -0.19661212772E+03  0.19944932747E+03  0.00000000000E+00 0. -1.
          1    1    1    2  502    0  0.25939781219E+02 -0.67886228844E+02  0.26857448457E+03  0.27823311464E+03  0.00000000000E+00 0. -1.
         22    1    3    3    0    0  0.26420566602E+02  0.56651621039E+02 -0.95351310126E+02  0.11401458174E+03  0.00000000000E+00 0.  1.
         22    1    3    3    0    0 -0.71991423599E+02 -0.15937553082E+02 -0.65083091545E+02  0.98349272875E+02  0.00000000000E+00 0.  1.
</event>
<event>
 7    1  0.6999029E-005  0.2649768E+03  0.7818608E-02  0.1220520E+00
          2   -1    0    0  502    0  0.00000000000E+00  0.00000000000E+00  0.33375508819E+03  0.33375508819E+03  0.00000000000E+00 0. -1.
          1   -1    0    0  501    0 -0.00000000000E+00 -0.00000000000E+00 -0.54554092343E+03  0.54554092343E+03  0.00000000000E+00 0. -1.
         25    2    1    2    0    0 -0.27364284461E+02 -0.29603419961E+03 -0.12831323334E+03  0.34709860562E+03  0.12501241849E+03 0.  0.
          2    1    1    2  501    0  0.54702826177E+02  0.41333985838E+02 -0.22799274035E+03  0.23807895167E+03  0.00000000000E+00 0. -1.
          1    1    1    2  502    0 -0.27338541717E+02  0.25470021377E+03  0.14452013845E+03  0.29411845433E+03  0.00000000000E+00 0. -1.
         22    1    3    3    0    0 -0.69608404891E+02 -0.11809598191E+03 -0.33587778644E+02  0.14113869012E+03  0.00000000000E+00 0. -1.
         22    1    3    3    0    0  0.42244120430E+02 -0.17793821769E+03 -0.94725454694E+02  0.20595991550E+03  0.00000000000E+00 0. -1.
</event>
<event>
 7    1  0.6999029E-005  0.6424498E+02  0.7818608E-02  0.1413594E+00
          2   -1    0    0  502    0  0.00000000000E+00  0.00000000000E+00  0.15277497002E+03  0.15277497002E+03  0.00000000000E+00 0. -1.
          1   -1    0    0  501    0 -0.00000000000E+00 -0.00000000000E+00 -0.76214003128E+03  0.76214003128E+03  0.00000000000E+00 0. -1.
         25    2    1    2    0    0  0.40331154889E+01 -0.30647926553E+02 -0.39280391573E+03  0.41337075368E+03  0.12499960945E+03 0.  0.
          2    1    1    2  501    0  0.97898268941E+01  0.78191201422E+02 -0.35023757153E+03  0.35899312139E+03  0.00000000000E+00 0. -1.
          1    1    1    2  502    0 -0.13822942383E+02 -0.47543274869E+02  0.13367642601E+03  0.14255112624E+03  0.00000000000E+00 0. -1.
         22    1    3    3    0    0  0.33567891225E+02 -0.18096961483E+02 -0.37448006508E+03  0.37641682013E+03  0.00000000000E+00 0.  1.
         22    1    3    3    0    0 -0.29534775737E+02 -0.12550965069E+02 -0.18323850650E+02  0.36953933547E+02  0.00000000000E+00 0.  1.
</event>
<event>
 7    1  0.6999029E-005  0.1453473E+03  0.7818608E-02  0.1236660E+00
          2   -1    0    0  502    0  0.00000000000E+00  0.00000000000E+00  0.63616275044E+03  0.63616275044E+03  0.00000000000E+00 0. -1.
          1   -1    0    0  501    0 -0.00000000000E+00 -0.00000000000E+00 -0.45513942538E+03  0.45513942538E+03  0.00000000000E+00 0. -1.
         25    2    1    2    0    0 -0.13892524806E+03  0.17944146705E+03 -0.17609925435E+03  0.31326579041E+03  0.12500017364E+03 0.  0.
          2    1    1    2  501    0  0.61856624193E+02 -0.10700445771E+03 -0.18676600956E+03  0.22395923346E+03  0.00000000000E+00 0. -1.
          1    1    1    2  502    0  0.77068623866E+02 -0.72437009344E+02  0.54388858897E+03  0.55407715196E+03  0.00000000000E+00 0. -1.
         22    1    3    3    0    0 -0.15907583311E+02  0.60845593017E+02 -0.11632485719E+03  0.13223732377E+03  0.00000000000E+00 0.  1.
         22    1    3    3    0    0 -0.12301766475E+03  0.11859587403E+03 -0.59774397156E+02  0.18102846664E+03  0.00000000000E+00 0.  1.
</event>
<event>
 7    1  0.6999029E-005  0.2965391E+03  0.7818608E-02  0.1111537E+00
          2   -1    0    0  502    0  0.00000000000E+00  0.00000000000E+00  0.80067967854E+03  0.80067967854E+03  0.00000000000E+00 0. -1.
          1   -1    0    0  501    0 -0.00000000000E+00 -0.00000000000E+00 -0.11807163070E+04  0.11807163070E+04  0.00000000000E+00 0. -1.
         25    2    1    2    0    0 -0.10285893176E+03 -0.43956905397E+03 -0.59318624156E+03  0.75584118414E+03  0.12500026167E+03 0.  0.
          2    1    1    2  501    0  0.87438670776E+02  0.22457940932E+03 -0.45969004550E+03  0.51903407419E+03  0.00000000000E+00 0. -1.
          1    1    1    2  502    0  0.15420260987E+02  0.21498964465E+03  0.67283965861E+03  0.70652072719E+03  0.00000000000E+00 0. -1.
         22    1    3    3    0    0 -0.11226111613E+03 -0.25680430365E+03 -0.30281413018E+03  0.41261047733E+03  0.00000000000E+00 0.  1.
         22    1    3    3    0    0  0.94021843620E+01 -0.18276475032E+03 -0.29037211138E+03  0.34323070681E+03  0.00000000000E+00 0.  1.
</event>
<event>
 7    1  0.6999029E-005  0.3315627E+03  0.7818608E-02  0.1119393E+00
          2   -1    0    0  502    0  0.00000000000E+00  0.00000000000E+00  0.13450255718E+04  0.13450255718E+04  0.00000000000E+00 0. -1.
          1   -1    0    0  501    0 -0.00000000000E+00 -0.00000000000E+00 -0.41002371220E+03  0.41002371220E+03  0.00000000000E+00 0. -1.
         25    2    1    2    0    0 -0.97363700363E+02 -0.35067438234E+03  0.26139086340E+03  0.46519065735E+03  0.12499980656E+03 0.  0.
          2    1    1    2  501    0  0.17246433069E+03  0.27188743124E+02 -0.25194558342E+03  0.30652854699E+03  0.00000000000E+00 0. -1.
          1    1    1    2  502    0 -0.75100630328E+02  0.32348563922E+03  0.92555657960E+03  0.98333007963E+03  0.00000000000E+00 0. -1.
         22    1    3    3    0    0 -0.12007967178E+02 -0.19076274917E+03  0.19249613602E+03  0.27127362594E+03  0.00000000000E+00 0.  1.
         22    1    3    3    0    0 -0.85355733185E+02 -0.15991163317E+03  0.68894727372E+02  0.19391703141E+03  0.00000000000E+00 0.  1.
</event>
<event>
 7    1  0.6999029E-005  0.5533617E+03  0.7818608E-02  0.1188227E+00
          2   -1    0    0  502    0  0.00000000000E+00  0.00000000000E+00  0.26928160597E+04  0.26928160597E+04  0.00000000000E+00 0. -1.
          1   -1    0    0  501    0 -0.00000000000E+00 -0.00000000000E+00 -0.33763837143E+03  0.33763837143E+03  0.00000000000E+00 0. -1.
         25    2    1    2    0    0  0.28064585863E+03 -0.45552903283E+03  0.14472396515E+04  0.15480301241E+04  0.12500343415E+03 0.  0.
          2    1    1    2  501    0  0.36322821601E+02 -0.29039582325E+02 -0.21447392402E+03  0.21945776085E+03  0.00000000000E+00 0. -1.
          1    1    1    2  502    0 -0.31696868023E+03  0.48456861516E+03  0.11224119608E+04  0.12629665462E+04  0.00000000000E+00 0. -1.
         22    1    3    3    0    0  0.11094466009E+03 -0.16383071017E+03  0.37587348829E+03  0.42477064210E+03  0.00000000000E+00 0. -1.
         22    1    3    3    0    0  0.16970119854E+03 -0.29169832267E+03  0.10713661632E+04  0.11232594820E+04  0.00000000000E+00 0. -1.
</event>
<event>
 7    1  0.6999029E-005  0.7558617E+03  0.7818608E-02  0.1120162E+00
          2   -1    0    0  502    0  0.00000000000E+00  0.00000000000E+00  0.73413890777E+03  0.73413890777E+03  0.00000000000E+00 0. -1.
          1   -1    0    0  501    0 -0.00000000000E+00 -0.00000000000E+00 -0.10259086631E+04  0.10259086631E+04  0.00000000000E+00 0. -1.
         25    2    1    2    0    0 -0.71634245819E+03  0.30449738550E+03 -0.37626758518E+03  0.87353741089E+03  0.12500054957E+03 0.  0.
          2    1    1    2  501    0  0.68769037343E+03 -0.23426337824E+03 -0.54105004789E+02  0.72850856662E+03  0.00000000000E+00 0. -1.
          1    1    1    2  502    0  0.28652084760E+02 -0.70234007254E+02  0.13860283464E+03  0.15800159336E+03  0.00000000000E+00 0. -1.
         22    1    3    3    0    0 -0.53825374101E+03  0.17065958930E+03 -0.28855402934E+03  0.63411766494E+03  0.00000000000E+00 0.  1.
         22    1    3    3    0    0 -0.17808871717E+03  0.13383779619E+03 -0.87713555834E+02  0.23941974595E+03  0.00000000000E+00 0.  1.
</event>
<event>
 7    1  0.6999029E-005  0.4812523E+03  0.7818608E-02  0.1199428E+00
          2   -1    0    0  502    0  0.00000000000E+00  0.00000000000E+00  0.11242617513E+04  0.11242617513E+04  0.00000000000E+00 0. -1.
          1   -1    0    0  501    0 -0.00000000000E+00 -0.00000000000E+00 -0.35646955652E+03  0.35646955652E+03  0.00000000000E+00 0. -1.
         25    2    1    2    0    0 -0.27985594899E+03  0.41600196710E+03  0.87362698387E+02  0.52405281849E+03  0.12498850623E+03 0.  0.
          2    1    1    2  501    0  0.26598841722E+03 -0.37079421152E+03  0.24356844837E+03  0.51726567104E+03  0.00000000000E+00 0. -1.
          1    1    1    2  502    0  0.13867531764E+02 -0.45207755575E+02  0.43686104802E+03  0.43941281829E+03  0.00000000000E+00 0. -1.
         22    1    3    3    0    0 -0.88236042002E+01  0.10861712737E+02 -0.20500840187E+02  0.24821709108E+02  0.00000000000E+00 0.  1.
         22    1    3    3    0    0 -0.27103234479E+03  0.40514025436E+03  0.10786353857E+03  0.49923110938E+03  0.00000000000E+00 0.  1.
</event>
<event>
 7    1  0.6999029E-005  0.1302005E+03  0.7818608E-02  0.1257547E+00
          2   -1    0    0  502    0  0.00000000000E+00  0.00000000000E+00  0.24850329102E+04  0.24850329102E+04  0.00000000000E+00 0. -1.
          1   -1    0    0  501    0 -0.00000000000E+00 -0.00000000000E+00 -0.11590447534E+03  0.11590447534E+03  0.00000000000E+00 0. -1.
         25    2    1    2    0    0  0.11668519366E+03  0.90414320308E+02  0.36615887456E+02  0.19686588926E+03  0.12500108561E+03 0.  0.
          2    1    1    2  501    0 -0.12889084941E+03  0.45443600626E+01  0.84869237486E+02  0.15439005714E+03  0.00000000000E+00 0. -1.
          1    1    1    2  502    0  0.12205655754E+02 -0.94958680370E+02  0.22476433099E+04  0.22496814392E+04  0.00000000000E+00 0. -1.
         22    1    3    3    0    0  0.13510695556E+03  0.46695401097E+02  0.12088525823E+02  0.14345899198E+03  0.00000000000E+00 0.  1.
         22    1    3    3    0    0 -0.18421761897E+02  0.43718919211E+02  0.24527361633E+02  0.53406897280E+02  0.00000000000E+00 0.  1.
</event>
<event>
 7    1  0.6999029E-005  0.1569069E+03  0.7818608E-02  0.1413935E+00
          2   -1    0    0  502    0  0.00000000000E+00  0.00000000000E+00  0.12703911063E+04  0.12703911063E+04  0.00000000000E+00 0. -1.
          1   -1    0    0  501    0 -0.00000000000E+00 -0.00000000000E+00 -0.64266072703E+02  0.64266072703E+02  0.00000000000E+00 0. -1.
         25    2    1    2    0    0  0.20305827263E+02  0.15128580194E+03  0.81396131458E+03  0.83753071558E+03  0.12499982971E+03 0.  0.
          2    1    1    2  501    0 -0.11219248799E+01 -0.15767226464E+03  0.66976981033E+02  0.17131175599E+03  0.00000000000E+00 0. -1.
          1    1    1    2  502    0 -0.19183902383E+02  0.63864626992E+01  0.32518673794E+03  0.32581470739E+03  0.00000000000E+00 0. -1.
         22    1    3    3    0    0 -0.19616459909E+02 -0.61071354358E+01  0.26654278798E+02  0.33653427476E+02  0.00000000000E+00 0. -1.
         22    1    3    3    0    0  0.39922287172E+02  0.15739293737E+03  0.78730703578E+03  0.80387728811E+03  0.00000000000E+00 0. -1.
</event>
<event>
 7    1  0.6999029E-005  0.2467116E+03  0.7818608E-02  0.1259191E+00
          2   -1    0    0  502    0  0.00000000000E+00  0.00000000000E+00  0.15440984545E+03  0.15440984545E+03  0.00000000000E+00 0. -1.
          1   -1    0    0  501    0 -0.00000000000E+00 -0.00000000000E+00 -0.60098460120E+03  0.60098460120E+03  0.00000000000E+00 0. -1.
         25    2    1    2    0    0  0.21894036377E+03 -0.12853944762E+03 -0.20408139788E+03  0.34890213267E+03  0.12500483487E+03 0.  0.
          2    1    1    2  501    0  0.11210542708E+02  0.48433649720E+02 -0.12785758754E+03  0.13718256954E+03  0.00000000000E+00 0. -1.
          1    1    1    2  502    0 -0.23015090648E+03  0.80105797900E+02 -0.11463577034E+03  0.26930974444E+03  0.00000000000E+00 0. -1.
         22    1    3    3    0    0  0.15342827663E+03 -0.13954578400E+03 -0.18940673436E+03  0.28087038456E+03  0.00000000000E+00 0.  1.
         22    1    3    3    0    0  0.65512087137E+02  0.11006336378E+02 -0.14674663514E+02  0.68031748110E+02  0.00000000000E+00 0.  1.
</event>
<event>
 7    1  0.6999029E-005  0.1744158E+03  0.7818608E-02  0.1348380E+00
          2   -1    0    0  502    0  0.00000000000E+00  0.00000000000E+00  0.23119754829E+04  0.23119754829E+04  0.00000000000E+00 0. -1.
          1   -1    0    0  501    0 -0.00000000000E+00 -0.00000000000E+00 -0.10082647962E+04  0.10082647962E+04  0.00000000000E+00 0. -1.
         25    2    1    2    0    0 -0.19633510622E+03 -0.57384699615E+02  0.38456217528E+01  0.23974422155E+03  0.12498810054E+03 0.  0.
          2    1    1    2  501    0  0.30013873516E+02  0.78615908435E+01 -0.88660617941E+03  0.88714889087E+03  0.00000000000E+00 0. -1.
          1    1    1    2  502    0  0.16632123270E+03  0.49523108771E+02  0.21864712444E+04  0.21933471667E+04  0.00000000000E+00 0. -1.
         22    1    3    3    0    0 -0.43131037427E+02 -0.65135873823E+02 -0.28158216063E+02  0.83041276363E+02  0.00000000000E+00 0.  1.
         22    1    3    3    0    0 -0.15320406879E+03  0.77511742081E+01  0.32003837816E+02  0.15670294519E+03  0.00000000000E+00 0.  1.
</event>
<event>
 7    1  0.6999029E-005  0.3724179E+03  0.7818608E-02  0.1147955E+00
          2   -1    0    0  502    0  0.00000000000E+00  0.00000000000E+00  0.33592149035E+03  0.33592149035E+03  0.00000000000E+00 0. -1.
          1   -1    0    0  501    0 -0.00000000000E+00 -0.00000000000E+00 -0.23144539249E+04  0.23144539249E+04  0.00000000000E+00 0. -1.
         25    2    1    2    0    0  0.88789094951E+02  0.43952639162E+03 -0.46300540824E+03  0.65655650478E+03  0.12500193437E+03 0.  0.
          2    1    1    2  501    0 -0.14877288234E+02 -0.35845754926E+03 -0.17225555944E+04  0.17595200835E+04  0.00000000000E+00 0. -1.
          1    1    1    2  502    0 -0.73911806717E+02 -0.81068842359E+02  0.20702856804E+03  0.23429882705E+03  0.00000000000E+00 0. -1.
         22    1    3    3    0    0 -0.28370901050E+02  0.94857520477E+02 -0.12807972637E+03  0.16188660700E+03  0.00000000000E+00 0.  1.
         22    1    3    3    0    0  0.11715999600E+03  0.34466887114E+03 -0.33492568187E+03  0.49466989778E+03  0.00000000000E+00 0.  1.
</event>
<event>
 7    1  0.6999029E-005  0.7495110E+03  0.7818608E-02  0.1122532E+00
          2   -1    0    0  502    0  0.00000000000E+00  0.00000000000E+00  0.17441217489E+04  0.17441217489E+04  0.00000000000E+00 0. -1.
          1   -1    0    0  501    0 -0.00000000000E+00 -0.00000000000E+00 -0.19589767453E+04  0.19589767453E+04  0.00000000000E+00 0. -1.
         25    2    1    2    0    0 -0.24313868330E+03  0.67933460225E+03  0.57428367406E+03  0.93061092927E+03  0.12499216881E+03 0.  0.
          2    1    1    2  501    0  0.34068808713E+02  0.65993023199E+02 -0.16287743777E+04  0.16304667234E+04  0.00000000000E+00 0. -1.
          1    1    1    2  502    0  0.20906987459E+03 -0.74532762545E+03  0.83963570716E+03  0.11420208415E+04  0.00000000000E+00 0. -1.
         22    1    3    3    0    0 -0.23261504359E+03  0.66199262065E+03  0.57907822129E+03  0.90976676938E+03  0.00000000000E+00 0.  1.
         22    1    3    3    0    0 -0.10523639710E+02  0.17341981598E+02 -0.47945472292E+01  0.20844159892E+02  0.00000000000E+00 0.  1.
</event>
<event>
 7    1  0.6999029E-005  0.5430084E+02  0.7818608E-02  0.1429774E+00
          2   -1    0    0  502    0  0.00000000000E+00  0.00000000000E+00  0.16273003199E+03  0.16273003199E+03  0.00000000000E+00 0. -1.
          1   -1    0    0  501    0 -0.00000000000E+00 -0.00000000000E+00 -0.76562078059E+03  0.76562078059E+03  0.00000000000E+00 0. -1.
         25    2    1    2    0    0  0.49743766061E+02  0.59743894026E+01 -0.18380849437E+03  0.22786065714E+03  0.12499912353E+03 0.  0.
          2    1    1    2  501    0 -0.26995633844E+02  0.44140018408E+02 -0.55315058186E+03  0.55556518221E+03  0.00000000000E+00 0. -1.
          1    1    1    2  502    0 -0.22748132218E+02 -0.50114407811E+02  0.13406832763E+03  0.14492497322E+03  0.00000000000E+00 0. -1.
         22    1    3    3    0    0  0.15170751694E+02 -0.40553131112E+02 -0.97204140261E+01  0.44375608151E+02  0.00000000000E+00 0.  1.
         22    1    3    3    0    0  0.34573014367E+02  0.46527520515E+02 -0.17408808034E+03  0.18348504899E+03  0.00000000000E+00 0.  1.
</event>
<event>
 7    1  0.6999029E-005  0.2806247E+03  0.7818608E-02  0.1172980E+00
          2   -1    0    0  502    0  0.00000000000E+00  0.00000000000E+00  0.11391019117E+04  0.11391019117E+04  0.00000000000E+00 0. -1.
          1   -1    0    0  501    0 -0.00000000000E+00 -0.00000000000E+00 -0.88813923675E+03  0.88813923675E+03  0.00000000000E+00 0. -1.
         25    2    1    2    0    0  0.29953665262E+03 -0.17816498013E+03 -0.17511619357E+03  0.40958025260E+03  0.12500134264E+03 0.  0.
          2    1    1    2  501    0 -0.19087644372E+03  0.18412017591E+03 -0.56314569724E+03  0.62246857933E+03  0.00000000000E+00 0. -1.
          1    1    1    2  502    0 -0.10866020890E+03 -0.59551957810E+01  0.98922456574E+03  0.99519231650E+03  0.00000000000E+00 0. -1.
         22    1    3    3    0    0  0.23470759648E+03 -0.74721577378E+02 -0.13611796785E+03  0.28142329531E+03  0.00000000000E+00 0.  1.
         22    1    3    3    0    0  0.64829056143E+02 -0.10344340275E+03 -0.38998225721E+02  0.12815695729E+03  0.00000000000E+00 0.  1.
</event>
<event>
 7    1  0.6999029E-005  0.8844639E+02  0.7818608E-02  0.1323755E+00
          2   -1    0    0  502    0  0.00000000000E+00  0.00000000000E+00  0.47400878161E+03  0.47400878161E+03  0.00000000000E+00 0. -1.
          1   -1    0    0  501    0 -0.00000000000E+00 -0.00000000000E+00 -0.47655349446E+03  0.47655349446E+03  0.00000000000E+00 0. -1.
         25    2    1    2    0    0 -0.12646293090E+03 -0.69102442878E+02 -0.13577757652E+03  0.23415379660E+03  0.12499771868E+03 0.  0.
          2    1    1    2  501    0  0.75800909966E+02 -0.21414885014E+01 -0.28202837681E+03  0.29204514933E+03  0.00000000000E+00 0. -1.
          1    1    1    2  502    0  0.50662020931E+02  0.71243931379E+02  0.41526124048E+03  0.42436333014E+03  0.00000000000E+00 0. -1.
         22    1    3    3    0    0 -0.14802932611E+03 -0.70591166963E+02 -0.13517477204E+03  0.21252767640E+03  0.00000000000E+00 0.  1.
         22    1    3    3    0    0  0.21566395211E+02  0.14887240848E+01 -0.60280448256E+00  0.21626120203E+02  0.00000000000E+00 0.  1.
</event>
<event>
 7    1  0.6999029E-005  0.1244988E+03  0.7818608E-02  0.1368245E+00
          2   -1    0    0  502    0  0.00000000000E+00  0.00000000000E+00  0.54310494903E+03  0.54310494903E+03  0.00000000000E+00 0. -1.
          1   -1    0    0  501    0 -0.00000000000E+00 -0.00000000000E+00 -0.17702235722E+04  0.17702235722E+04  0.00000000000E+00 0. -1.
         25    2    1    2    0    0  0.83919764993E+02 -0.13261008714E+03  0.10976122343E+03  0.22869316702E+03  0.12500030522E+03 0.  0.
          2    1    1    2  501    0 -0.78273360451E+02  0.96278465615E+02 -0.17075970585E+04  0.17120992892E+04  0.00000000000E+00 0. -1.
          1    1    1    2  502    0 -0.56464045419E+01  0.36331621525E+02  0.37071721184E+03  0.37253606505E+03  0.00000000000E+00 0. -1.
         22    1    3    3    0    0  0.83193453510E+02 -0.84904749580E+02  0.13062930822E+03  0.17661818529E+03  0.00000000000E+00 0.  1.
         22    1    3    3    0    0  0.72631148346E+00 -0.47705337560E+02 -0.20868084784E+02  0.52074981735E+02  0.00000000000E+00 0.  1.
</event>
<event>
 7    1  0.6999029E-005  0.7416359E+03  0.7818608E-02  0.1180969E+00
          2   -1    0    0  502    0  0.00000000000E+00  0.00000000000E+00  0.92599605749E+03  0.92599605749E+03  0.00000000000E+00 0. -1.
          1   -1    0    0  501    0 -0.00000000000E+00 -0.00000000000E+00 -0.12064013373E+04  0.12064013373E+04  0.00000000000E+00 0. -1.
         25    2    1    2    0    0  0.74009187757E+03 -0.13715968254E+03  0.31036018224E+03  0.82370916063E+03  0.12499829130E+03 0.  0.
          2    1    1    2  501    0 -0.31395983243E+02 -0.20731449955E+02 -0.58133961439E+03  0.58255578964E+03  0.00000000000E+00 0. -1.
          1    1    1    2  502    0 -0.70869589433E+03  0.15789113249E+03 -0.94258476358E+01  0.72613244450E+03  0.00000000000E+00 0. -1.
         22    1    3    3    0    0  0.63668708394E+03 -0.10568901018E+03  0.21705885467E+03  0.68092228347E+03  0.00000000000E+00 0. -1.
         22    1    3    3    0    0  0.10340479363E+03 -0.31470672361E+02  0.93301327568E+02  0.14278687716E+03  0.00000000000E+00 0. -1.
</event>
<event>
 7    1  0.6999029E-005  0.1100316E+03  0.7818608E-02  0.1358797E+00
          2   -1    0    0  502    0  0.00000000000E+00  0.00000000000E+00  0.10250751101E+04  0.10250751101E+04  0.00000000000E+00 0. -1.
          1   -1    0    0  501    0 -0.00000000000E+00 -0.00000000000E+00 -0.61795371705E+02  0.61795371705E+02  0.00000000000E+00 0. -1.
         25    2    1    2    0    0 -0.11891104367E+03 -0.13430081690E+02  0.13138355273E+03  0.21727164687E+03  0.12500050881E+03 0.  0.
          2    1    1    2  501    0  0.10158158084E+03 -0.28121927348E+02  0.13511307101E+03  0.17136277986E+03  0.00000000000E+00 0. -1.
          1    1    1    2  502    0  0.17329462833E+02  0.41552009038E+02  0.69678311468E+03  0.69823605510E+03  0.00000000000E+00 0. -1.
         22    1    3    3    0    0 -0.26930433547E+02 -0.28091345952E+02 -0.16687409660E+02  0.42341960389E+02  0.00000000000E+00 0.  1.
         22    1    3    3    0    0 -0.91980610126E+02  0.14661264262E+02  0.14807096239E+03  0.17492968648E+03  0.00000000000E+00 0.  1.
</event>
<event>
 7    1  0.6999029E-005  0.1632022E+03  0.7818608E-02  0.1227853E+00
          2   -1    0    0  502    0  0.00000000000E+00  0.00000000000E+00  0.15968110808E+04  0.15968110808E+04  0.00000000000E+00 0. -1.
          1   -1    0    0  501    0 -0.00000000000E+00 -0.00000000000E+00 -0.28063015457E+03  0.28063015457E+03  0.00000000000E+00 0. -1.
         25    2    1    2    0    0  0.12021378848E+03  0.15958565270E+03  0.13165801941E+04  0.13375070414E+04  0.12499097125E+03 0.  0.
          2    1    1    2  501    0 -0.94655739730E+02 -0.40933120079E+02 -0.24558057578E+03  0.26635511744E+03  0.00000000000E+00 0. -1.
          1    1    1    2  502    0 -0.25558048754E+02 -0.11865253262E+03  0.24518130792E+03  0.27357907651E+03  0.00000000000E+00 0. -1.
         22    1    3    3    0    0  0.14150724372E+03  0.10299388519E+03  0.10013237931E+04  0.10165044904E+04  0.00000000000E+00 0.  1.
         22    1    3    3    0    0 -0.21293455235E+02  0.56591767514E+02  0.31525640101E+03  0.32100255102E+03  0.00000000000E+00 0.  1.
</event>
<event>
 7    1  0.6999029E-005  0.2051259E+03  0.7818608E-02  0.1260633E+00
          2   -1    0    0  502    0  0.00000000000E+00  0.00000000000E+00  0.72757513839E+03  0.72757513839E+03  0.00000000000E+00 0. -1.
          1   -1    0    0  501    0 -0.00000000000E+00 -0.00000000000E+00 -0.14890043037E+04  0.14890043037E+04  0.00000000000E+00 0. -1.
         25    2    1    2    0    0  0.32002942208E+02  0.25150797168E+03  0.31222050763E+03  0.42117399720E+03  0.12500176960E+03 0.  0.
          2    1    1    2  501    0  0.31579458649E+01 -0.20418988167E+03 -0.14247901880E+04  0.14393507426E+04  0.00000000000E+00 0. -1.
          1    1    1    2  502    0 -0.35160888073E+02 -0.47318090013E+02  0.35114051507E+03  0.35605470228E+03  0.00000000000E+00 0. -1.
         22    1    3    3    0    0 -0.99128758932E+01  0.78467550311E+02  0.18833885404E+03  0.20427174426E+03  0.00000000000E+00 0.  1.
         22    1    3    3    0    0  0.41915818101E+02  0.17304042137E+03  0.12388165359E+03  0.21690225294E+03  0.00000000000E+00 0.  1.
</event>
<event>
 7    1  0.8143369E-005  0.1353349E+03  0.7818608E-02  0.1298995E+00
          2   -1    0    0  502    0  0.00000000000E+00  0.00000000000E+00  0.18443599259E+04  0.18443599259E+04  0.00000000000E+00 0. -1.
          1   -1    0    0  501    0 -0.00000000000E+00 -0.00000000000E+00 -0.19591471175E+04  0.19591471175E+04  0.00000000000E+00 0. -1.
         25    2    1    2    0    0  0.37110097489E+02 -0.11246884813E+03 -0.30696947058E+03  0.35196795866E+03  0.12499914769E+03 0.  0.
          2    1    1    2  501    0 -0.58187684685E+02 -0.21446509517E+02 -0.16265648976E+04  0.16277466404E+04  0.00000000000E+00 0. -1.
          1    1    1    2  502    0  0.21077587196E+02  0.13391535765E+03  0.18187471766E+04  0.18237924444E+04  0.00000000000E+00 0. -1.
         22    1    3    3    0    0 -0.39602438903E+02 -0.12121791337E+02 -0.45124081149E+02  0.61249275031E+02  0.00000000000E+00 0. -1.
         22    1    3    3    0    0  0.76712536393E+02 -0.10034705679E+03 -0.26184538943E+03  0.29071868363E+03  0.00000000000E+00 0. -1.
</event>
<event>
 7    1  0.6999029E-005  0.3990248E+03  0.7818608E-02  0.1144246E+00
          2   -1    0    0  502    0  0.00000000000E+00  0.00000000000E+00  0.18716192980E+04  0.18716192980E+04  0.00000000000E+00 0. -1.
          1   -1    0    0  501    0 -0.00000000000E+00 -0.00000000000E+00 -0.79412127965E+03  0.79412127965E+03  0.00000000000E+00 0. -1.
         25    2    1    2    0    0  0.21923252756E+03 -0.37271397125E+03  0.36995420586E+03  0.58264173667E+03  0.12500669330E+03 0.  0.
          2    1    1    2  501    0 -0.10695591445E+03 -0.37743855367E+01 -0.65569810112E+03  0.66437475376E+03  0.00000000000E+00 0. -1.
          1    1    1    2  502    0 -0.11227661311E+03  0.37648835679E+03  0.13632419136E+04  0.14187240873E+04  0.00000000000E+00 0. -1.
         22    1    3    3    0    0  0.24781271983E+02 -0.53411934359E+01 -0.12158022829E+01  0.25379479183E+02  0.00000000000E+00 0.  1.
         22    1    3    3    0    0  0.19445125558E+03 -0.36737277781E+03  0.37117000814E+03  0.55726225749E+03  0.00000000000E+00 0.  1.
</event>
<event>
 7    1  0.6999029E-005  0.3114261E+03  0.7818608E-02  0.1234036E+00
          2   -1    0    0  502    0  0.00000000000E+00  0.00000000000E+00  0.43557875119E+03  0.43557875119E+03  0.00000000000E+00 0. -1.
          1   -1    0    0  501    0 -0.00000000000E+00 -0.00000000000E+00 -0.74065694923E+03  0.74065694923E+03  0.00000000000E+00 0. -1.
         25    2    1    2    0    0  0.29173987180E+03 -0.20457227342E+03  0.23087958363E+03  0.44259650791E+03  0.12499727530E+03 0.  0.
          2    1    1    2  501    0 -0.25562086123E+03  0.16898321550E+03 -0.58670126745E+03  0.66190311152E+03  0.00000000000E+00 0. -1.
          1    1    1    2  502    0 -0.36119010562E+02  0.35589057918E+02  0.50743485780E+02  0.71736080996E+02  0.00000000000E+00 0. -1.
         22    1    3    3    0    0  0.18609172884E+03 -0.17071828548E+03  0.21270242552E+03  0.33017750735E+03  0.00000000000E+00 0.  1.
         22    1    3    3    0    0  0.10564814296E+03 -0.33853987932E+02  0.18177158109E+02  0.11241900056E+03  0.00000000000E+00 0.  1.
</event>
<event>
 7    1  0.6999029E-005  0.1946873E+03  0.7818608E-02  0.1235358E+00
          2   -1    0    0  502    0  0.00000000000E+00  0.00000000000E+00  0.12098879174E+04  0.12098879174E+04  0.00000000000E+00 0. -1.
          1   -1    0    0  501    0 -0.00000000000E+00 -0.00000000000E+00 -0.49478099681E+03  0.49478099681E+03  0.00000000000E+00 0. -1.
         25    2    1    2    0    0  0.25790507917E+03  0.55345673935E+02  0.43267230240E+02  0.29508529657E+03  0.12500042223E+03 0.  0.
          2    1    1    2  501    0 -0.18334885073E+03 -0.26284289729E+02 -0.34394712864E+03  0.39064983329E+03  0.00000000000E+00 0. -1.
          1    1    1    2  502    0 -0.74556228435E+02 -0.29061384206E+02  0.10157868190E+04  0.10189337844E+04  0.00000000000E+00 0. -1.
         22    1    3    3    0    0  0.30394178988E+02 -0.35612293370E+02  0.90922309501E+01  0.47693922244E+02  0.00000000000E+00 0.  1.
         22    1    3    3    0    0  0.22751090018E+03  0.90957967305E+02  0.34174999289E+02  0.24739137433E+03  0.00000000000E+00 0.  1.
</event>
<event>
 7    1  0.1271727E-004  0.8889607E+02  0.7818608E-02  0.1473045E+00
          2   -1    0    0  502    0  0.00000000000E+00  0.00000000000E+00  0.15659009343E+04  0.15659009343E+04  0.00000000000E+00 0. -1.
          1   -1    0    0  501    0 -0.00000000000E+00 -0.00000000000E+00 -0.17281929363E+04  0.17281929363E+04  0.00000000000E+00 0. -1.
         25    2    1    2    0    0 -0.13309513520E+02  0.10848360856E+03 -0.61601718407E+03  0.63800273008E+03  0.12499790415E+03 0.  0.
          2    1    1    2  501    0  0.11955575779E+02 -0.19637900238E+02 -0.10997933084E+04  0.11000335923E+04  0.00000000000E+00 0. -1.
          1    1    1    2  502    0  0.13539377408E+01 -0.88845708326E+02  0.15535184905E+04  0.15560575482E+04  0.00000000000E+00 0. -1.
         22    1    3    3    0    0 -0.65014444171E+02  0.59809684464E+02 -0.24970164711E+03  0.26486787060E+03  0.00000000000E+00 0.  1.
         22    1    3    3    0    0  0.51704930651E+02  0.48673924099E+02 -0.36631553696E+03  0.37313485948E+03  0.00000000000E+00 0.  1.
</event>
<event>
 7    1  0.6999029E-005  0.1926462E+03  0.7818608E-02  0.1279379E+00
          2   -1    0    0  502    0  0.00000000000E+00  0.00000000000E+00  0.61222199534E+03  0.61222199534E+03  0.00000000000E+00 0. -1.
          1   -1    0    0  501    0 -0.00000000000E+00 -0.00000000000E+00 -0.80490712408E+03  0.80490712408E+03  0.00000000000E+00 0. -1.
         25    2    1    2    0    0 -0.45812374512E+02 -0.23445076661E+03  0.40348898374E+03  0.48527729433E+03  0.12499902708E+03 0.  0.
          2    1    1    2  501    0  0.55925788634E+02  0.18307323772E+03 -0.74755268016E+03  0.77167254312E+03  0.00000000000E+00 0. -1.
          1    1    1    2  502    0 -0.10113414122E+02  0.51377528896E+02  0.15137856767E+03  0.16017928196E+03  0.00000000000E+00 0. -1.
         22    1    3    3    0    0 -0.71275183663E+02 -0.20627725135E+03  0.27377527551E+03  0.35011906219E+03  0.00000000000E+00 0. -1.
         22    1    3    3    0    0  0.25462809151E+02 -0.28173515266E+02  0.12971370824E+03  0.13515823215E+03  0.00000000000E+00 0. -1.
</event>
<event>
 7    1  0.6999029E-005  0.1604856E+03  0.7818608E-02  0.1231406E+00
          2   -1    0    0  502    0  0.00000000000E+00  0.00000000000E+00  0.11804788284E+04  0.11804788284E+04  0.00000000000E+00 0. -1.
          1   -1    0    0  501    0 -0.00000000000E+00 -0.00000000000E+00 -0.20930434070E+04  0.20930434070E+04  0.00000000000E+00 0. -1.
         25    2    1    2    0    0 -0.22943815656E+03  0.40319408084E+02  0.19005735983E+03  0.32559899427E+03  0.12500153074E+03 0.  0.
          2    1    1    2  501    0  0.76871611674E+02 -0.65654673789E+02 -0.20175172009E+04  0.20200483749E+04  0.00000000000E+00 0. -1.
          1    1    1    2  502    0  0.15256654489E+03  0.25335265706E+02  0.91489526245E+03  0.92787486633E+03  0.00000000000E+00 0. -1.
         22    1    3    3    0    0 -0.10032453099E+03 -0.27337167884E+02  0.28115799821E+02  0.10771643545E+03  0.00000000000E+00 0.  1.
         22    1    3    3    0    0 -0.12911362558E+03  0.67656575967E+02  0.16194156001E+03  0.21788255882E+03  0.00000000000E+00 0.  1.
</event>
<event>
 7    1  0.6999029E-005  0.4855077E+03  0.7818608E-02  0.1076468E+00
          2   -1    0    0  502    0  0.00000000000E+00  0.00000000000E+00  0.19376503219E+04  0.19376503219E+04  0.00000000000E+00 0. -1.
          1   -1    0    0  501    0 -0.00000000000E+00 -0.00000000000E+00 -0.35153835383E+03  0.35153835383E+03  0.00000000000E+00 0. -1.
         25    2    1    2    0    0 -0.12634301688E+03 -0.56712773553E+03  0.13662796659E+03  0.60982732827E+03  0.12500297087E+03 0.  0.
          2    1    1    2  501    0  0.16079809101E+03  0.36140973627E+03  0.26377905776E+03  0.47544969751E+03  0.00000000000E+00 0. -1.
          1    1    1    2  502    0 -0.34455074132E+02  0.20571799926E+03  0.11857049438E+04  0.12039116500E+04  0.00000000000E+00 0. -1.
         22    1    3    3    0    0 -0.67678606715E+02 -0.94484040502E+02  0.46090109376E+02  0.12502770053E+03  0.00000000000E+00 0.  1.
         22    1    3    3    0    0 -0.58664410167E+02 -0.47264369503E+03  0.90537857217E+02  0.48479962774E+03  0.00000000000E+00 0.  1.
</event>
<event>
 7    1  0.6999029E-005  0.4307494E+03  0.7818608E-02  0.1042340E+00
          2   -1    0    0  502    0  0.00000000000E+00  0.00000000000E+00  0.25156364363E+04  0.25156364363E+04  0.00000000000E+00 0. -1.
          1   -1    0    0  501    0 -0.00000000000E+00 -0.00000000000E+00 -0.17478992070E+04  0.17478992070E+04  0.00000000000E+00 0. -1.
         25    2    1    2    0    0 -0.38468269272E+03  0.32069805001E+03 -0.68356241154E+03  0.85656781817E+03  0.12499137289E+03 0.  0.
          2    1    1    2  501    0  0.26981112960E+02 -0.44673689936E+03 -0.91069166305E+03  0.10147221998E+04  0.00000000000E+00 0. -1.
          1    1    1    2  502    0  0.35770157976E+03  0.12603884934E+03  0.23619913039E+04  0.23922456253E+04  0.00000000000E+00 0. -1.
         22    1    3    3    0    0  0.19328867458E+01  0.26565175624E+02 -0.16379892150E+02  0.31268921855E+02  0.00000000000E+00 0. -1.
         22    1    3    3    0    0 -0.38661557947E+03  0.29413287439E+03 -0.66718251939E+03  0.82529889632E+03  0.00000000000E+00 0. -1.
</event>
<event>
 7    1  0.7003800E-005  0.3073606E+03  0.7818608E-02  0.1208267E+00
          2   -1    0    0  502    0  0.00000000000E+00  0.00000000000E+00  0.12430017663E+04  0.12430017663E+04  0.00000000000E+00 0. -1.
          1   -1    0    0  501    0 -0.00000000000E+00 -0.00000000000E+00 -0.10771261525E+04  0.10771261525E+04  0.00000000000E+00 0. -1.
         25    2    1    2    0    0  0.32421946656E+03 -0.10101942484E+03 -0.41502242437E+03  0.55062843235E+03  0.12499948440E+03 0.  0.
          2    1    1    2  501    0 -0.26228837809E+03  0.12737230752E+03 -0.55748259918E+03  0.62913094535E+03  0.00000000000E+00 0. -1.
          1    1    1    2  502    0 -0.61931088466E+02 -0.26352882676E+02  0.11383806373E+04  0.11403685411E+04  0.00000000000E+00 0. -1.
         22    1    3    3    0    0  0.20974571971E+02 -0.49404659158E+02 -0.50947770490E+02  0.74002894091E+02  0.00000000000E+00 0. -1.
         22    1    3    3    0    0  0.30324489459E+03 -0.51614765682E+02 -0.36407465388E+03  0.47662553826E+03  0.00000000000E+00 0. -1.
</event>
<event>
 7    1  0.6999029E-005  0.1237188E+03  0.7818608E-02  0.1278063E+00
          2   -1    0    0  502    0  0.00000000000E+00  0.00000000000E+00  0.10583560273E+03  0.10583560273E+03  0.00000000000E+00 0. -1.
          1   -1    0    0  501    0 -0.00000000000E+00 -0.00000000000E+00 -0.12313973318E+04  0.12313973318E+04  0.00000000000E+00 0. -1.
         25    2    1    2    0    0 -0.67505611446E+02 -0.15479213157E+03 -0.43190850633E+03  0.48029541652E+03  0.12498446987E+03 0.  0.
          2    1    1    2  501    0  0.75145427243E+02  0.34211073054E+02 -0.72693944392E+03  0.73161341423E+03  0.00000000000E+00 0. -1.
          1    1    1    2  502    0 -0.76398157975E+01  0.12058105851E+03  0.33286221215E+02  0.12532410375E+03  0.00000000000E+00 0. -1.
         22    1    3    3    0    0 -0.76547310481E+01 -0.50505547507E+02 -0.26732502595E+02  0.57654418143E+02  0.00000000000E+00 0. -1.
         22    1    3    3    0    0 -0.59850880397E+02 -0.10428658406E+03 -0.40517600374E+03  0.42264099837E+03  0.00000000000E+00 0. -1.
</event>
<event>
 7    1  0.6999029E-005  0.5149343E+03  0.7818608E-02  0.1226794E+00
          2   -1    0    0  502    0  0.00000000000E+00  0.00000000000E+00  0.18175194217E+04  0.18175194217E+04  0.00000000000E+00 0. -1.
          1   -1    0    0  501    0 -0.00000000000E+00 -0.00000000000E+00 -0.97465648471E+03  0.97465648471E+03  0.00000000000E+00 0. -1.
         25    2    1    2    0    0 -0.23437502694E+03 -0.47635546647E+03  0.52817798447E+03  0.75923775941E+03  0.12499523330E+03 0.  0.
          2    1    1    2  501    0 -0.99521034546E+01  0.31511535907E+02 -0.80391113352E+03  0.80459003962E+03  0.00000000000E+00 0. -1.
          1    1    1    2  502    0  0.24432713039E+03  0.44484393056E+03  0.11185960860E+04  0.12283481074E+04  0.00000000000E+00 0. -1.
         22    1    3    3    0    0 -0.20908182542E+03 -0.41604326488E+03  0.39393690057E+03  0.60991269015E+03  0.00000000000E+00 0.  1.
         22    1    3    3    0    0 -0.25293201520E+02 -0.60312201590E+02  0.13424108390E+03  0.14932506926E+03  0.00000000000E+00 0.  1.
</event>
<event>
 7    1  0.6999029E-005  0.6720466E+03  0.7818608E-02  0.1167995E+00
          2   -1    0    0  502    0  0.00000000000E+00  0.00000000000E+00  0.15871779603E+04  0.15871779603E+04  0.00000000000E+00 0. -1.
          1   -1    0    0  501    0 -0.00000000000E+00 -0.00000000000E+00 -0.12087069793E+04  0.12087069793E+04  0.00000000000E+00 0. -1.
         25    2    1    2    0    0  0.44695065716E+03 -0.54265646967E+03 -0.76609656771E+03  0.10472677577E+04  0.12499948515E+03 0.  0.
          2    1    1    2  501    0  0.40821525966E+01  0.47931047088E+02 -0.22185377137E+03  0.22700913002E+03  0.00000000000E+00 0. -1.
          1    1    1    2  502    0 -0.45103280976E+03  0.49472542258E+03  0.13664213202E+04  0.15216080518E+04  0.00000000000E+00 0. -1.
         22    1    3    3    0    0  0.38884574771E+03 -0.51899294026E+03 -0.66951010326E+03  0.93209359290E+03  0.00000000000E+00 0. -1.
         22    1    3    3    0    0  0.58104909453E+02 -0.23663529402E+02 -0.96586464457E+02  0.11517416482E+03  0.00000000000E+00 0. -1.
</event>
<event>
 7    1  0.6999029E-005  0.4043956E+03  0.7818608E-02  0.1119499E+00
          2   -1    0    0  502    0  0.00000000000E+00  0.00000000000E+00  0.11350115011E+04  0.11350115011E+04  0.00000000000E+00 0. -1.
          1   -1    0    0  501    0 -0.00000000000E+00 -0.00000000000E+00 -0.53500801224E+03  0.53500801224E+03  0.00000000000E+00 0. -1.
         25    2    1    2    0    0 -0.26263406067E+03  0.35487030899E+03 -0.11008409970E+03  0.47186110211E+03  0.12499921862E+03 0.  0.
          2    1    1    2  501    0  0.11991354694E+03 -0.36313408777E+03 -0.83805937624E+02  0.39149592542E+03  0.00000000000E+00 0. -1.
          1    1    1    2  502    0  0.14272051373E+03  0.82637787843E+01  0.79389352615E+03  0.80666248577E+03  0.00000000000E+00 0. -1.
         22    1    3    3    0    0 -0.63361170701E+02  0.91446358766E+02  0.26605802585E+02  0.11438943664E+03  0.00000000000E+00 0. -1.
         22    1    3    3    0    0 -0.19927288997E+03  0.26342395022E+03 -0.13668990229E+03  0.35747166547E+03  0.00000000000E+00 0. -1.
</event>
<event>
 7    1  0.6999029E-005  0.7926884E+03  0.7818608E-02  0.1061543E+00
          2   -1    0    0  502    0  0.00000000000E+00  0.00000000000E+00  0.19246671136E+04  0.19246671136E+04  0.00000000000E+00 0. -1.
          1   -1    0    0  501    0 -0.00000000000E+00 -0.00000000000E+00 -0.48802089471E+03  0.48802089471E+03  0.00000000000E+00 0. -1.
         25    2    1    2    0    0  0.81145354365E+03  0.34954379418E+03  0.74502433665E+03  0.11624645033E+04  0.12499896627E+03 0.  0.
          2    1    1    2  501    0 -0.15335164144E+03 -0.33008451901E+02 -0.89747469859E+02  0.18072324747E+03  0.00000000000E+00 0. -1.
          1    1    1    2  502    0 -0.65810190221E+03 -0.31653534228E+03  0.78136935208E+03  0.10695002576E+04  0.00000000000E+00 0. -1.
         22    1    3    3    0    0  0.23503766516E+03  0.88853458598E+02  0.14272464169E+03  0.28897744634E+03  0.00000000000E+00 0. -1.
         22    1    3    3    0    0  0.57641587848E+03  0.26069033558E+03  0.60229969496E+03  0.87348705691E+03  0.00000000000E+00 0. -1.
</event>
<event>
 7    1  0.6999029E-005  0.1921415E+03  0.7818608E-02  0.1245038E+00
          2   -1    0    0  502    0  0.00000000000E+00  0.00000000000E+00  0.15986740674E+04  0.15986740674E+04  0.00000000000E+00 0. -1.
          1   -1    0    0  501    0 -0.00000000000E+00 -0.00000000000E+00 -0.40163890164E+03  0.40163890164E+03  0.00000000000E+00 0. -1.
         25    2    1    2    0    0 -0.76760977190E+02  0.23612801627E+03  0.11968895496E+03  0.30264647701E+03  0.12498302453E+03 0.  0.
          2    1    1    2  501    0  0.25540831395E+02 -0.18342592561E+03 -0.28143343370E+03  0.33690084871E+03  0.00000000000E+00 0. -1.
          1    1    1    2  502    0  0.51220145795E+02 -0.52702090659E+02  0.13587796445E+04  0.13607656433E+04  0.00000000000E+00 0. -1.
         22    1    3    3    0    0 -0.75068486514E+02  0.14526723617E+03  0.13303024744E+03  0.21079585932E+03  0.00000000000E+00 0.  1.
         22    1    3    3    0    0 -0.16924906766E+01  0.90860780104E+02 -0.13341292481E+02  0.91850617694E+02  0.00000000000E+00 0.  1.
</event>
<event>
 7    1  0.6999029E-005  0.1753136E+03  0.7818608E-02  0.1254149E+00
          2   -1    0    0  502    0  0.00000000000E+00  0.00000000000E+00  0.22398161110E+04  0.22398161110E+04  0.00000000000E+00 0. -1.
          1   -1    0    0  501    0 -0.00000000000E+00 -0.00000000000E+00 -0.65118631737E+02  0.65118631737E+02  0.00000000000E+00 0. -1.
         25    2    1    2    0    0  0.16080790677E+03  0.18277517595E+03  0.28066162995E+03  0.39199858148E+03  0.12500395806E+03 0.  0.
          2    1    1    2  501    0 -0.48652040005E+02 -0.55139596139E+02  0.26340430861E+03  0.27347618882E+03  0.00000000000E+00 0. -1.
          1    1    1    2  502    0 -0.11215586677E+03 -0.12763557981E+03  0.16306315407E+04  0.16394599725E+04  0.00000000000E+00 0. -1.
         22    1    3    3    0    0  0.38645055051E+02  0.13587358161E+03  0.12485659072E+03  0.18853179760E+03  0.00000000000E+00 0. -1.
         22    1    3    3    0    0  0.12216285172E+03  0.46901594338E+02  0.15580503923E+03  0.20346678388E+03  0.00000000000E+00 0. -1.
</event>
<event>
 7    1  0.6999029E-005  0.2639638E+03  0.7818608E-02  0.1160787E+00
          2   -1    0    0  502    0  0.00000000000E+00  0.00000000000E+00  0.53103349912E+03  0.53103349912E+03  0.00000000000E+00 0. -1.
          1   -1    0    0  501    0 -0.00000000000E+00 -0.00000000000E+00 -0.26345247349E+04  0.26345247349E+04  0.00000000000E+00 0. -1.
         25    2    1    2    0    0  0.97150534963E+02  0.35044823489E+03 -0.12346552366E+04  0.12931551675E+04  0.12499816893E+03 0.  0.
          2    1    1    2  501    0 -0.57291296764E+02 -0.22344932509E+03 -0.13518470134E+04  0.13713869772E+04  0.00000000000E+00 0. -1.
          1    1    1    2  502    0 -0.39859238200E+02 -0.12699890980E+03  0.48301101418E+03  0.50101608934E+03  0.00000000000E+00 0. -1.
         22    1    3    3    0    0  0.59394004015E+02  0.30780679357E+03 -0.88476157597E+03  0.93865633551E+03  0.00000000000E+00 0.  1.
         22    1    3    3    0    0  0.37756530948E+02  0.42641441319E+02 -0.34989366058E+03  0.35449883196E+03  0.00000000000E+00 0.  1.
</event>
<event>
 7    1  0.6999029E-005  0.1683639E+03  0.7818608E-02  0.1291159E+00
          2   -1    0    0  502    0  0.00000000000E+00  0.00000000000E+00  0.26387659869E+04  0.26387659869E+04  0.00000000000E+00 0. -1.
          1   -1    0    0  501    0 -0.00000000000E+00 -0.00000000000E+00 -0.66116662286E+03  0.66116662286E+03  0.00000000000E+00 0. -1.
         25    2    1    2    0    0 -0.12319700817E+03  0.11586007470E+03  0.14671854156E+04  0.14821811410E+04  0.12500732518E+03 0.  0.
          2    1    1    2  501    0 -0.32130604780E+02 -0.42918034936E+02 -0.64622854289E+03  0.64844865883E+03  0.00000000000E+00 0. -1.
          1    1    1    2  502    0  0.15532761295E+03 -0.72942039768E+02  0.11566424914E+04  0.11693028100E+04  0.00000000000E+00 0. -1.
         22    1    3    3    0    0 -0.26865884204E+02  0.14831108161E+02  0.53942545903E+02  0.62060742518E+02  0.00000000000E+00 0.  1.
         22    1    3    3    0    0 -0.96331123965E+02  0.10102896654E+03  0.14132428697E+04  0.14201203985E+04  0.00000000000E+00 0.  1.
</event>
<event>
 7    1  0.6999029E-005  0.5109403E+03  0.7818608E-02  0.1175814E+00
          2   -1    0    0  502    0  0.00000000000E+00  0.00000000000E+00  0.70132512974E+03  0.70132512974E+03  0.00000000000E+00 0. -1.
          1   -1    0    0  501    0 -0.00000000000E+00 -0.00000000000E+00 -0.12152923422E+04  0.12152923422E+04  0.00000000000E+00 0. -1.
         25    2    1    2    0    0  0.25854979370E+03 -0.49284465727E+03 -0.77622999885E+03  0.96327653418E+03  0.12499927267E+03 0.  0.
          2    1    1    2  501    0 -0.10587875282E+01  0.57867936585E+02 -0.23634563758E+03  0.24332915879E+03  0.00000000000E+00 0. -1.
          1    1    1    2  502    0 -0.25749100617E+03  0.43497672069E+03  0.49860842397E+03  0.71001177896E+03  0.00000000000E+00 0. -1.
         22    1    3    3    0    0  0.75726594027E+02 -0.13921017734E+03 -0.32472287756E+03  0.36132940336E+03  0.00000000000E+00 0. -1.
         22    1    3    3    0    0  0.18282319968E+03 -0.35363447993E+03 -0.45150712129E+03  0.60194713083E+03  0.00000000000E+00 0. -1.
</event>
<event>
 7    1  0.6999029E-005  0.2968221E+03  0.7818608E-02  0.1221936E+00
          2   -1    0    0  502    0  0.00000000000E+00  0.00000000000E+00  0.24833230647E+04  0.24833230647E+04  0.00000000000E+00 0. -1.
          1   -1    0    0  501    0 -0.00000000000E+00 -0.00000000000E+00 -0.57759550582E+03  0.57759550582E+03  0.00000000000E+00 0. -1.
         25    2    1    2    0    0  0.34140155226E+03 -0.11804433769E+02  0.22389267112E+03  0.42713774262E+03  0.12499743377E+03 0.  0.
          2    1    1    2  501    0 -0.28814132919E+03  0.40091000575E+02 -0.43105005268E+03  0.52003544286E+03  0.00000000000E+00 0. -1.
          1    1    1    2  502    0 -0.53260223066E+02 -0.28286566806E+02  0.21128849405E+04  0.21137453851E+04  0.00000000000E+00 0. -1.
         22    1    3    3    0    0  0.16745867825E+03 -0.31100401953E+02  0.17767908145E+03  0.24612903102E+03  0.00000000000E+00 0. -1.
         22    1    3    3    0    0  0.17394287401E+03  0.19295968184E+02  0.46213589669E+02  0.18100871161E+03  0.00000000000E+00 0. -1.
</event>
<event>
 7    1  0.6999029E-005  0.9625144E+02  0.7818608E-02  0.1295962E+00
          2   -1    0    0  502    0  0.00000000000E+00  0.00000000000E+00  0.28628362811E+03  0.28628362811E+03  0.00000000000E+00 0. -1.
          1   -1    0    0  501    0 -0.00000000000E+00 -0.00000000000E+00 -0.47143305591E+03  0.47143305591E+03  0.00000000000E+00 0. -1.
         25    2    1    2    0    0 -0.11444588256E+03 -0.12566611571E+03 -0.18595120065E+03  0.28123434639E+03  0.12500030358E+03 0.  0.
          2    1    1    2  501    0  0.81193275453E+02  0.38074888788E+02 -0.21948543987E+03  0.23709893177E+03  0.00000000000E+00 0. -1.
          1    1    1    2  502    0  0.33252607112E+02  0.87591226923E+02  0.22028721271E+03  0.23938340585E+03  0.00000000000E+00 0. -1.
         22    1    3    3    0    0 -0.83612432206E+02 -0.54158777428E+01 -0.98863318018E+02  0.12959292496E+03  0.00000000000E+00 0. -1.
         22    1    3    3    0    0 -0.30833450359E+02 -0.12025023797E+03 -0.87087882628E+02  0.15164142143E+03  0.00000000000E+00 0. -1.
</event>
<event>
 7    1  0.6999029E-005  0.3005290E+03  0.7818608E-02  0.1228313E+00
          2   -1    0    0  502    0  0.00000000000E+00  0.00000000000E+00  0.63202730081E+03  0.63202730081E+03  0.00000000000E+00 0. -1.
          1   -1    0    0  501    0 -0.00000000000E+00 -0.00000000000E+00 -0.10095680664E+04  0.10095680664E+04  0.00000000000E+00 0. -1.
         25    2    1    2    0    0 -0.19234752435E+03 -0.28526026776E+03 -0.20005781868E+03  0.41715764323E+03  0.12500551188E+03 0.  0.
          2    1    1    2  501    0  0.16562980289E+03  0.23634429185E+03 -0.66961406817E+03  0.72916037755E+03  0.00000000000E+00 0. -1.
          1    1    1    2  502    0  0.26717721466E+02  0.48915975914E+02  0.49213112128E+03  0.49527734642E+03  0.00000000000E+00 0. -1.
         22    1    3    3    0    0 -0.18292279150E+03 -0.29487742855E+03 -0.20473657201E+03  0.40290260539E+03  0.00000000000E+00 0.  1.
         22    1    3    3    0    0 -0.94247328594E+01  0.96171607810E+01  0.46787533318E+01  0.14255037836E+02  0.00000000000E+00 0.  1.
</event>
<event>
 7    1  0.6999029E-005  0.3748719E+03  0.7818608E-02  0.1224186E+00
          2   -1    0    0  502    0  0.00000000000E+00  0.00000000000E+00  0.11195717816E+04  0.11195717816E+04  0.00000000000E+00 0. -1.
          1   -1    0    0  501    0 -0.00000000000E+00 -0.00000000000E+00 -0.52455929572E+03  0.52455929572E+03  0.00000000000E+00 0. -1.
         25    2    1    2    0    0  0.28492251433E+03 -0.26697796982E+03 -0.30934502922E+03  0.51359285286E+03  0.12500078348E+03 0.  0.
          2    1    1    2  501    0  0.15127011696E+02  0.44119600382E+02 -0.71604867521E+02  0.85455384110E+02  0.00000000000E+00 0. -1.
          1    1    1    2  502    0 -0.30004952602E+03  0.22285836944E+03  0.97596238265E+03  0.10450828404E+04  0.00000000000E+00 0. -1.
         22    1    3    3    0    0  0.22231122349E+03 -0.12578491518E+03 -0.19818782554E+03  0.32329945742E+03  0.00000000000E+00 0. -1.
         22    1    3    3    0    0  0.62611290837E+02 -0.14119305464E+03 -0.11115720368E+03  0.19029339544E+03  0.00000000000E+00 0. -1.
</event>
<event>
 7    1  0.6999029E-005  0.4179781E+03  0.7818608E-02  0.1112375E+00
          2   -1    0    0  502    0  0.00000000000E+00  0.00000000000E+00  0.13859606800E+04  0.13859606800E+04  0.00000000000E+00 0. -1.
          1   -1    0    0  501    0 -0.00000000000E+00 -0.00000000000E+00 -0.51064000870E+03  0.51064000870E+03  0.00000000000E+00 0. -1.
         25    2    1    2    0    0  0.45918057169E+03 -0.80406794466E+02  0.67565825962E+03  0.83033112754E+03  0.12499459012E+03 0.  0.
          2    1    1    2  501    0 -0.36397318867E+03  0.19799672240E+03 -0.32095655945E+03  0.52411095887E+03  0.00000000000E+00 0. -1.
          1    1    1    2  502    0 -0.95207383016E+02 -0.11758992793E+03  0.52061897115E+03  0.54215860231E+03  0.00000000000E+00 0. -1.
         22    1    3    3    0    0  0.41897689734E+03 -0.32760534753E+02  0.58491063157E+03  0.72023283740E+03  0.00000000000E+00 0. -1.
         22    1    3    3    0    0  0.40203674346E+02 -0.47646259713E+02  0.90747628056E+02  0.11009829015E+03  0.00000000000E+00 0. -1.
</event>
<event>
 7    1  0.6999029E-005  0.1360616E+04  0.7818608E-02  0.1117381E+00
          2   -1    0    0  502    0  0.00000000000E+00  0.00000000000E+00  0.92560459581E+03  0.92560459581E+03  0.00000000000E+00 0. -1.
          1   -1    0    0  501    0 -0.00000000000E+00 -0.00000000000E+00 -0.35626036937E+04  0.35626036937E+04  0.00000000000E+00 0. -1.
         25    2    1    2    0    0 -0.19558896948E+03 -0.13615631877E+04 -0.15660749079E+03  0.13900622399E+04  0.12505105142E+03 0.  0.
          2    1    1    2  501    0 -0.27435390218E+01  0.43546811234E+02 -0.13494013275E+04  0.13501065863E+04  0.00000000000E+00 0. -1.
          1    1    1    2  502    0  0.19833250850E+03  0.13180163765E+04 -0.11309902796E+04  0.17480394633E+04  0.00000000000E+00 0. -1.
         22    1    3    3    0    0 -0.19675957206E+03 -0.12812721314E+04 -0.12006974937E+03  0.13018407539E+04  0.00000000000E+00 0. -1.
         22    1    3    3    0    0  0.11706025863E+01 -0.80291056328E+02 -0.36537741422E+02  0.88221485960E+02  0.00000000000E+00 0. -1.
</event>
<event>
 7    1  0.6999029E-005  0.3811183E+03  0.7818608E-02  0.1071257E+00
          2   -1    0    0  502    0  0.00000000000E+00  0.00000000000E+00  0.72308830697E+03  0.72308830697E+03  0.00000000000E+00 0. -1.
          1   -1    0    0  501    0 -0.00000000000E+00 -0.00000000000E+00 -0.79647983442E+03  0.79647983442E+03  0.00000000000E+00 0. -1.
         25    2    1    2    0    0  0.31107947601E+03  0.45445214769E+03 -0.43124146693E+02  0.56637603343E+03  0.12499969713E+03 0.  0.
          2    1    1    2  501    0 -0.26429911520E+03 -0.10734964982E+03 -0.36868757369E+03  0.46616359425E+03  0.00000000000E+00 0. -1.
          1    1    1    2  502    0 -0.46780360810E+02 -0.34710249786E+03  0.33842019293E+03  0.48702851371E+03  0.00000000000E+00 0. -1.
         22    1    3    3    0    0  0.27089428773E+03  0.35165068073E+03 -0.77843090374E+02  0.45066779684E+03  0.00000000000E+00 0.  1.
         22    1    3    3    0    0  0.40185188274E+02  0.10280146695E+03  0.34718943681E+02  0.11570823659E+03  0.00000000000E+00 0.  1.
</event>
<event>
 7    1  0.6999029E-005  0.1730841E+03  0.7818608E-02  0.1291373E+00
          2   -1    0    0  502    0  0.00000000000E+00  0.00000000000E+00  0.29181986580E+04  0.29181986580E+04  0.00000000000E+00 0. -1.
          1   -1    0    0  501    0 -0.00000000000E+00 -0.00000000000E+00 -0.97960340914E+02  0.97960340914E+02  0.00000000000E+00 0. -1.
         25    2    1    2    0    0 -0.18060374054E+03  0.47452814625E+02  0.13392298317E+03  0.26159497326E+03  0.12500833532E+03 0.  0.
          2    1    1    2  501    0  0.14094709671E+03 -0.81159785032E+02  0.16147754320E+03  0.22918985958E+03  0.00000000000E+00 0. -1.
          1    1    1    2  502    0  0.39656643836E+02  0.33706970407E+02  0.25248377907E+04  0.25253741661E+04  0.00000000000E+00 0. -1.
         22    1    3    3    0    0 -0.56982724998E+02  0.23512821890E+02  0.12000368732E+03  0.13491022464E+03  0.00000000000E+00 0. -1.
         22    1    3    3    0    0 -0.12362101554E+03  0.23939992735E+02  0.13919295851E+02  0.12668474862E+03  0.00000000000E+00 0. -1.
</event>
<event>
 7    1  0.6999029E-005  0.3326263E+03  0.7818608E-02  0.1280214E+00
          2   -1    0    0  502    0  0.00000000000E+00  0.00000000000E+00  0.19089989076E+04  0.19089989076E+04  0.00000000000E+00 0. -1.
          1   -1    0    0  501    0 -0.00000000000E+00 -0.00000000000E+00 -0.50593470914E+03  0.50593470914E+03  0.00000000000E+00 0. -1.
         25    2    1    2    0    0 -0.74439943489E+01 -0.33448083876E+03 -0.36602975393E+03  0.51140626293E+03  0.12500296176E+03 0.  0.
          2    1    1    2  501    0  0.34528905669E+02  0.32137961660E+03  0.32242921368E+03  0.45654977946E+03  0.00000000000E+00 0. -1.
          1    1    1    2  502    0 -0.27084911320E+02  0.13101222159E+02  0.14466647387E+04  0.14469775743E+04  0.00000000000E+00 0. -1.
         22    1    3    3    0    0 -0.46060248748E+02 -0.64928757543E+02 -0.48969690615E+02  0.93462937413E+02  0.00000000000E+00 0. -1.
         22    1    3    3    0    0  0.38616254400E+02 -0.26955208122E+03 -0.31706006331E+03  0.41794332551E+03  0.00000000000E+00 0. -1.
</event>
<event>
 7    1  0.6999029E-005  0.3528051E+03  0.7818608E-02  0.1190110E+00
          2   -1    0    0  502    0  0.00000000000E+00  0.00000000000E+00  0.25039055756E+04  0.25039055756E+04  0.00000000000E+00 0. -1.
          1   -1    0    0  501    0 -0.00000000000E+00 -0.00000000000E+00 -0.51013460644E+03  0.51013460644E+03  0.00000000000E+00 0. -1.
         25    2    1    2    0    0 -0.38353992681E+03 -0.97671122244E+02  0.46687802645E+03  0.62469332991E+03  0.12499656507E+03 0.  0.
          2    1    1    2  501    0  0.40650912874E+02  0.58742458846E+02 -0.41293186263E+03  0.41906550366E+03  0.00000000000E+00 0. -1.
          1    1    1    2  502    0  0.34288901393E+03  0.38928663398E+02  0.19398248053E+04  0.19702813485E+04  0.00000000000E+00 0. -1.
         22    1    3    3    0    0 -0.27454746505E+03 -0.76188896137E+02  0.41164091586E+03  0.50062890655E+03  0.00000000000E+00 0. -1.
         22    1    3    3    0    0 -0.10899246176E+03 -0.21482226106E+02  0.55237110585E+02  0.12406442336E+03  0.00000000000E+00 0. -1.
</event>
<event>
 7    1  0.6999029E-005  0.9824540E+02  0.7818608E-02  0.1456567E+00
          2   -1    0    0  502    0  0.00000000000E+00  0.00000000000E+00  0.54983772557E+03  0.54983772557E+03  0.00000000000E+00 0. -1.
          1   -1    0    0  501    0 -0.00000000000E+00 -0.00000000000E+00 -0.22954432241E+04  0.22954432241E+04  0.00000000000E+00 0. -1.
         25    2    1    2    0    0 -0.33462696016E+02  0.11127090542E+03 -0.85476596846E+03  0.87163741436E+03  0.12500381936E+03 0.  0.
          2    1    1    2  501    0  0.35819066738E+02 -0.87960379786E+02 -0.14304125751E+04  0.14335620562E+04  0.00000000000E+00 0. -1.
          1    1    1    2  502    0 -0.23563707212E+01 -0.23310525634E+02  0.53957304507E+03  0.54008147909E+03  0.00000000000E+00 0. -1.
         22    1    3    3    0    0 -0.74381068434E+02  0.65549518252E+02 -0.66085848914E+03  0.66825386296E+03  0.00000000000E+00 0.  1.
         22    1    3    3    0    0  0.40918372418E+02  0.45721387168E+02 -0.19390747931E+03  0.20338355140E+03  0.00000000000E+00 0.  1.
</event>
<event>
 7    1  0.6999029E-005  0.1241902E+03  0.7818608E-02  0.1299506E+00
          2   -1    0    0  502    0  0.00000000000E+00  0.00000000000E+00  0.58733478085E+03  0.58733478085E+03  0.00000000000E+00 0. -1.
          1   -1    0    0  501    0 -0.00000000000E+00 -0.00000000000E+00 -0.30673011048E+04  0.30673011048E+04  0.00000000000E+00 0. -1.
         25    2    1    2    0    0  0.39201724249E+02 -0.17735028607E+03  0.25936306498E+03  0.34041845929E+03  0.12500251516E+03 0.  0.
          2    1    1    2  501    0  0.17020709498E+01  0.12395545145E+03 -0.30215501549E+04  0.30240921265E+04  0.00000000000E+00 0. -1.
          1    1    1    2  502    0 -0.40903795199E+02  0.53394834619E+02  0.28222076600E+03  0.29012529981E+03  0.00000000000E+00 0. -1.
         22    1    3    3    0    0 -0.25267605442E+02 -0.11132349675E+03  0.82227877945E+02  0.14068687474E+03  0.00000000000E+00 0.  1.
         22    1    3    3    0    0  0.64469329691E+02 -0.66026789318E+02  0.17713518704E+03  0.19973158455E+03  0.00000000000E+00 0.  1.
</event>
<event>
 7    1  0.6999029E-005  0.9449204E+02  0.7818608E-02  0.1327190E+00
          2   -1    0    0  502    0  0.00000000000E+00  0.00000000000E+00  0.58675648616E+03  0.58675648616E+03  0.00000000000E+00 0. -1.
          1   -1    0    0  501    0 -0.00000000000E+00 -0.00000000000E+00 -0.14891228118E+03  0.14891228118E+03  0.00000000000E+00 0. -1.
         25    2    1    2    0    0 -0.74867163755E+02 -0.40657343397E+02  0.31578019266E+03  0.35014173846E+03  0.12499598054E+03 0.  0.
          2    1    1    2  501    0  0.32188941557E+02 -0.60864226469E+02 -0.10936382868E+03  0.12923246127E+03  0.00000000000E+00 0. -1.
          1    1    1    2  502    0  0.42678222198E+02  0.10152156987E+03  0.23142784099E+03  0.25629456761E+03  0.00000000000E+00 0. -1.
         22    1    3    3    0    0  0.73493507367E+01 -0.13309042357E+02  0.22177793388E+03  0.22229843796E+03  0.00000000000E+00 0. -1.
         22    1    3    3    0    0 -0.82216514492E+02 -0.27348301039E+02  0.94002258782E+02  0.12784330049E+03  0.00000000000E+00 0. -1.
</event>
<event>
 7    1  0.6999029E-005  0.1539207E+03  0.7818608E-02  0.1287914E+00
          2   -1    0    0  502    0  0.00000000000E+00  0.00000000000E+00  0.27669933672E+03  0.27669933672E+03  0.00000000000E+00 0. -1.
          1   -1    0    0  501    0 -0.00000000000E+00 -0.00000000000E+00 -0.30392884122E+03  0.30392884122E+03  0.00000000000E+00 0. -1.
         25    2    1    2    0    0 -0.18735267679E+03 -0.38301306941E+02  0.16144987321E+02  0.22902663448E+03  0.12499809228E+03 0.  0.
          2    1    1    2  501    0  0.56971067018E+02 -0.20224072679E+02 -0.15750416988E+03  0.16870767357E+03  0.00000000000E+00 0. -1.
          1    1    1    2  502    0  0.13038160977E+03  0.58525379620E+02  0.11412967806E+03  0.18289386988E+03  0.00000000000E+00 0. -1.
         22    1    3    3    0    0 -0.65427257148E+02  0.23951020456E+02  0.52667915129E+02  0.87340063217E+02  0.00000000000E+00 0. -1.
         22    1    3    3    0    0 -0.12192541964E+03 -0.62252327397E+02 -0.36522927808E+02  0.14168657126E+03  0.00000000000E+00 0. -1.
</event>
<event>
 7    1  0.6999029E-005  0.5324955E+02  0.7818608E-02  0.1442721E+00
          2   -1    0    0  502    0  0.00000000000E+00  0.00000000000E+00  0.17848373433E+04  0.17848373433E+04  0.00000000000E+00 0. -1.
          1   -1    0    0  501    0 -0.00000000000E+00 -0.00000000000E+00 -0.11633771445E+03  0.11633771445E+03  0.00000000000E+00 0. -1.
         25    2    1    2    0    0  0.21053561612E+02  0.54036932899E+02  0.81823592554E+02  0.16026016169E+03  0.12499990621E+03 0.  0.
          2    1    1    2  501    0 -0.51637971246E+02 -0.17208861877E+02 -0.67125727135E+02  0.86420415672E+02  0.00000000000E+00 0. -1.
          1    1    1    2  502    0  0.30584409634E+02 -0.36828071022E+02  0.16538017634E+04  0.16544944803E+04  0.00000000000E+00 0. -1.
         22    1    3    3    0    0 -0.47239010491E+02  0.13839356499E+02  0.43169814852E+01  0.49413441791E+02  0.00000000000E+00 0. -1.
         22    1    3    3    0    0  0.68292572103E+02  0.40197576400E+02  0.77506611068E+02  0.11084671990E+03  0.00000000000E+00 0. -1.
</event>
<event>
 7    1  0.6999029E-005  0.4599041E+03  0.7818608E-02  0.1140450E+00
          2   -1    0    0  502    0  0.00000000000E+00  0.00000000000E+00  0.71541206655E+03  0.71541206655E+03  0.00000000000E+00 0. -1.
          1   -1    0    0  501    0 -0.00000000000E+00 -0.00000000000E+00 -0.16349576117E+04  0.16349576117E+04  0.00000000000E+00 0. -1.
         25    2    1    2    0    0 -0.37783211835E+03 -0.36817477850E+03 -0.11138175001E+03  0.55347389467E+03  0.12497071922E+03 0.  0.
          2    1    1    2  501    0  0.35545410332E+03  0.27360018490E+03 -0.12585745846E+04  0.13361192558E+04  0.00000000000E+00 0. -1.
          1    1    1    2  502    0  0.22378015027E+02  0.94574593601E+02  0.45041078945E+03  0.46077652779E+03  0.00000000000E+00 0. -1.
         22    1    3    3    0    0 -0.38788827965E+03 -0.35814570062E+03 -0.10814116906E+03  0.53890646016E+03  0.00000000000E+00 0. -1.
         22    1    3    3    0    0  0.10056161297E+02 -0.10029077876E+02 -0.32405809459E+01  0.14567434501E+02  0.00000000000E+00 0. -1.
</event>
<event>
 7    1  0.6999029E-005  0.4259441E+03  0.7818608E-02  0.1222295E+00
          2   -1    0    0  502    0  0.00000000000E+00  0.00000000000E+00  0.45710299448E+03  0.45710299448E+03  0.00000000000E+00 0. -1.
          1   -1    0    0  501    0 -0.00000000000E+00 -0.00000000000E+00 -0.18271387800E+04  0.18271387800E+04  0.00000000000E+00 0. -1.
         25    2    1    2    0    0  0.39222990091E+03  0.65793729302E+01 -0.73952954327E+03  0.84641385065E+03  0.12499951150E+03 0.  0.
          2    1    1    2  501    0  0.38528088559E+02 -0.16383687197E+02 -0.91857623889E+03  0.91952985023E+03  0.00000000000E+00 0. -1.
          1    1    1    2  502    0 -0.43075798947E+03  0.98043142667E+01  0.28806999669E+03  0.51829807357E+03  0.00000000000E+00 0. -1.
         22    1    3    3    0    0  0.12542324403E+03  0.55525951413E+02 -0.30082043908E+03  0.33061617926E+03  0.00000000000E+00 0.  1.
         22    1    3    3    0    0  0.26680665688E+03 -0.48946578482E+02 -0.43870910419E+03  0.51579767138E+03  0.00000000000E+00 0.  1.
</event>
<event>
 7    1  0.6999029E-005  0.1337565E+04  0.7818608E-02  0.1109412E+00
          2   -1    0    0  502    0  0.00000000000E+00  0.00000000000E+00  0.21601798134E+04  0.21601798134E+04  0.00000000000E+00 0. -1.
          1   -1    0    0  501    0 -0.00000000000E+00 -0.00000000000E+00 -0.24791762579E+04  0.24791762579E+04  0.00000000000E+00 0. -1.
         25    2    1    2    0    0  0.80303307969E+03 -0.10715859478E+04  0.46112861411E+03  0.14217675118E+04  0.12499875318E+03 0.  0.
          2    1    1    2  501    0 -0.41121684363E+02 -0.26821726153E+02 -0.16318052134E+04  0.16325436142E+04  0.00000000000E+00 0. -1.
          1    1    1    2  502    0 -0.76191139533E+03  0.10984076740E+04  0.85168015477E+03  0.15850449453E+04  0.00000000000E+00 0. -1.
         22    1    3    3    0    0  0.97366903097E+02 -0.73712402994E+02  0.29735677494E+02  0.12569026490E+03  0.00000000000E+00 0.  1.
         22    1    3    3    0    0  0.70566617660E+03 -0.99787354482E+03  0.43139293662E+03  0.12960772469E+04  0.00000000000E+00 0.  1.
</event>
<event>
 7    1  0.6999029E-005  0.4305369E+03  0.7818608E-02  0.1183110E+00
          2   -1    0    0  502    0  0.00000000000E+00  0.00000000000E+00  0.56024110662E+03  0.56024110662E+03  0.00000000000E+00 0. -1.
          1   -1    0    0  501    0 -0.00000000000E+00 -0.00000000000E+00 -0.23857332054E+04  0.23857332054E+04  0.00000000000E+00 0. -1.
         25    2    1    2    0    0  0.38847304017E+03 -0.17848818500E+03  0.31229955655E+03  0.54399016728E+03  0.12499981579E+03 0.  0.
          2    1    1    2  501    0  0.36603141934E+02  0.51612073438E+02 -0.18954339412E+04  0.18964897631E+04  0.00000000000E+00 0. -1.
          1    1    1    2  502    0 -0.42507618210E+03  0.12687611156E+03 -0.24235771416E+03  0.50549438166E+03  0.00000000000E+00 0. -1.
         22    1    3    3    0    0  0.28266857189E+03 -0.16882083621E+03  0.18315789074E+03  0.37676094438E+03  0.00000000000E+00 0.  1.
         22    1    3    3    0    0  0.10580446828E+03 -0.96673487944E+01  0.12914166582E+03  0.16722922289E+03  0.00000000000E+00 0.  1.
</event>
<event>
 7    1  0.6999029E-005  0.8366361E+02  0.7818608E-02  0.1476593E+00
          2   -1    0    0  502    0  0.00000000000E+00  0.00000000000E+00  0.96384983249E+03  0.96384983249E+03  0.00000000000E+00 0. -1.
          1   -1    0    0  501    0 -0.00000000000E+00 -0.00000000000E+00 -0.99496373878E+02  0.99496373878E+02  0.00000000000E+00 0. -1.
         25    2    1    2    0    0 -0.85222884586E+01 -0.60046422053E+02  0.23022657758E+02  0.14083038543E+03  0.12499980995E+03 0.  0.
          2    1    1    2  501    0 -0.41888516972E+01 -0.23448636014E+02 -0.34883649906E+02  0.42240431345E+02  0.00000000000E+00 0. -1.
          1    1    1    2  502    0  0.12711140156E+02  0.83495058067E+02  0.87621445076E+03  0.88027538960E+03  0.00000000000E+00 0. -1.
         22    1    3    3    0    0  0.16227364655E+02  0.31549698812E+02 -0.15124964771E+02  0.38567802869E+02  0.00000000000E+00 0. -1.
         22    1    3    3    0    0 -0.24749653114E+02 -0.91596120865E+02  0.38147622529E+02  0.10226258256E+03  0.00000000000E+00 0. -1.
</event>
<event>
 7    1  0.6999029E-005  0.1240122E+04  0.7818608E-02  0.1104036E+00
          2   -1    0    0  502    0  0.00000000000E+00  0.00000000000E+00  0.10902663673E+04  0.10902663673E+04  0.00000000000E+00 0. -1.
          1   -1    0    0  501    0 -0.00000000000E+00 -0.00000000000E+00 -0.18160341567E+04  0.18160341567E+04  0.00000000000E+00 0. -1.
         25    2    1    2    0    0 -0.11680568490E+04  0.49562589576E+03 -0.18000984835E+03  0.12876453274E+04  0.12500045113E+03 0.  0.
          2    1    1    2  501    0  0.55452429062E+02 -0.11969662048E+02 -0.39163443003E+03  0.39572183599E+03  0.00000000000E+00 0. -1.
          1    1    1    2  502    0  0.11126044199E+04 -0.48365623371E+03 -0.15412351105E+03  0.12229333605E+04  0.00000000000E+00 0. -1.
         22    1    3    3    0    0 -0.10732282772E+04  0.42665242392E+03 -0.13824181395E+03  0.11631689580E+04  0.00000000000E+00 0.  1.
         22    1    3    3    0    0 -0.94828571804E+02  0.68973471840E+02 -0.41768034396E+02  0.12447636943E+03  0.00000000000E+00 0.  1.
</event>
<event>
 7    1  0.6999029E-005  0.2874954E+03  0.7818608E-02  0.1215574E+00
          2   -1    0    0  502    0  0.00000000000E+00  0.00000000000E+00  0.30744767886E+03  0.30744767886E+03  0.00000000000E+00 0. -1.
          1   -1    0    0  501    0 -0.00000000000E+00 -0.00000000000E+00 -0.17508101158E+04  0.17508101158E+04  0.00000000000E+00 0. -1.
         25    2    1    2    0    0  0.19986724333E+03 -0.18532451446E+03 -0.72106978212E+03  0.78093526892E+03  0.12500469171E+03 0.  0.
          2    1    1    2  501    0 -0.17369925413E+03  0.24653819388E+03 -0.97261513536E+03  0.10182989313E+04  0.00000000000E+00 0. -1.
          1    1    1    2  502    0 -0.26167989198E+02 -0.61213679419E+02  0.25032248055E+03  0.25902359444E+03  0.00000000000E+00 0. -1.
         22    1    3    3    0    0  0.18325491684E+02  0.91956876484E+01 -0.12398107505E+02  0.23960329432E+02  0.00000000000E+00 0.  1.
         22    1    3    3    0    0  0.18154175164E+03 -0.19452020211E+03 -0.70867167461E+03  0.75697493949E+03  0.00000000000E+00 0.  1.
</event>
<event>
 7    1  0.6999029E-005  0.1964128E+03  0.7818608E-02  0.1231001E+00
          2   -1    0    0  502    0  0.00000000000E+00  0.00000000000E+00  0.17683814343E+04  0.17683814343E+04  0.00000000000E+00 0. -1.
          1   -1    0    0  501    0 -0.00000000000E+00 -0.00000000000E+00 -0.14779989258E+04  0.14779989258E+04  0.00000000000E+00 0. -1.
         25    2    1    2    0    0 -0.19172257004E+03 -0.90716133425E+02  0.37081503831E+03  0.44510387177E+03  0.12500681301E+03 0.  0.
          2    1    1    2  501    0  0.61372567959E+02 -0.55800149000E+02 -0.14325812836E+04  0.14349806211E+04  0.00000000000E+00 0. -1.
          1    1    1    2  502    0  0.13035000208E+03  0.14651628243E+03  0.13521487539E+04  0.13662958672E+04  0.00000000000E+00 0. -1.
         22    1    3    3    0    0 -0.15747800743E+03 -0.97865473321E+02  0.36533968239E+03  0.40969507835E+03  0.00000000000E+00 0.  1.
         22    1    3    3    0    0 -0.34244562605E+02  0.71493398958E+01  0.54753559202E+01  0.35408793420E+02  0.00000000000E+00 0.  1.
</event>
<event>
 7    1  0.6999029E-005  0.1224015E+04  0.7818608E-02  0.1086629E+00
          2   -1    0    0  502    0  0.00000000000E+00  0.00000000000E+00  0.30469472515E+04  0.30469472515E+04  0.00000000000E+00 0. -1.
          1   -1    0    0  501    0 -0.00000000000E+00 -0.00000000000E+00 -0.16870385008E+04  0.16870385008E+04  0.00000000000E+00 0. -1.
         25    2    1    2    0    0 -0.10600001578E+04  0.52861456279E+03 -0.37842156529E+02  0.11916755091E+04  0.12499919933E+03 0.  0.
          2    1    1    2  501    0  0.11026872217E+04 -0.58682124950E+03 -0.70767527587E+03  0.14356470958E+04  0.00000000000E+00 0. -1.
          1    1    1    2  502    0 -0.42687063926E+02  0.58206686705E+02  0.21054261831E+04  0.21066631473E+04  0.00000000000E+00 0. -1.
         22    1    3    3    0    0 -0.57241035965E+03  0.34554478831E+03 -0.52169753676E+02  0.67065378830E+03  0.00000000000E+00 0. -1.
         22    1    3    3    0    0 -0.48758979811E+03  0.18306977448E+03  0.14327597147E+02  0.52102172084E+03  0.00000000000E+00 0. -1.
</event>
<event>
 7    1  0.6999029E-005  0.6107162E+02  0.7818608E-02  0.1521457E+00
          2   -1    0    0  502    0  0.00000000000E+00  0.00000000000E+00  0.73765646551E+03  0.73765646551E+03  0.00000000000E+00 0. -1.
          1   -1    0    0  501    0 -0.00000000000E+00 -0.00000000000E+00 -0.24915463775E+02  0.24915463775E+02  0.00000000000E+00 0. -1.
         25    2    1    2    0    0  0.43902335239E+02 -0.21956812973E+02  0.25071150479E+03  0.28441827259E+03  0.12501191333E+03 0.  0.
          2    1    1    2  501    0 -0.73091324002E+00 -0.23952089287E+02  0.18776631063E+02  0.30443368563E+02  0.00000000000E+00 0. -1.
          1    1    1    2  502    0 -0.43171421999E+02  0.45908902261E+02  0.44325286588E+03  0.44771028813E+03  0.00000000000E+00 0. -1.
         22    1    3    3    0    0  0.65323575858E+02 -0.58047997439E+02  0.13020375327E+03  0.15681121431E+03  0.00000000000E+00 0. -1.
         22    1    3    3    0    0 -0.21421240620E+02  0.36091184465E+02  0.12050775152E+03  0.12760705828E+03  0.00000000000E+00 0. -1.
</event>
<event>
 7    1  0.6999029E-005  0.2889870E+03  0.7818608E-02  0.1249007E+00
          2   -1    0    0  502    0  0.00000000000E+00  0.00000000000E+00  0.21135091551E+03  0.21135091551E+03  0.00000000000E+00 0. -1.
          1   -1    0    0  501    0 -0.00000000000E+00 -0.00000000000E+00 -0.12845520902E+04  0.12845520902E+04  0.00000000000E+00 0. -1.
         25    2    1    2    0    0 -0.41762707274E+02  0.32774771965E+03 -0.62735729207E+02  0.35877984304E+03  0.12499805038E+03 0.  0.
          2    1    1    2  501    0  0.31451110047E+02 -0.28193950174E+03 -0.10424162732E+04  0.10803289970E+04  0.00000000000E+00 0. -1.
          1    1    1    2  502    0  0.10311597227E+02 -0.45808217904E+02  0.31950827753E+02  0.56794165713E+02  0.00000000000E+00 0. -1.
         22    1    3    3    0    0 -0.62513001762E+02  0.74720252609E+02 -0.65975205210E+00  0.97423953995E+02  0.00000000000E+00 0. -1.
         22    1    3    3    0    0  0.20750294488E+02  0.25302746704E+03 -0.62075977155E+02  0.26135588904E+03  0.00000000000E+00 0. -1.
</event>
<event>
 7    1  0.6999029E-005  0.1901472E+03  0.7818608E-02  0.1234446E+00
          2   -1    0    0  502    0  0.00000000000E+00  0.00000000000E+00  0.31971608265E+04  0.31971608265E+04  0.00000000000E+00 0. -1.
          1   -1    0    0  501    0 -0.00000000000E+00 -0.00000000000E+00 -0.17034146485E+04  0.17034146485E+04  0.00000000000E+00 0. -1.
         25    2    1    2    0    0 -0.10900815131E+03 -0.24159694333E+03  0.13544069022E+04  0.13857479512E+04  0.12500986932E+03 0.  0.
          2    1    1    2  501    0  0.50669940429E+02  0.18298116410E+03 -0.16814627044E+04  0.16921484496E+04  0.00000000000E+00 0. -1.
          1    1    1    2  502    0  0.58338210885E+02  0.58615779228E+02  0.18208019802E+04  0.18226790742E+04  0.00000000000E+00 0. -1.
         22    1    3    3    0    0 -0.13399890767E+02 -0.39845033472E+01  0.10068330569E+02  0.17228018457E+02  0.00000000000E+00 0.  1.
         22    1    3    3    0    0 -0.95608260547E+02 -0.23761243998E+03  0.13443385716E+04  0.13685199327E+04  0.00000000000E+00 0.  1.
</event>
<event>
 7    1  0.6999029E-005  0.3246709E+03  0.7818608E-02  0.1123729E+00
          2   -1    0    0  502    0  0.00000000000E+00  0.00000000000E+00  0.15871950156E+04  0.15871950156E+04  0.00000000000E+00 0. -1.
          1   -1    0    0  501    0 -0.00000000000E+00 -0.00000000000E+00 -0.10181544570E+04  0.10181544570E+04  0.00000000000E+00 0. -1.
         25    2    1    2    0    0 -0.44547791745E+01 -0.48106159132E+03  0.88877421074E+03  0.10183245116E+04  0.12500045418E+03 0.  0.
          2    1    1    2  501    0  0.45145890064E+02  0.31711996836E+03 -0.91437502032E+03  0.96885752487E+03  0.00000000000E+00 0. -1.
          1    1    1    2  502    0 -0.40691110889E+02  0.16394162297E+03  0.59464136823E+03  0.61816743610E+03  0.00000000000E+00 0. -1.
         22    1    3    3    0    0 -0.19029598512E+02 -0.39470266021E+03  0.61615715941E+03  0.73198494567E+03  0.00000000000E+00 0. -1.
         22    1    3    3    0    0  0.14574819338E+02 -0.86358931118E+02  0.27261705132E+03  0.28633956593E+03  0.00000000000E+00 0. -1.
</event>
<event>
 7    1  0.6999029E-005  0.1385894E+03  0.7818608E-02  0.1331173E+00
          2   -1    0    0  502    0  0.00000000000E+00  0.00000000000E+00  0.88392588002E+03  0.88392588002E+03  0.00000000000E+00 0. -1.
          1   -1    0    0  501    0 -0.00000000000E+00 -0.00000000000E+00 -0.17990012360E+03  0.17990012360E+03  0.00000000000E+00 0. -1.
         25    2    1    2    0    0 -0.56586077586E+02 -0.99435507624E+02  0.49003887495E+02  0.17639685109E+03  0.12500025493E+03 0.  0.
          2    1    1    2  501    0  0.44514381055E+02  0.14312430064E+03 -0.66861937253E+02  0.16412377710E+03  0.00000000000E+00 0. -1.
          1    1    1    2  502    0  0.12071696531E+02 -0.43688793018E+02  0.72188380619E+03  0.72330537543E+03  0.00000000000E+00 0. -1.
         22    1    3    3    0    0 -0.11439674794E+02 -0.10195558622E+03 -0.88418020270E+01  0.10297565335E+03  0.00000000000E+00 0.  1.
         22    1    3    3    0    0 -0.45146402792E+02  0.25200785944E+01  0.57845689522E+02  0.73421197739E+02  0.00000000000E+00 0.  1.
</event>
<event>
 7    1  0.6999029E-005  0.3913988E+03  0.7818608E-02  0.1244559E+00
          2   -1    0    0  502    0  0.00000000000E+00  0.00000000000E+00  0.21013022980E+04  0.21013022980E+04  0.00000000000E+00 0. -1.
          1   -1    0    0  501    0 -0.00000000000E+00 -0.00000000000E+00 -0.36816620432E+03  0.36816620432E+03  0.00000000000E+00 0. -1.
         25    2    1    2    0    0 -0.38863850292E+03  0.11606199640E+03 -0.61358275497E+02  0.42883922957E+03  0.12501189498E+03 0.  0.
          2    1    1    2  501    0  0.35265225219E+03 -0.11167848071E+03  0.15555536363E+03  0.40128937835E+03  0.00000000000E+00 0. -1.
          1    1    1    2  502    0  0.35986250733E+02 -0.43835156906E+01  0.16389390056E+04  0.16393398944E+04  0.00000000000E+00 0. -1.
         22    1    3    3    0    0 -0.64627043458E+02  0.34557360604E+02 -0.60026040696E+02  0.94731153691E+02  0.00000000000E+00 0. -1.
         22    1    3    3    0    0 -0.32401145946E+03  0.81504635794E+02 -0.13322348010E+01  0.33410807588E+03  0.00000000000E+00 0. -1.
</event>
<event>
 7    1  0.6999029E-005  0.1836643E+03  0.7818608E-02  0.1298604E+00
          2   -1    0    0  502    0  0.00000000000E+00  0.00000000000E+00  0.95400386679E+03  0.95400386679E+03  0.00000000000E+00 0. -1.
          1   -1    0    0  501    0 -0.00000000000E+00 -0.00000000000E+00 -0.92545750129E+02  0.92545750129E+02  0.00000000000E+00 0. -1.
         25    2    1    2    0    0  0.48797238357E+02 -0.18607988976E+03  0.24403374659E+03  0.33494464701E+03  0.12501420417E+03 0.  0.
          2    1    1    2  501    0  0.38013817453E+02  0.25655690960E+02 -0.18936899564E+02  0.49617244593E+02  0.00000000000E+00 0. -1.
          1    1    1    2  502    0 -0.86811055809E+02  0.16042419880E+03  0.63636126964E+03  0.66198772531E+03  0.00000000000E+00 0. -1.
         22    1    3    3    0    0  0.77318255372E+02 -0.18445657526E+03  0.22243402650E+03  0.29913080235E+03  0.00000000000E+00 0. -1.
         22    1    3    3    0    0 -0.28521017015E+02 -0.16233144973E+01  0.21599720090E+02  0.35813844663E+02  0.00000000000E+00 0. -1.
</event>
<event>
 7    1  0.6999029E-005  0.8936573E+03  0.7818608E-02  0.1206114E+00
          2   -1    0    0  502    0  0.00000000000E+00  0.00000000000E+00  0.64632997037E+03  0.64632997037E+03  0.00000000000E+00 0. -1.
          1   -1    0    0  501    0 -0.00000000000E+00 -0.00000000000E+00 -0.16734724521E+04  0.16734724521E+04  0.00000000000E+00 0. -1.
         25    2    1    2    0    0 -0.89970386131E+03  0.34888352311E+00 -0.69968928058E+03  0.11465847639E+04  0.12499748637E+03 0.  0.
          2    1    1    2  501    0  0.92897782461E+01 -0.21791995530E+02 -0.28029877356E+03  0.28129805102E+03  0.00000000000E+00 0. -1.
          1    1    1    2  502    0  0.89041408307E+03  0.21443112007E+02 -0.47154427612E+02  0.89191960760E+03  0.00000000000E+00 0. -1.
         22    1    3    3    0    0 -0.11350533951E+03 -0.65564996851E+01 -0.40869425422E+02  0.12081705061E+03  0.00000000000E+00 0.  1.
         22    1    3    3    0    0 -0.78619852181E+03  0.69053832082E+01 -0.65881985516E+03  0.10257677133E+04  0.00000000000E+00 0.  1.
</event>
<event>
 7    1  0.6999029E-005  0.7948579E+03  0.7818608E-02  0.1083295E+00
          2   -1    0    0  502    0  0.00000000000E+00  0.00000000000E+00  0.15267636299E+04  0.15267636299E+04  0.00000000000E+00 0. -1.
          1   -1    0    0  501    0 -0.00000000000E+00 -0.00000000000E+00 -0.14101656568E+04  0.14101656568E+04  0.00000000000E+00 0. -1.
         25    2    1    2    0    0  0.73682290775E+03 -0.30706556856E+03  0.27263092690E+03  0.85273120367E+03  0.12500249047E+03 0.  0.
          2    1    1    2  501    0  0.34639723682E+02  0.11092676818E+03 -0.95166865235E+03  0.95873765036E+03  0.00000000000E+00 0. -1.
          1    1    1    2  502    0 -0.77146263143E+03  0.19613880038E+03  0.79563569859E+03  0.11254604327E+04  0.00000000000E+00 0. -1.
         22    1    3    3    0    0  0.72710718180E+03 -0.29983820039E+03  0.24698809252E+03  0.82437304546E+03  0.00000000000E+00 0. -1.
         22    1    3    3    0    0  0.97157259489E+01 -0.72273681742E+01  0.25642834388E+02  0.28358158207E+02  0.00000000000E+00 0. -1.
</event>
<event>
 7    1  0.6999029E-005  0.5600089E+02  0.7818608E-02  0.1434963E+00
          2   -1    0    0  502    0  0.00000000000E+00  0.00000000000E+00  0.98197298007E+03  0.98197298007E+03  0.00000000000E+00 0. -1.
          1   -1    0    0  501    0 -0.00000000000E+00 -0.00000000000E+00 -0.23755517763E+02  0.23755517763E+02  0.00000000000E+00 0. -1.
         25    2    1    2    0    0 -0.14821723180E+02 -0.68817491161E+01  0.39921382273E+03  0.41864530465E+03  0.12500069157E+03 0.  0.
          2    1    1    2  501    0  0.48493681871E+02  0.41428121949E+02  0.66207011242E+02  0.91930924108E+02  0.00000000000E+00 0. -1.
          1    1    1    2  502    0 -0.33671958692E+02 -0.34546372833E+02  0.49279662833E+03  0.49515226907E+03  0.00000000000E+00 0. -1.
         22    1    3    3    0    0  0.19081293571E+02  0.38626694335E+02  0.30953822377E+03  0.31252204603E+03  0.00000000000E+00 0.  1.
         22    1    3    3    0    0 -0.33903016751E+02 -0.45508443451E+02  0.89675598959E+02  0.10612325861E+03  0.00000000000E+00 0.  1.
</event>
<event>
 7    1  0.6999029E-005  0.2788301E+03  0.7818608E-02  0.1196459E+00
          2   -1    0    0  502    0  0.00000000000E+00  0.00000000000E+00  0.17274693225E+04  0.17274693225E+04  0.00000000000E+00 0. -1.
          1   -1    0    0  501    0 -0.00000000000E+00 -0.00000000000E+00 -0.43282720312E+03  0.43282720312E+03  0.00000000000E+00 0. -1.
         25    2    1    2    0    0  0.15420172388E+03  0.19475164660E+03  0.56641231034E+03  0.63099470549E+03  0.12500015023E+03 0.  0.
          2    1    1    2  501    0 -0.29511090479E+02  0.78965059242E+02 -0.37574555653E+03  0.38508584536E+03  0.00000000000E+00 0. -1.
          1    1    1    2  502    0 -0.12469063340E+03 -0.27371670584E+03  0.11039753656E+04  0.11442159747E+04  0.00000000000E+00 0. -1.
         22    1    3    3    0    0  0.50055911864E+02  0.12111377322E+03  0.17051029001E+03  0.21505324777E+03  0.00000000000E+00 0.  1.
         22    1    3    3    0    0  0.10414581202E+03  0.73637873380E+02  0.39590202033E+03  0.41594145773E+03  0.00000000000E+00 0.  1.
</event>
<event>
 7    1  0.6999029E-005  0.6019716E+02  0.7818608E-02  0.1453200E+00
          2   -1    0    0  502    0  0.00000000000E+00  0.00000000000E+00  0.65448316590E+03  0.65448316590E+03  0.00000000000E+00 0. -1.
          1   -1    0    0  501    0 -0.00000000000E+00 -0.00000000000E+00 -0.42185636082E+02  0.42185636082E+02  0.00000000000E+00 0. -1.
         25    2    1    2    0    0  0.56273182074E+02  0.76947255871E+02  0.55206964392E+03  0.57401854478E+03  0.12501538629E+03 0.  0.
          2    1    1    2  501    0 -0.41562058592E+02 -0.40621314199E+02  0.10046903983E+02  0.58978268551E+02  0.00000000000E+00 0. -1.
          1    1    1    2  502    0 -0.14711123482E+02 -0.36325941671E+02  0.50180981917E+02  0.63671988650E+02  0.00000000000E+00 0. -1.
         22    1    3    3    0    0  0.83794310691E+02  0.93080420680E+02  0.44681728065E+03  0.46403785784E+03  0.00000000000E+00 0. -1.
         22    1    3    3    0    0 -0.27521128617E+02 -0.16133164809E+02  0.10525236327E+03  0.10998068694E+03  0.00000000000E+00 0. -1.
</event>
<event>
 7    1  0.6999029E-005  0.1918908E+03  0.7818608E-02  0.1225306E+00
          2   -1    0    0  502    0  0.00000000000E+00  0.00000000000E+00  0.11371384540E+04  0.11371384540E+04  0.00000000000E+00 0. -1.
          1   -1    0    0  501    0 -0.00000000000E+00 -0.00000000000E+00 -0.13577643614E+04  0.13577643614E+04  0.00000000000E+00 0. -1.
         25    2    1    2    0    0 -0.16089132193E+03 -0.22772693211E+03  0.10078088373E+03  0.32175753176E+03  0.12500219851E+03 0.  0.
          2    1    1    2  501    0  0.11275738645E+03  0.15160965895E+03 -0.12379007014E+04  0.12522371435E+04  0.00000000000E+00 0. -1.
          1    1    1    2  502    0  0.48133935483E+02  0.76117273168E+02  0.91649391031E+03  0.92090814019E+03  0.00000000000E+00 0. -1.
         22    1    3    3    0    0 -0.13100038657E+03 -0.11465119197E+03  0.10750386094E+03  0.20460468523E+03  0.00000000000E+00 0. -1.
         22    1    3    3    0    0 -0.29890935357E+02 -0.11307574015E+03 -0.67229772070E+01  0.11715284653E+03  0.00000000000E+00 0. -1.
</event>
<event>
 7    1  0.6999029E-005  0.2846183E+03  0.7818608E-02  0.1109551E+00
          2   -1    0    0  502    0  0.00000000000E+00  0.00000000000E+00  0.93184337365E+03  0.93184337365E+03  0.00000000000E+00 0. -1.
          1   -1    0    0  501    0 -0.00000000000E+00 -0.00000000000E+00 -0.27042690863E+04  0.27042690863E+04  0.00000000000E+00 0. -1.
         25    2    1    2    0    0  0.15592011720E+03 -0.47315118135E+03  0.41984615932E+03  0.66338426574E+03  0.12499905267E+03 0.  0.
          2    1    1    2  501    0 -0.30375618351E+02  0.28005941291E+03 -0.25400376008E+04  0.25556108793E+04  0.00000000000E+00 0. -1.
          1    1    1    2  502    0 -0.12554449885E+03  0.19309176844E+03  0.34776572884E+03  0.41711731490E+03  0.00000000000E+00 0. -1.
         22    1    3    3    0    0  0.14546217781E+02 -0.23724963005E+03  0.17504403253E+03  0.29519382232E+03  0.00000000000E+00 0. -1.
         22    1    3    3    0    0  0.14137389942E+03 -0.23590155130E+03  0.24480212679E+03  0.36819044342E+03  0.00000000000E+00 0. -1.
</event>
<event>
 7    1  0.6999029E-005  0.2822975E+03  0.7818608E-02  0.1228991E+00
          2   -1    0    0  502    0  0.00000000000E+00  0.00000000000E+00  0.34279357606E+04  0.34279357606E+04  0.00000000000E+00 0. -1.
          1   -1    0    0  501    0 -0.00000000000E+00 -0.00000000000E+00 -0.48881203958E+03  0.48881203958E+03  0.00000000000E+00 0. -1.
         25    2    1    2    0    0 -0.27203619467E+03 -0.57050721531E+02  0.30752807410E+04  0.30903455926E+04  0.12500307993E+03 0.  0.
          2    1    1    2  501    0 -0.55168375766E+02  0.20694145528E+02 -0.40011639667E+03  0.40443161132E+03  0.00000000000E+00 0. -1.
          1    1    1    2  502    0  0.32720457044E+03  0.36356576003E+02  0.26395937671E+03  0.42197059624E+03  0.00000000000E+00 0. -1.
         22    1    3    3    0    0 -0.35229356304E+02 -0.22900957338E+02  0.16570962065E+03  0.17095391124E+03  0.00000000000E+00 0.  1.
         22    1    3    3    0    0 -0.23680683837E+03 -0.34149764193E+02  0.29095711203E+04  0.29193916814E+04  0.00000000000E+00 0.  1.
</event>
<event>
 7    1  0.6999029E-005  0.1019014E+04  0.7818608E-02  0.1181249E+00
          2   -1    0    0  502    0  0.00000000000E+00  0.00000000000E+00  0.31419401313E+04  0.31419401313E+04  0.00000000000E+00 0. -1.
          1   -1    0    0  501    0 -0.00000000000E+00 -0.00000000000E+00 -0.43197472886E+03  0.43197472886E+03  0.00000000000E+00 0. -1.
         25    2    1    2    0    0 -0.78883868414E+03 -0.62507770885E+03  0.89332060531E+03  0.13515304986E+04  0.12499749187E+03 0.  0.
          2    1    1    2  501    0  0.81091288963E+03  0.64113432906E+03  0.11160185686E+04  0.15212266063E+04  0.00000000000E+00 0. -1.
          1    1    1    2  502    0 -0.22074205487E+02 -0.16056620203E+02  0.70062622856E+03  0.70115775525E+03  0.00000000000E+00 0. -1.
         22    1    3    3    0    0 -0.38832521805E+03 -0.27967648469E+03  0.50250534307E+03  0.69392148754E+03  0.00000000000E+00 0. -1.
         22    1    3    3    0    0 -0.40051346609E+03 -0.34540122416E+03  0.39081526224E+03  0.65760901102E+03  0.00000000000E+00 0. -1.
</event>
<event>
 7    1  0.6999029E-005  0.6201813E+03  0.7818608E-02  0.1010637E+00
          2   -1    0    0  502    0  0.00000000000E+00  0.00000000000E+00  0.26116177639E+04  0.26116177639E+04  0.00000000000E+00 0. -1.
          1   -1    0    0  501    0 -0.00000000000E+00 -0.00000000000E+00 -0.42040018230E+03  0.42040018230E+03  0.00000000000E+00 0. -1.
         25    2    1    2    0    0  0.83745454122E+02 -0.75749157893E+03  0.11006258857E+04  0.13445479967E+04  0.12500072717E+03 0.  0.
          2    1    1    2  501    0  0.27828247422E+03  0.53860770142E+03  0.10547707561E+03  0.61535746112E+03  0.00000000000E+00 0. -1.
          1    1    1    2  502    0 -0.36202792834E+03  0.21888387751E+03  0.98511462030E+03  0.10721124884E+04  0.00000000000E+00 0. -1.
         22    1    3    3    0    0  0.39316802663E+02 -0.28985172847E+03  0.53081525909E+03  0.60607315957E+03  0.00000000000E+00 0. -1.
         22    1    3    3    0    0  0.44428651458E+02 -0.46763985046E+03  0.56981062665E+03  0.73847483712E+03  0.00000000000E+00 0. -1.
</event>
<event>
 7    1  0.6999029E-005  0.5758714E+03  0.7818608E-02  0.1167499E+00
          2   -1    0    0  502    0  0.00000000000E+00  0.00000000000E+00  0.15838998189E+04  0.15838998189E+04  0.00000000000E+00 0. -1.
          1   -1    0    0  501    0 -0.00000000000E+00 -0.00000000000E+00 -0.16696733678E+04  0.16696733678E+04  0.00000000000E+00 0. -1.
         25    2    1    2    0    0 -0.13339942560E+03  0.57689976551E+03  0.11090117547E+04  0.12633850102E+04  0.12500346263E+03 0.  0.
          2    1    1    2  501    0 -0.16164427237E+01 -0.56436407854E+02 -0.14099242231E+04  0.14110542144E+04  0.00000000000E+00 0. -1.
          1    1    1    2  502    0  0.13501586833E+03 -0.52046335766E+03  0.21513891957E+03  0.57913396212E+03  0.00000000000E+00 0. -1.
         22    1    3    3    0    0  0.10239114897E+02  0.70078330291E+02  0.76463033134E+02  0.10422287314E+03  0.00000000000E+00 0.  1.
         22    1    3    3    0    0 -0.14363854050E+03  0.50682143522E+03  0.10325487216E+04  0.11591621370E+04  0.00000000000E+00 0.  1.
</event>
<event>
 7    1  0.6999029E-005  0.9267301E+02  0.7818608E-02  0.1341026E+00
          2   -1    0    0  502    0  0.00000000000E+00  0.00000000000E+00  0.68374497735E+03  0.68374497735E+03  0.00000000000E+00 0. -1.
          1   -1    0    0  501    0 -0.00000000000E+00 -0.00000000000E+00 -0.10418942366E+03  0.10418942366E+03  0.00000000000E+00 0. -1.
         25    2    1    2    0    0  0.36142623657E+02  0.18910294736E+02  0.85885960667E+02  0.15706480129E+03  0.12501625923E+03 0.  0.
          2    1    1    2  501    0  0.32839583212E+02  0.52831184481E+02 -0.48976288938E+02  0.79172275181E+02  0.00000000000E+00 0. -1.
          1    1    1    2  502    0 -0.68982206869E+02 -0.71741479217E+02  0.54264588196E+03  0.55169732455E+03  0.00000000000E+00 0. -1.
         22    1    3    3    0    0 -0.93903790102E+01 -0.23839995246E+02  0.90866335407E+02  0.94409827357E+02  0.00000000000E+00 0.  1.
         22    1    3    3    0    0  0.45533002667E+02  0.42750289982E+02 -0.49803747400E+01  0.62654973928E+02  0.00000000000E+00 0.  1.
</event>
<event>
 7    1  0.6999029E-005  0.4397018E+03  0.7818608E-02  0.1091100E+00
          2   -1    0    0  502    0  0.00000000000E+00  0.00000000000E+00  0.13213591369E+04  0.13213591369E+04  0.00000000000E+00 0. -1.
          1   -1    0    0  501    0 -0.00000000000E+00 -0.00000000000E+00 -0.16993497824E+04  0.16993497824E+04  0.00000000000E+00 0. -1.
         25    2    1    2    0    0 -0.13376955833E+03 -0.36590807450E+03  0.63894136242E+03  0.75871750698E+03  0.12499270807E+03 0.  0.
          2    1    1    2  501    0 -0.16222985096E+03 -0.97702303412E+02 -0.15108854471E+04  0.15227078180E+04  0.00000000000E+00 0. -1.
          1    1    1    2  502    0  0.29599940929E+03  0.46361037791E+03  0.49395343918E+03  0.73928359436E+03  0.00000000000E+00 0. -1.
         22    1    3    3    0    0 -0.14306265265E+03 -0.36051699043E+03  0.57315285146E+03  0.69205752226E+03  0.00000000000E+00 0. -1.
         22    1    3    3    0    0  0.92930943230E+01 -0.53910840693E+01  0.65788510954E+02  0.66659984722E+02  0.00000000000E+00 0. -1.
</event>
<event>
 7    1  0.6999029E-005  0.5452915E+03  0.7818608E-02  0.1142656E+00
          2   -1    0    0  502    0  0.00000000000E+00  0.00000000000E+00  0.57916764490E+03  0.57916764490E+03  0.00000000000E+00 0. -1.
          1   -1    0    0  501    0 -0.00000000000E+00 -0.00000000000E+00 -0.10065296276E+04  0.10065296276E+04  0.00000000000E+00 0. -1.
         25    2    1    2    0    0  0.10181499188E+03 -0.55951856453E+03 -0.50039961906E+03  0.76775878353E+03  0.12500581705E+03 0.  0.
          2    1    1    2  501    0 -0.14728599538E+03  0.49391421849E+03 -0.18518044756E+03  0.54766432952E+03  0.00000000000E+00 0. -1.
          1    1    1    2  502    0  0.45471003498E+02  0.65604346035E+02  0.25821808395E+03  0.27027415943E+03  0.00000000000E+00 0. -1.
         22    1    3    3    0    0 -0.27074035940E+02 -0.14779565928E+03 -0.14479831073E+03  0.20866986154E+03  0.00000000000E+00 0.  1.
         22    1    3    3    0    0  0.12888902782E+03 -0.41172290525E+03 -0.35560130833E+03  0.55908892199E+03  0.00000000000E+00 0.  1.
</event>
<event>
 7    1  0.6999029E-005  0.2301450E+03  0.7818608E-02  0.1286271E+00
          2   -1    0    0  502    0  0.00000000000E+00  0.00000000000E+00  0.99829073800E+02  0.99829073800E+02  0.00000000000E+00 0. -1.
          1   -1    0    0  501    0 -0.00000000000E+00 -0.00000000000E+00 -0.15700552350E+04  0.15700552350E+04  0.00000000000E+00 0. -1.
         25    2    1    2    0    0 -0.71494407151E+02  0.22894885935E+03 -0.69300817268E+03  0.74391867997E+03  0.12500257823E+03 0.  0.
          2    1    1    2  501    0 -0.32233955481E+02 -0.25436943324E+02 -0.67409482332E+03  0.67534428020E+03  0.00000000000E+00 0. -1.
          1    1    1    2  502    0  0.10372836263E+03 -0.20351191602E+03 -0.10312316517E+03  0.25062134860E+03  0.00000000000E+00 0. -1.
         22    1    3    3    0    0 -0.86921762580E+02  0.96371266051E+02 -0.42725637833E+03  0.44653199948E+03  0.00000000000E+00 0.  1.
         22    1    3    3    0    0  0.15427355429E+02  0.13257759329E+03 -0.26575179434E+03  0.29738668050E+03  0.00000000000E+00 0.  1.
</event>
<event>
 7    1  0.6999029E-005  0.6921576E+02  0.7818608E-02  0.1372520E+00
          2   -1    0    0  502    0  0.00000000000E+00  0.00000000000E+00  0.22400389094E+03  0.22400389094E+03  0.00000000000E+00 0. -1.
          1   -1    0    0  501    0 -0.00000000000E+00 -0.00000000000E+00 -0.11028645500E+04  0.11028645500E+04  0.00000000000E+00 0. -1.
         25    2    1    2    0    0 -0.11923849175E+03 -0.50166476887E+01 -0.37945810865E+03  0.41696094384E+03  0.12499995122E+03 0.  0.
          2    1    1    2  501    0  0.55745496455E+02  0.31104239804E+02 -0.69741708053E+03  0.70033250555E+03  0.00000000000E+00 0. -1.
          1    1    1    2  502    0  0.63492995291E+02 -0.26087592115E+02  0.19801453016E+03  0.20957499151E+03  0.00000000000E+00 0. -1.
         22    1    3    3    0    0 -0.85694585128E+02  0.13676740157E+02 -0.36619069655E+03  0.37633262067E+03  0.00000000000E+00 0. -1.
         22    1    3    3    0    0 -0.33543906618E+02 -0.18693387845E+02 -0.13267412104E+02  0.40628323178E+02  0.00000000000E+00 0. -1.
</event>
<event>
 7    1  0.6999029E-005  0.4500240E+03  0.7818608E-02  0.1092521E+00
          2   -1    0    0  502    0  0.00000000000E+00  0.00000000000E+00  0.13078301375E+04  0.13078301375E+04  0.00000000000E+00 0. -1.
          1   -1    0    0  501    0 -0.00000000000E+00 -0.00000000000E+00 -0.30378699926E+03  0.30378699926E+03  0.00000000000E+00 0. -1.
         25    2    1    2    0    0  0.38266590582E+03 -0.29783127900E+03  0.31777551946E+03  0.59307910378E+03  0.12499950537E+03 0.  0.
          2    1    1    2  501    0 -0.22075082538E+03  0.38007210524E+03  0.16999805372E+03  0.47125902682E+03  0.00000000000E+00 0. -1.
          1    1    1    2  502    0 -0.16191508043E+03 -0.82240826246E+02  0.51626956510E+03  0.54727900620E+03  0.00000000000E+00 0. -1.
         22    1    3    3    0    0  0.20978768926E+03 -0.22696666499E+03  0.23722816007E+03  0.38961768634E+03  0.00000000000E+00 0. -1.
         22    1    3    3    0    0  0.17287821656E+03 -0.70864614011E+02  0.80547359389E+02  0.20346141743E+03  0.00000000000E+00 0. -1.
</event>
<event>
 7    1  0.6999029E-005  0.4168648E+03  0.7818608E-02  0.1177333E+00
          2   -1    0    0  502    0  0.00000000000E+00  0.00000000000E+00  0.17831513280E+04  0.17831513280E+04  0.00000000000E+00 0. -1.
          1   -1    0    0  501    0 -0.00000000000E+00 -0.00000000000E+00 -0.18197573489E+03  0.18197573489E+03  0.00000000000E+00 0. -1.
         25    2    1    2    0    0 -0.17140214862E+03  0.39167673146E+03  0.49318720011E+03  0.66456666240E+03  0.12500350359E+03 0.  0.
          2    1    1    2  501    0  0.22328955606E+03 -0.34509232411E+03  0.35140442143E+03  0.54076982665E+03  0.00000000000E+00 0. -1.
          1    1    1    2  502    0 -0.51887407447E+02 -0.46584407344E+02  0.75658397162E+03  0.75979057389E+03  0.00000000000E+00 0. -1.
         22    1    3    3    0    0 -0.46949638089E+02  0.25179751723E+02  0.97176437171E+02  0.11082214740E+03  0.00000000000E+00 0.  1.
         22    1    3    3    0    0 -0.12445251053E+03  0.36649697973E+03  0.39601076294E+03  0.55374451500E+03  0.00000000000E+00 0.  1.
</event>
<event>
 7    1  0.6999029E-005  0.4133552E+03  0.7818608E-02  0.1156904E+00
          2   -1    0    0  502    0  0.00000000000E+00  0.00000000000E+00  0.35692225212E+04  0.35692225212E+04  0.00000000000E+00 0. -1.
          1   -1    0    0  501    0 -0.00000000000E+00 -0.00000000000E+00 -0.31318607672E+03  0.31318607672E+03  0.00000000000E+00 0. -1.
         25    2    1    2    0    0  0.46331344449E+03  0.15131304789E+03  0.20755307003E+04  0.21356515585E+04  0.12499962168E+03 0.  0.
          2    1    1    2  501    0 -0.37496509764E+03 -0.16154288311E+03 -0.13364533747E+03  0.42959981815E+03  0.00000000000E+00 0. -1.
          1    1    1    2  502    0 -0.88348346852E+02  0.10229835221E+02  0.13141510817E+04  0.13171572212E+04  0.00000000000E+00 0. -1.
         22    1    3    3    0    0  0.10445936795E+03 -0.10592816341E+02  0.33111771672E+03  0.34736567135E+03  0.00000000000E+00 0.  1.
         22    1    3    3    0    0  0.35885407654E+03  0.16190586423E+03  0.17444129836E+04  0.17882858872E+04  0.00000000000E+00 0.  1.
</event>
<event>
 7    1  0.6999029E-005  0.5999284E+03  0.7818608E-02  0.1182894E+00
          2   -1    0    0  502    0  0.00000000000E+00  0.00000000000E+00  0.25526170117E+04  0.25526170117E+04  0.00000000000E+00 0. -1.
          1   -1    0    0  501    0 -0.00000000000E+00 -0.00000000000E+00 -0.11475012010E+04  0.11475012010E+04  0.00000000000E+00 0. -1.
         25    2    1    2    0    0 -0.51513372954E+03 -0.24979884611E+03  0.22888980199E+04  0.23627184910E+04  0.12498919709E+03 0.  0.
          2    1    1    2  501    0  0.55559945155E+03  0.22895611677E+03 -0.10254750822E+04  0.11885751125E+04  0.00000000000E+00 0. -1.
          1    1    1    2  502    0 -0.40465722011E+02  0.20842729346E+02  0.14169287309E+03  0.14882460922E+03  0.00000000000E+00 0. -1.
         22    1    3    3    0    0 -0.55087091140E+02  0.10589596558E+02  0.26954070207E+03  0.27531603157E+03  0.00000000000E+00 0. -1.
         22    1    3    3    0    0 -0.46004663840E+03 -0.26038844267E+03  0.20193573178E+04  0.20874024594E+04  0.00000000000E+00 0. -1.
</event>
<event>
 7    1  0.6999029E-005  0.8910233E+03  0.7818608E-02  0.1069394E+00
          2   -1    0    0  502    0  0.00000000000E+00  0.00000000000E+00  0.86921130768E+03  0.86921130768E+03  0.00000000000E+00 0. -1.
          1   -1    0    0  501    0 -0.00000000000E+00 -0.00000000000E+00 -0.28305870450E+04  0.28305870450E+04  0.00000000000E+00 0. -1.
         25    2    1    2    0    0 -0.47986750260E+03 -0.67606811172E+03 -0.10493028937E+04  0.13431316555E+04  0.12500067832E+03 0.  0.
          2    1    1    2  501    0  0.57830542492E+03  0.75339429484E+03 -0.14891104148E+04  0.17662077895E+04  0.00000000000E+00 0. -1.
          1    1    1    2  502    0 -0.98437922316E+02 -0.77326183116E+02  0.57703757119E+03  0.59045890773E+03  0.00000000000E+00 0. -1.
         22    1    3    3    0    0 -0.20855676577E+03 -0.36070377142E+03 -0.60366344222E+03  0.73349348105E+03  0.00000000000E+00 0. -1.
         22    1    3    3    0    0 -0.27131073683E+03 -0.31536434030E+03 -0.44563945147E+03  0.60963817446E+03  0.00000000000E+00 0. -1.
</event>
<event>
 7    1  0.6999029E-005  0.9300622E+02  0.7818608E-02  0.1403903E+00
          2   -1    0    0  502    0  0.00000000000E+00  0.00000000000E+00  0.63461093545E+03  0.63461093545E+03  0.00000000000E+00 0. -1.
          1   -1    0    0  501    0 -0.00000000000E+00 -0.00000000000E+00 -0.38941803704E+03  0.38941803704E+03  0.00000000000E+00 0. -1.
         25    2    1    2    0    0  0.51575465446E+02 -0.48504886286E+02  0.62826441551E+02  0.15679609370E+03  0.12500040245E+03 0.  0.
          2    1    1    2  501    0  0.35588622786E+02  0.97224756086E+01 -0.33708265655E+03  0.33909555283E+03  0.00000000000E+00 0. -1.
          1    1    1    2  502    0 -0.87164088232E+02  0.38782410677E+02  0.51944911341E+03  0.52813732596E+03  0.00000000000E+00 0. -1.
         22    1    3    3    0    0  0.90026900308E+02 -0.15490983195E+02  0.28913782538E+02  0.95816596475E+02  0.00000000000E+00 0. -1.
         22    1    3    3    0    0 -0.38451434862E+02 -0.33013903090E+02  0.33912659013E+02  0.60979497223E+02  0.00000000000E+00 0. -1.
</event>
<event>
 7    1  0.6999029E-005  0.4753306E+03  0.7818608E-02  0.1195242E+00
          2   -1    0    0  502    0  0.00000000000E+00  0.00000000000E+00  0.16075850138E+04  0.16075850138E+04  0.00000000000E+00 0. -1.
          1   -1    0    0  501    0 -0.00000000000E+00 -0.00000000000E+00 -0.87327276352E+03  0.87327276352E+03  0.00000000000E+00 0. -1.
         25    2    1    2    0    0 -0.26073021395E+03 -0.35555874140E+03  0.23129970136E+03  0.51334904031E+03  0.12500168912E+03 0.  0.
          2    1    1    2  501    0  0.26185777726E+03  0.40565879862E+03 -0.65205228191E+03  0.81135734097E+03  0.00000000000E+00 0. -1.
          1    1    1    2  502    0 -0.11275633078E+01 -0.50100057221E+02  0.11550648308E+04  0.11561513960E+04  0.00000000000E+00 0. -1.
         22    1    3    3    0    0 -0.10957291695E+03 -0.25219026863E+03  0.13138267062E+03  0.30474179539E+03  0.00000000000E+00 0.  1.
         22    1    3    3    0    0 -0.15115729700E+03 -0.10336847277E+03  0.99917030747E+02  0.20860724492E+03  0.00000000000E+00 0.  1.
</event>
<event>
 7    1  0.6999029E-005  0.2188388E+03  0.7818608E-02  0.1278573E+00
          2   -1    0    0  502    0  0.00000000000E+00  0.00000000000E+00  0.55391238903E+03  0.55391238903E+03  0.00000000000E+00 0. -1.
          1   -1    0    0  501    0 -0.00000000000E+00 -0.00000000000E+00 -0.15949203063E+04  0.15949203063E+04  0.00000000000E+00 0. -1.
         25    2    1    2    0    0  0.69282910832E+02 -0.24608121962E+03  0.27257936758E+03  0.39405804098E+03  0.12500455853E+03 0.  0.
          2    1    1    2  501    0 -0.82864234291E+02  0.20165929141E+03 -0.15238879533E+04  0.15394048998E+04  0.00000000000E+00 0. -1.
          1    1    1    2  502    0  0.13581323459E+02  0.44421928203E+02  0.21030066844E+03  0.21536975461E+03  0.00000000000E+00 0. -1.
         22    1    3    3    0    0  0.77740605167E+02 -0.25049548042E+03  0.27871205863E+03  0.38271660407E+03  0.00000000000E+00 0. -1.
         22    1    3    3    0    0 -0.84576943348E+01  0.44142607998E+01 -0.61326910508E+01  0.11341436919E+02  0.00000000000E+00 0. -1.
</event>
<event>
 7    1  0.6999029E-005  0.1983644E+03  0.7818608E-02  0.1270809E+00
          2   -1    0    0  502    0  0.00000000000E+00  0.00000000000E+00  0.12882146492E+03  0.12882146492E+03  0.00000000000E+00 0. -1.
          1   -1    0    0  501    0 -0.00000000000E+00 -0.00000000000E+00 -0.89213080643E+03  0.89213080643E+03  0.00000000000E+00 0. -1.
         25    2    1    2    0    0 -0.81996518303E+02 -0.13684619707E+03  0.12083995609E+02  0.20303529915E+03  0.12500799609E+03 0.  0.
          2    1    1    2  501    0  0.13420674251E+03  0.15479869157E+03 -0.59704952169E+03  0.63122279426E+03  0.00000000000E+00 0. -1.
          1    1    1    2  502    0 -0.52210224212E+02 -0.17952494507E+02 -0.17834381544E+03  0.18669417794E+03  0.00000000000E+00 0. -1.
         22    1    3    3    0    0 -0.19619734449E+02 -0.13886355476E+03  0.97821284889E+01  0.14058346580E+03  0.00000000000E+00 0. -1.
         22    1    3    3    0    0 -0.62376783854E+02  0.20173576901E+01  0.23018671198E+01  0.62451833346E+02  0.00000000000E+00 0. -1.
</event>
<event>
 7    1  0.6999029E-005  0.8161501E+03  0.7818608E-02  0.9903294E-01
          2   -1    0    0  502    0  0.00000000000E+00  0.00000000000E+00  0.35270639063E+04  0.35270639063E+04  0.00000000000E+00 0. -1.
          1   -1    0    0  501    0 -0.00000000000E+00 -0.00000000000E+00 -0.40896835611E+03  0.40896835611E+03  0.00000000000E+00 0. -1.
         25    2    1    2    0    0 -0.35746498680E+03  0.59479946371E+03  0.63646581277E+03  0.94988580901E+03  0.12500680188E+03 0.  0.
          2    1    1    2  501    0  0.20804024772E+03 -0.10114078919E+04  0.99097690051E+03  0.14311750018E+04  0.00000000000E+00 0. -1.
          1    1    1    2  502    0  0.14942473908E+03  0.41660842818E+03  0.14906528369E+04  0.15549714516E+04  0.00000000000E+00 0. -1.
         22    1    3    3    0    0 -0.17360068374E+03  0.18249040407E+03  0.19586641162E+03  0.31906675818E+03  0.00000000000E+00 0.  1.
         22    1    3    3    0    0 -0.18386430306E+03  0.41230905963E+03  0.44059940115E+03  0.63081905083E+03  0.00000000000E+00 0.  1.
</event>
<event>
 7    1  0.6999029E-005  0.6471441E+02  0.7818608E-02  0.1512936E+00
          2   -1    0    0  502    0  0.00000000000E+00  0.00000000000E+00  0.62016444698E+03  0.62016444698E+03  0.00000000000E+00 0. -1.
          1   -1    0    0  501    0 -0.00000000000E+00 -0.00000000000E+00 -0.24122146497E+03  0.24122146497E+03  0.00000000000E+00 0. -1.
         25    2    1    2    0    0 -0.63812547445E+02  0.47550368741E+02  0.46084959461E+02  0.15517902471E+03  0.12499450965E+03 0.  0.
          2    1    1    2  501    0  0.59357606036E+02 -0.24023070233E+02 -0.18089592977E+03  0.19189520761E+03  0.00000000000E+00 0. -1.
          1    1    1    2  502    0  0.44549414086E+01 -0.23527298508E+02  0.51375395232E+03  0.51431167963E+03  0.00000000000E+00 0. -1.
         22    1    3    3    0    0 -0.44913041844E+02 -0.38478579576E+02  0.99440484857E+01  0.59972214518E+02  0.00000000000E+00 0.  1.
         22    1    3    3    0    0 -0.18899505601E+02  0.86028948318E+02  0.36140910976E+02  0.95206810191E+02  0.00000000000E+00 0.  1.
</event>
<event>
 7    1  0.6999029E-005  0.2589840E+03  0.7818608E-02  0.1141762E+00
          2   -1    0    0  502    0  0.00000000000E+00  0.00000000000E+00  0.11890326404E+04  0.11890326404E+04  0.00000000000E+00 0. -1.
          1   -1    0    0  501    0 -0.00000000000E+00 -0.00000000000E+00 -0.29490523623E+03  0.29490523623E+03  0.00000000000E+00 0. -1.
         25    2    1    2    0    0  0.39743892281E+03  0.46705198301E+02  0.48710587651E+03  0.64267896761E+03  0.12500019029E+03 0.  0.
          2    1    1    2  501    0 -0.24108749887E+03  0.19725920966E+02 -0.13237391472E+03  0.27574471412E+03  0.00000000000E+00 0. -1.
          1    1    1    2  502    0 -0.15635142394E+03 -0.66431119267E+02  0.53939544240E+03  0.56551419492E+03  0.00000000000E+00 0. -1.
         22    1    3    3    0    0  0.33163239086E+03  0.85740120872E+02  0.40555370621E+03  0.53085329387E+03  0.00000000000E+00 0. -1.
         22    1    3    3    0    0  0.65806531945E+02 -0.39034922571E+02  0.81552170299E+02  0.11182567374E+03  0.00000000000E+00 0. -1.
</event>
<event>
 7    1  0.6999029E-005  0.5696054E+03  0.7818608E-02  0.1153414E+00
          2   -1    0    0  502    0  0.00000000000E+00  0.00000000000E+00  0.20384690119E+04  0.20384690119E+04  0.00000000000E+00 0. -1.
          1   -1    0    0  501    0 -0.00000000000E+00 -0.00000000000E+00 -0.30973483444E+03  0.30973483444E+03  0.00000000000E+00 0. -1.
         25    2    1    2    0    0 -0.45517675395E+03 -0.37585802478E+03  0.84848426970E+03  0.10411563884E+04  0.12500374820E+03 0.  0.
          2    1    1    2  501    0 -0.65763272501E+01  0.66917913265E+02 -0.13438352589E+03  0.15026705303E+03  0.00000000000E+00 0. -1.
          1    1    1    2  502    0  0.46175308120E+03  0.30894011151E+03  0.10146334337E+04  0.11567804050E+04  0.00000000000E+00 0. -1.
         22    1    3    3    0    0 -0.75099192338E+02 -0.13062526767E+03  0.22852885094E+03  0.27373031428E+03  0.00000000000E+00 0.  1.
         22    1    3    3    0    0 -0.38007756161E+03 -0.24523275711E+03  0.61995541875E+03  0.76742607412E+03  0.00000000000E+00 0.  1.
</event>
<event>
 7    1  0.6999029E-005  0.3909892E+03  0.7818608E-02  0.1099286E+00
          2   -1    0    0  502    0  0.00000000000E+00  0.00000000000E+00  0.11584351548E+04  0.11584351548E+04  0.00000000000E+00 0. -1.
          1   -1    0    0  501    0 -0.00000000000E+00 -0.00000000000E+00 -0.90336282198E+03  0.90336282198E+03  0.00000000000E+00 0. -1.
         25    2    1    2    0    0 -0.16820810005E+03  0.26975826342E+03 -0.22848515240E+02  0.34235993168E+03  0.12499913027E+03 0.  0.
          2    1    1    2  501    0 -0.18448020465E+03 -0.50744374483E+02 -0.66350252674E+03  0.69053858722E+03  0.00000000000E+00 0. -1.
          1    1    1    2  502    0  0.35268830470E+03 -0.21901388894E+03  0.94142337484E+03  0.10288994579E+04  0.00000000000E+00 0. -1.
         22    1    3    3    0    0 -0.19383475482E+02  0.84485944217E+02 -0.54840580145E+02  0.10257233117E+03  0.00000000000E+00 0.  1.
         22    1    3    3    0    0 -0.14882462457E+03  0.18527231920E+03  0.31992064904E+02  0.23978760051E+03  0.00000000000E+00 0.  1.
</event>
<event>
 7    1  0.6999029E-005  0.2221581E+03  0.7818608E-02  0.1174460E+00
          2   -1    0    0  502    0  0.00000000000E+00  0.00000000000E+00  0.21690375437E+04  0.21690375437E+04  0.00000000000E+00 0. -1.
          1   -1    0    0  501    0 -0.00000000000E+00 -0.00000000000E+00 -0.71253779892E+03  0.71253779892E+03  0.00000000000E+00 0. -1.
         25    2    1    2    0    0 -0.31657776091E+03  0.18411301426E+02  0.11695776065E+04  0.12182344357E+04  0.12499163195E+03 0.  0.
          2    1    1    2  501    0  0.13336958451E+03  0.21990339898E+02 -0.67239695795E+03  0.68584888291E+03  0.00000000000E+00 0. -1.
          1    1    1    2  502    0  0.18320817640E+03 -0.40401641324E+02  0.95931909631E+03  0.97749202404E+03  0.00000000000E+00 0. -1.
         22    1    3    3    0    0 -0.32534572351E+03  0.23650084012E+02  0.11565934858E+04  0.12017144659E+04  0.00000000000E+00 0.  1.
         22    1    3    3    0    0  0.87679625997E+01 -0.52387825858E+01  0.12984120675E+02  0.16519969759E+02  0.00000000000E+00 0.  1.
</event>
<event>
 7    1  0.6999029E-005  0.6096133E+03  0.7818608E-02  0.1164644E+00
          2   -1    0    0  502    0  0.00000000000E+00  0.00000000000E+00  0.13008546100E+04  0.13008546100E+04  0.00000000000E+00 0. -1.
          1   -1    0    0  501    0 -0.00000000000E+00 -0.00000000000E+00 -0.64129714924E+03  0.64129714924E+03  0.00000000000E+00 0. -1.
         25    2    1    2    0    0 -0.44070036341E+03 -0.42225713825E+03 -0.50076340391E+01  0.62303262915E+03  0.12500671772E+03 0.  0.
          2    1    1    2  501    0 -0.36013820124E+02  0.41723629786E+02 -0.22993058380E+03  0.23644434840E+03  0.00000000000E+00 0. -1.
          1    1    1    2  502    0  0.47671418353E+03  0.38053350846E+03  0.89449567861E+03  0.10826747817E+04  0.00000000000E+00 0. -1.
         22    1    3    3    0    0 -0.31598486082E+03 -0.26432799412E+03  0.48485269338E+02  0.41480904292E+03  0.00000000000E+00 0. -1.
         22    1    3    3    0    0 -0.12471550259E+03 -0.15792914413E+03 -0.53492903377E+02  0.20822358623E+03  0.00000000000E+00 0. -1.
</event>
<event>
 7    1  0.6999029E-005  0.8889795E+03  0.7818608E-02  0.1175574E+00
          2   -1    0    0  502    0  0.00000000000E+00  0.00000000000E+00  0.35340462052E+04  0.35340462052E+04  0.00000000000E+00 0. -1.
          1   -1    0    0  501    0 -0.00000000000E+00 -0.00000000000E+00 -0.42571068163E+03  0.42571068163E+03  0.00000000000E+00 0. -1.
         25    2    1    2    0    0  0.89027898409E+03 -0.14260357660E+03  0.69841212665E+03  0.11473164840E+04  0.12499266445E+03 0.  0.
          2    1    1    2  501    0 -0.86142249719E+03  0.15933353244E+03  0.75300131313E+03  0.11551826136E+04  0.00000000000E+00 0. -1.
          1    1    1    2  502    0 -0.28856486902E+02 -0.16729955844E+02  0.16569220838E+04  0.16572577893E+04  0.00000000000E+00 0. -1.
         22    1    3    3    0    0  0.84803450476E+03 -0.14501963053E+03  0.69284353730E+03  0.11046381225E+04  0.00000000000E+00 0. -1.
         22    1    3    3    0    0  0.42244479323E+02  0.24160539369E+01  0.55685893517E+01  0.42678361464E+02  0.00000000000E+00 0. -1.
</event>
<event>
 7    1  0.6999029E-005  0.2803383E+03  0.7818608E-02  0.1276659E+00
          2   -1    0    0  502    0  0.00000000000E+00  0.00000000000E+00  0.68126453498E+03  0.68126453498E+03  0.00000000000E+00 0. -1.
          1   -1    0    0  501    0 -0.00000000000E+00 -0.00000000000E+00 -0.64711092187E+03  0.64711092187E+03  0.00000000000E+00 0. -1.
         25    2    1    2    0    0  0.27781974190E+03 -0.12617573447E+03 -0.16295878634E+03  0.36780990200E+03  0.12499773199E+03 0.  0.
          2    1    1    2  501    0 -0.24199306656E+03  0.11721463819E+03 -0.33365464328E+03  0.42851527004E+03  0.00000000000E+00 0. -1.
          1    1    1    2  502    0 -0.35826675342E+02  0.89610962775E+01  0.53076704274E+03  0.53205028481E+03  0.00000000000E+00 0. -1.
         22    1    3    3    0    0  0.52313778839E+02 -0.33847573291E+02 -0.97133640339E+02  0.11540075286E+03  0.00000000000E+00 0. -1.
         22    1    3    3    0    0  0.22550596307E+03 -0.92328161179E+02 -0.65825146000E+02  0.25240914914E+03  0.00000000000E+00 0. -1.
</event>
<event>
 7    1  0.6999029E-005  0.3178395E+03  0.7818608E-02  0.1219428E+00
          2   -1    0    0  502    0  0.00000000000E+00  0.00000000000E+00  0.75255311134E+03  0.75255311134E+03  0.00000000000E+00 0. -1.
          1   -1    0    0  501    0 -0.00000000000E+00 -0.00000000000E+00 -0.59554563041E+03  0.59554563041E+03  0.00000000000E+00 0. -1.
         25    2    1    2    0    0  0.67465511717E+02  0.33580781960E+03 -0.32577581401E+03  0.48895124800E+03  0.12499981978E+03 0.  0.
          2    1    1    2  501    0 -0.51076509964E+02 -0.28036007080E+03 -0.77948213415E+02  0.29544289320E+03  0.00000000000E+00 0. -1.
          1    1    1    2  502    0 -0.16389001753E+02 -0.55447748808E+02  0.56073150835E+03  0.56370460055E+03  0.00000000000E+00 0. -1.
         22    1    3    3    0    0  0.52681756371E+02  0.33243627071E+03 -0.27102249984E+03  0.43213705807E+03  0.00000000000E+00 0.  1.
         22    1    3    3    0    0  0.14783755346E+02  0.33715488888E+01 -0.54753314168E+02  0.56814189921E+02  0.00000000000E+00 0.  1.
</event>
<event>
 7    1  0.6999029E-005  0.9260988E+02  0.7818608E-02  0.1440599E+00
          2   -1    0    0  502    0  0.00000000000E+00  0.00000000000E+00  0.41342319454E+02  0.41342319454E+02  0.00000000000E+00 0. -1.
          1   -1    0    0  501    0 -0.00000000000E+00 -0.00000000000E+00 -0.80143749675E+03  0.80143749675E+03  0.00000000000E+00 0. -1.
         25    2    1    2    0    0 -0.60749791921E+02 -0.73903863953E+02 -0.49731852401E+03  0.52163460099E+03  0.12499849720E+03 0.  0.
          2    1    1    2  501    0  0.25366522071E+02 -0.11771356388E+02 -0.21509690929E+03  0.21690713603E+03  0.00000000000E+00 0. -1.
          1    1    1    2  502    0  0.35383269851E+02  0.85675220341E+02 -0.47679744004E+02  0.10423807919E+03  0.00000000000E+00 0. -1.
         22    1    3    3    0    0 -0.81581939001E+02 -0.95386444242E+02 -0.43043353407E+03  0.44836058454E+03  0.00000000000E+00 0. -1.
         22    1    3    3    0    0  0.20832147080E+02  0.21482580289E+02 -0.66884989934E+02  0.73274016447E+02  0.00000000000E+00 0. -1.
</event>
<event>
 7    1  0.6999029E-005  0.8728152E+02  0.7818608E-02  0.1481165E+00
          2   -1    0    0  502    0  0.00000000000E+00  0.00000000000E+00  0.71039403724E+03  0.71039403724E+03  0.00000000000E+00 0. -1.
          1   -1    0    0  501    0 -0.00000000000E+00 -0.00000000000E+00 -0.11231908980E+04  0.11231908980E+04  0.00000000000E+00 0. -1.
         25    2    1    2    0    0 -0.77687465563E+02 -0.26540033181E+01 -0.43116138898E+03  0.45559569281E+03  0.12499962368E+03 0.  0.
          2    1    1    2  501    0 -0.63545485028E+01 -0.21172650521E+02 -0.67689882962E+03  0.67725968945E+03  0.00000000000E+00 0. -1.
          1    1    1    2  502    0  0.84042014066E+02  0.23826653839E+02  0.69526335788E+03  0.70072955294E+03  0.00000000000E+00 0. -1.
         22    1    3    3    0    0  0.25307846600E+02 -0.27070491474E+02 -0.69499770073E+02  0.78762406313E+02  0.00000000000E+00 0.  1.
         22    1    3    3    0    0 -0.10299531216E+03  0.24416488156E+02 -0.36166161891E+03  0.37683328650E+03  0.00000000000E+00 0.  1.
</event>
<event>
 7    1  0.6999029E-005  0.4355441E+03  0.7818608E-02  0.1182826E+00
          2   -1    0    0  502    0  0.00000000000E+00  0.00000000000E+00  0.92986313763E+03  0.92986313763E+03  0.00000000000E+00 0. -1.
          1   -1    0    0  501    0 -0.00000000000E+00 -0.00000000000E+00 -0.23180945062E+04  0.23180945062E+04  0.00000000000E+00 0. -1.
         25    2    1    2    0    0 -0.46892582578E+03  0.12415248944E+03 -0.41744630740E+03  0.65206810579E+03  0.12500449719E+03 0.  0.
          2    1    1    2  501    0  0.61232856823E+02  0.13692020905E+02 -0.17257416863E+04  0.17268819595E+04  0.00000000000E+00 0. -1.
          1    1    1    2  502    0  0.40769296896E+03 -0.13784451035E+03  0.75495662506E+03  0.86900757862E+03  0.00000000000E+00 0. -1.
         22    1    3    3    0    0 -0.99182164942E+02  0.45284355346E+02 -0.16391904839E+03  0.19686855794E+03  0.00000000000E+00 0.  1.
         22    1    3    3    0    0 -0.36974366084E+03  0.78868134094E+02 -0.25352725901E+03  0.45519954785E+03  0.00000000000E+00 0.  1.
</event>
<event>
 7    1  0.6999029E-005  0.2704051E+03  0.7818608E-02  0.1152297E+00
          2   -1    0    0  502    0  0.00000000000E+00  0.00000000000E+00  0.28327595085E+04  0.28327595085E+04  0.00000000000E+00 0. -1.
          1   -1    0    0  501    0 -0.00000000000E+00 -0.00000000000E+00 -0.67367229588E+02  0.67367229588E+02  0.00000000000E+00 0. -1.
         25    2    1    2    0    0  0.37503674517E+03 -0.70591235834E+02  0.84404807693E+03  0.93470747975E+03  0.12500093490E+03 0.  0.
          2    1    1    2  501    0 -0.12856215520E+03  0.63792913473E+02  0.41710547464E+03  0.44110626898E+03  0.00000000000E+00 0. -1.
          1    1    1    2  502    0 -0.24647458998E+03  0.67983223613E+01  0.15042387274E+04  0.15243129894E+04  0.00000000000E+00 0. -1.
         22    1    3    3    0    0  0.20192350300E+03 -0.51164397262E+01  0.56350694938E+03  0.59861453459E+03  0.00000000000E+00 0. -1.
         22    1    3    3    0    0  0.17311324218E+03 -0.65474796108E+02  0.28054112755E+03  0.33609294516E+03  0.00000000000E+00 0. -1.
</event>
<event>
 7    1  0.6999029E-005  0.1199432E+03  0.7818608E-02  0.1322901E+00
          2   -1    0    0  502    0  0.00000000000E+00  0.00000000000E+00  0.13087105948E+04  0.13087105948E+04  0.00000000000E+00 0. -1.
          1   -1    0    0  501    0 -0.00000000000E+00 -0.00000000000E+00 -0.84601717786E+03  0.84601717786E+03  0.00000000000E+00 0. -1.
         25    2    1    2    0    0  0.73594148548E+02 -0.52531319132E+02 -0.19153012751E+03  0.24593952789E+03  0.12500729356E+03 0.  0.
          2    1    1    2  501    0 -0.16913989649E+02 -0.53745503836E+02 -0.62317840823E+03  0.62572037742E+03  0.00000000000E+00 0. -1.
          1    1    1    2  502    0 -0.56680158899E+02  0.10627682297E+03  0.12774019527E+04  0.12830678674E+04  0.00000000000E+00 0. -1.
         22    1    3    3    0    0 -0.88328465637E+00 -0.23748809632E+02  0.12492941119E+02  0.26848831046E+02  0.00000000000E+00 0. -1.
         22    1    3    3    0    0  0.74477433204E+02 -0.28782509500E+02 -0.20402306863E+03  0.21909069684E+03  0.00000000000E+00 0. -1.
</event>
<event>
 7    1  0.6999029E-005  0.2383726E+03  0.7818608E-02  0.1206300E+00
          2   -1    0    0  502    0  0.00000000000E+00  0.00000000000E+00  0.10104020431E+03  0.10104020431E+03  0.00000000000E+00 0. -1.
          1   -1    0    0  501    0 -0.00000000000E+00 -0.00000000000E+00 -0.14312039185E+04  0.14312039185E+04  0.00000000000E+00 0. -1.
         25    2    1    2    0    0  0.23325283909E+03 -0.14544315350E+03 -0.21649425973E+03  0.37155764013E+03  0.12499887038E+03 0.  0.
          2    1    1    2  501    0 -0.15029498691E+03  0.17665345097E+03 -0.69307737486E+03  0.73085653337E+03  0.00000000000E+00 0. -1.
          1    1    1    2  502    0 -0.82957852179E+02 -0.31210297466E+02 -0.42059207960E+03  0.42982994932E+03  0.00000000000E+00 0. -1.
         22    1    3    3    0    0 -0.67348124827E+01  0.11940388884E+02 -0.34557526568E+01  0.14137638144E+02  0.00000000000E+00 0. -1.
         22    1    3    3    0    0  0.23998765157E+03 -0.15738354239E+03 -0.21303850708E+03  0.35742000199E+03  0.00000000000E+00 0. -1.
</event>
<event>
 7    1  0.6999029E-005  0.3175581E+03  0.7818608E-02  0.1078250E+00
          2   -1    0    0  502    0  0.00000000000E+00  0.00000000000E+00  0.31806477108E+04  0.31806477108E+04  0.00000000000E+00 0. -1.
          1   -1    0    0  501    0 -0.00000000000E+00 -0.00000000000E+00 -0.93950877435E+03  0.93950877435E+03  0.00000000000E+00 0. -1.
         25    2    1    2    0    0 -0.19371373798E+02 -0.51285647966E+03  0.42407539996E+03  0.67739899147E+03  0.12502971621E+03 0.  0.
          2    1    1    2  501    0  0.18588437457E+03  0.24983624451E+03 -0.77335771351E+03  0.83369856833E+03  0.00000000000E+00 0. -1.
          1    1    1    2  502    0 -0.16651300077E+03  0.26302023515E+03  0.25904212500E+04  0.26090589254E+04  0.00000000000E+00 0. -1.
         22    1    3    3    0    0 -0.25428058739E+02 -0.43415669337E+03  0.29300165358E+03  0.52439354455E+03  0.00000000000E+00 0.  1.
         22    1    3    3    0    0  0.60566849415E+01 -0.78699786291E+02  0.13107374638E+03  0.15300544691E+03  0.00000000000E+00 0.  1.
</event>
<event>
 7    1  0.6999029E-005  0.5325265E+03  0.7818608E-02  0.1180838E+00
          2   -1    0    0  502    0  0.00000000000E+00  0.00000000000E+00  0.30875784372E+04  0.30875784372E+04  0.00000000000E+00 0. -1.
          1   -1    0    0  501    0 -0.00000000000E+00 -0.00000000000E+00 -0.18461072136E+03  0.18461072136E+03  0.00000000000E+00 0. -1.
         25    2    1    2    0    0 -0.50196695219E+03  0.25538675120E+03  0.14255720240E+04  0.15378805894E+04  0.12501159000E+03 0.  0.
          2    1    1    2  501    0  0.45016919384E+03 -0.26378466953E+03  0.40466232574E+03  0.66029255094E+03  0.00000000000E+00 0. -1.
          1    1    1    2  502    0  0.51797758349E+02  0.83979183240E+01  0.10727333661E+04  0.10740160183E+04  0.00000000000E+00 0. -1.
         22    1    3    3    0    0 -0.38578507197E+03  0.18315966251E+03  0.92276636279E+03  0.10167966090E+04  0.00000000000E+00 0. -1.
         22    1    3    3    0    0 -0.11618188022E+03  0.72227088699E+02  0.50280566124E+03  0.52108398038E+03  0.00000000000E+00 0. -1.
</event>
<event>
 7    1  0.6999029E-005  0.1214231E+04  0.7818608E-02  0.1133617E+00
          2   -1    0    0  502    0  0.00000000000E+00  0.00000000000E+00  0.20853717658E+04  0.20853717658E+04  0.00000000000E+00 0. -1.
          1   -1    0    0  501    0 -0.00000000000E+00 -0.00000000000E+00 -0.13223114052E+04  0.13223114052E+04  0.00000000000E+00 0. -1.
         25    2    1    2    0    0  0.12062614832E+04 -0.92603320142E+02 -0.36219967641E+03  0.12690379924E+04  0.12500671915E+03 0.  0.
          2    1    1    2  501    0 -0.12205382952E+04  0.55248211023E+02  0.23092888741E+03  0.12434203818E+04  0.00000000000E+00 0. -1.
          1    1    1    2  502    0  0.14276812047E+02  0.37355109119E+02  0.89433114959E+03  0.89522479672E+03  0.00000000000E+00 0. -1.
         22    1    3    3    0    0  0.47623037829E+03 -0.56741474561E+02 -0.83602399699E+02  0.48683090430E+03  0.00000000000E+00 0. -1.
         22    1    3    3    0    0  0.73003110489E+03 -0.35861845582E+02 -0.27859727671E+03  0.78220708810E+03  0.00000000000E+00 0. -1.
</event>
<event>
 7    1  0.6999029E-005  0.3341647E+03  0.7818608E-02  0.1152046E+00
          2   -1    0    0  502    0  0.00000000000E+00  0.00000000000E+00  0.21846152103E+04  0.21846152103E+04  0.00000000000E+00 0. -1.
          1   -1    0    0  501    0 -0.00000000000E+00 -0.00000000000E+00 -0.87379687491E+03  0.87379687491E+03  0.00000000000E+00 0. -1.
         25    2    1    2    0    0  0.35871053741E+03 -0.51456835130E+00 -0.67073400189E+03  0.77083252221E+03  0.12500064631E+03 0.  0.
          2    1    1    2  501    0 -0.26873907965E+03  0.74491552568E+02 -0.22839751756E+02  0.27980589450E+03  0.00000000000E+00 0. -1.
          1    1    1    2  502    0 -0.89971457763E+02 -0.73976984216E+02  0.20043920890E+04  0.20077736685E+04  0.00000000000E+00 0. -1.
         22    1    3    3    0    0  0.23034681379E+03 -0.35473096536E+02 -0.51965962259E+03  0.56952973456E+03  0.00000000000E+00 0.  1.
         22    1    3    3    0    0  0.12836372362E+03  0.34958528185E+02 -0.15107437930E+03  0.20130278765E+03  0.00000000000E+00 0.  1.
</event>
<event>
 7    1  0.6999029E-005  0.9018959E+03  0.7818608E-02  0.1193715E+00
          2   -1    0    0  502    0  0.00000000000E+00  0.00000000000E+00  0.21337963938E+04  0.21337963938E+04  0.00000000000E+00 0. -1.
          1   -1    0    0  501    0 -0.00000000000E+00 -0.00000000000E+00 -0.16503853855E+04  0.16503853855E+04  0.00000000000E+00 0. -1.
         25    2    1    2    0    0  0.15855596667E+01  0.89355867576E+03  0.64830462971E+03  0.11110241055E+04  0.12500419585E+03 0.  0.
          2    1    1    2  501    0  0.23557358338E+02 -0.90299978666E+03 -0.12750925954E+04  0.15626338953E+04  0.00000000000E+00 0. -1.
          1    1    1    2  502    0 -0.25142918004E+02  0.94411109050E+01  0.11101989740E+04  0.11105237785E+04  0.00000000000E+00 0. -1.
         22    1    3    3    0    0 -0.42455360782E+02  0.16194701055E+03  0.14952988687E+03  0.22447378233E+03  0.00000000000E+00 0.  1.
         22    1    3    3    0    0  0.44040920449E+02  0.73161166521E+03  0.49877474283E+03  0.88655032313E+03  0.00000000000E+00 0.  1.
</event>
<event>
 7    1  0.6999029E-005  0.3150576E+03  0.7818608E-02  0.1113741E+00
          2   -1    0    0  502    0  0.00000000000E+00  0.00000000000E+00  0.16827002793E+04  0.16827002793E+04  0.00000000000E+00 0. -1.
          1   -1    0    0  501    0 -0.00000000000E+00 -0.00000000000E+00 -0.56966838473E+03  0.56966838473E+03  0.00000000000E+00 0. -1.
         25    2    1    2    0    0 -0.38875716535E+03  0.27687126379E+03  0.60344365759E+03  0.77946125352E+03  0.12500307009E+03 0.  0.
          2    1    1    2  501    0  0.28403692899E+03 -0.10967327408E+03 -0.42215889910E+03  0.52050296845E+03  0.00000000000E+00 0. -1.
          1    1    1    2  502    0  0.10472023635E+03 -0.16719798971E+03  0.93174713606E+03  0.95240444204E+03  0.00000000000E+00 0. -1.
         22    1    3    3    0    0 -0.22554789072E+03  0.17110570399E+03  0.45038217813E+03  0.53197097602E+03  0.00000000000E+00 0.  1.
         22    1    3    3    0    0 -0.16320927463E+03  0.10576555980E+03  0.15306147945E+03  0.24749027750E+03  0.00000000000E+00 0.  1.
</event>
<event>
 7    1  0.6999029E-005  0.8425109E+03  0.7818608E-02  0.1108576E+00
          2   -1    0    0  502    0  0.00000000000E+00  0.00000000000E+00  0.15591528006E+04  0.15591528006E+04  0.00000000000E+00 0. -1.
          1   -1    0    0  501    0 -0.00000000000E+00 -0.00000000000E+00 -0.19621703745E+04  0.19621703745E+04  0.00000000000E+00 0. -1.
         25    2    1    2    0    0  0.36618077625E+03  0.79513291553E+03  0.69117475648E+02  0.88697626826E+03  0.12499984307E+03 0.  0.
          2    1    1    2  501    0 -0.76978228324E+02 -0.16752567446E+02 -0.13925168105E+04  0.13947434759E+04  0.00000000000E+00 0. -1.
          1    1    1    2  502    0 -0.28920254792E+03 -0.77838034809E+03  0.92038176098E+03  0.12396034309E+04  0.00000000000E+00 0. -1.
         22    1    3    3    0    0  0.50551252630E+02  0.21997524986E+03 -0.11323554122E+02  0.22599283743E+03  0.00000000000E+00 0. -1.
         22    1    3    3    0    0  0.31562952362E+03  0.57515766567E+03  0.80441029771E+02  0.66098343083E+03  0.00000000000E+00 0. -1.
</event>
<event>
 7    1  0.6999029E-005  0.3232586E+03  0.7818608E-02  0.1167730E+00
          2   -1    0    0  502    0  0.00000000000E+00  0.00000000000E+00  0.11418930740E+04  0.11418930740E+04  0.00000000000E+00 0. -1.
          1   -1    0    0  501    0 -0.00000000000E+00 -0.00000000000E+00 -0.24983388860E+03  0.24983388860E+03  0.00000000000E+00 0. -1.
         25    2    1    2    0    0  0.30133220425E+03  0.22530002092E+02  0.28924945366E+03  0.43657858317E+03  0.12500765787E+03 0.  0.
          2    1    1    2  501    0 -0.31425548434E+03 -0.12200744385E+03 -0.69618144311E+01  0.33718065284E+03  0.00000000000E+00 0. -1.
          1    1    1    2  502    0  0.12923280084E+02  0.99477441756E+02  0.60977154620E+03  0.61796772662E+03  0.00000000000E+00 0. -1.
         22    1    3    3    0    0  0.24297664486E+03  0.32947333316E+02  0.15568218172E+03  0.29044813380E+03  0.00000000000E+00 0.  1.
         22    1    3    3    0    0  0.58355559392E+02 -0.10417331224E+02  0.13356727193E+03  0.14613044937E+03  0.00000000000E+00 0.  1.
</event>
<event>
 7    1  0.6999029E-005  0.1158932E+04  0.7818608E-02  0.1177336E+00
          2   -1    0    0  502    0  0.00000000000E+00  0.00000000000E+00  0.16233152084E+04  0.16233152084E+04  0.00000000000E+00 0. -1.
          1   -1    0    0  501    0 -0.00000000000E+00 -0.00000000000E+00 -0.12507331007E+04  0.12507331007E+04  0.00000000000E+00 0. -1.
         25    2    1    2    0    0 -0.43679007339E+03 -0.10573184207E+04  0.38405928841E+03  0.12131917137E+04  0.12499914502E+03 0.  0.
          2    1    1    2  501    0  0.43519892082E+03  0.10823490431E+04 -0.42872722873E+03  0.12428534059E+04  0.00000000000E+00 0. -1.
          1    1    1    2  502    0  0.15911525755E+01 -0.25030622469E+02  0.41725004803E+03  0.41800318947E+03  0.00000000000E+00 0. -1.
         22    1    3    3    0    0  0.56701332345E+01 -0.52984355560E+01  0.89571358267E+01  0.11851333784E+02  0.00000000000E+00 0. -1.
         22    1    3    3    0    0 -0.44246020663E+03 -0.10520199851E+04  0.37510215258E+03  0.12013403799E+04  0.00000000000E+00 0. -1.
</event>
<event>
 7    1  0.6999029E-005  0.2031907E+03  0.7818608E-02  0.1333741E+00
          2   -1    0    0  502    0  0.00000000000E+00  0.00000000000E+00  0.57789440706E+03  0.57789440706E+03  0.00000000000E+00 0. -1.
          1   -1    0    0  501    0 -0.00000000000E+00 -0.00000000000E+00 -0.19023852472E+04  0.19023852472E+04  0.00000000000E+00 0. -1.
         25    2    1    2    0    0  0.39755823776E+02 -0.22900809385E+03 -0.80709568236E+03  0.84914967454E+03  0.12500598670E+03 0.  0.
          2    1    1    2  501    0 -0.99125083136E+00  0.30211061043E+02 -0.10556222285E+04  0.10560549133E+04  0.00000000000E+00 0. -1.
          1    1    1    2  502    0 -0.38764572945E+02  0.19879703281E+03  0.53822707067E+03  0.57507506638E+03  0.00000000000E+00 0. -1.
         22    1    3    3    0    0 -0.18852624807E+02  0.36036351300E+01 -0.27897592043E+02  0.33862712385E+02  0.00000000000E+00 0.  1.
         22    1    3    3    0    0  0.58608448583E+02 -0.23261172898E+03 -0.77919809032E+03  0.81528696216E+03  0.00000000000E+00 0.  1.
</event>
<event>
 7    1  0.6999029E-005  0.1209136E+04  0.7818608E-02  0.1132674E+00
          2   -1    0    0  502    0  0.00000000000E+00  0.00000000000E+00  0.37503057061E+04  0.37503057061E+04  0.00000000000E+00 0. -1.
          1   -1    0    0  501    0 -0.00000000000E+00 -0.00000000000E+00 -0.78024559965E+03  0.78024559965E+03  0.00000000000E+00 0. -1.
         25    2    1    2    0    0 -0.10117679686E+04  0.68956399724E+03  0.75782575478E+03  0.14453688228E+04  0.12497292022E+03 0.  0.
          2    1    1    2  501    0  0.10066964052E+04 -0.64925796195E+03  0.38608970238E+03  0.12585860367E+04  0.00000000000E+00 0. -1.
          1    1    1    2  502    0  0.50715633942E+01 -0.40306035288E+02  0.18261446493E+04  0.18265964463E+04  0.00000000000E+00 0. -1.
         22    1    3    3    0    0 -0.78078254981E+03  0.50552453775E+03  0.63080738581E+03  0.11238747289E+04  0.00000000000E+00 0.  1.
         22    1    3    3    0    0 -0.23098541883E+03  0.18403945948E+03  0.12701836898E+03  0.32149409390E+03  0.00000000000E+00 0.  1.
</event>
<event>
 7    1  0.6999029E-005  0.3040906E+03  0.7818608E-02  0.1250304E+00
          2   -1    0    0  502    0  0.00000000000E+00  0.00000000000E+00  0.13916852898E+04  0.13916852898E+04  0.00000000000E+00 0. -1.
          1   -1    0    0  501    0 -0.00000000000E+00 -0.00000000000E+00 -0.18998338402E+03  0.18998338402E+03  0.00000000000E+00 0. -1.
         25    2    1    2    0    0 -0.20360699325E+03 -0.20069288124E+03 -0.11777962352E+02  0.31224542598E+03  0.12500018145E+03 0.  0.
          2    1    1    2  501    0  0.15337699776E+02 -0.41291254310E+02  0.51951068999E+02  0.68111131887E+02  0.00000000000E+00 0. -1.
          1    1    1    2  502    0  0.18826929347E+03  0.24198413555E+03  0.11615287991E+04  0.12013121159E+04  0.00000000000E+00 0. -1.
         22    1    3    3    0    0  0.14759178780E+02 -0.10359443910E+02  0.11902190466E+02  0.21605868978E+02  0.00000000000E+00 0.  1.
         22    1    3    3    0    0 -0.21836617203E+03 -0.19033343733E+03 -0.23680152818E+02  0.29063955700E+03  0.00000000000E+00 0.  1.
</event>
<event>
 7    1  0.6999029E-005  0.1190355E+03  0.7818608E-02  0.1302169E+00
          2   -1    0    0  502    0  0.00000000000E+00  0.00000000000E+00  0.12842235295E+04  0.12842235295E+04  0.00000000000E+00 0. -1.
          1   -1    0    0  501    0 -0.00000000000E+00 -0.00000000000E+00 -0.59751901067E+03  0.59751901067E+03  0.00000000000E+00 0. -1.
         25    2    1    2    0    0  0.65752637470E+02  0.10489285091E+03  0.63561702929E+03  0.65951407871E+03  0.12499557025E+03 0.  0.
          2    1    1    2  501    0  0.45154689523E+02 -0.51476381336E+02 -0.57757860485E+03  0.58162342508E+03  0.00000000000E+00 0. -1.
          1    1    1    2  502    0 -0.11090732699E+03 -0.53416469574E+02  0.62866609435E+03  0.64060503634E+03  0.00000000000E+00 0. -1.
         22    1    3    3    0    0  0.68912497745E+02  0.10130215206E+02  0.15946055277E+03  0.17400925693E+03  0.00000000000E+00 0. -1.
         22    1    3    3    0    0 -0.31598602755E+01  0.94762635704E+02  0.47615647652E+03  0.48550482178E+03  0.00000000000E+00 0. -1.
</event>
<event>
 7    1  0.6999029E-005  0.7619066E+03  0.7818608E-02  0.1097233E+00
          2   -1    0    0  502    0  0.00000000000E+00  0.00000000000E+00  0.25521045639E+04  0.25521045639E+04  0.00000000000E+00 0. -1.
          1   -1    0    0  501    0 -0.00000000000E+00 -0.00000000000E+00 -0.75846930257E+03  0.75846930257E+03  0.00000000000E+00 0. -1.
         25    2    1    2    0    0  0.44994790391E+03 -0.55162682904E+03  0.32934333509E+03  0.79425343607E+03  0.12500485429E+03 0.  0.
          2    1    1    2  501    0 -0.44439084523E+03  0.65231871057E+03 -0.22756924113E+03  0.82145644011E+03  0.00000000000E+00 0. -1.
          1    1    1    2  502    0 -0.55570586788E+01 -0.10069188153E+03  0.16918611674E+04  0.16948639903E+04  0.00000000000E+00 0. -1.
         22    1    3    3    0    0  0.36580100131E+03 -0.50552633723E+03  0.26061675682E+03  0.67623098430E+03  0.00000000000E+00 0. -1.
         22    1    3    3    0    0  0.84146902598E+02 -0.46100491814E+02  0.68726578266E+02  0.11802245177E+03  0.00000000000E+00 0. -1.
</event>
<event>
 7    1  0.6999029E-005  0.3182067E+02  0.7818608E-02  0.1595761E+00
          2   -1    0    0  502    0  0.00000000000E+00  0.00000000000E+00  0.13041607614E+04  0.13041607614E+04  0.00000000000E+00 0. -1.
          1   -1    0    0  501    0 -0.00000000000E+00 -0.00000000000E+00 -0.48625735979E+02  0.48625735979E+02  0.00000000000E+00 0. -1.
         25    2    1    2    0    0  0.24376927309E+02 -0.42932967998E+02  0.55411236666E+03  0.57017804236E+03  0.12500004314E+03 0.  0.
          2    1    1    2  501    0  0.34966052845E+01  0.28470135271E+02 -0.35149012894E+02  0.45367697299E+02  0.00000000000E+00 0. -1.
          1    1    1    2  502    0 -0.27873532593E+02  0.14462832727E+02  0.73657167167E+03  0.73724075773E+03  0.00000000000E+00 0. -1.
         22    1    3    3    0    0  0.69024588797E+02 -0.47649701584E+02  0.27592830877E+03  0.28839438188E+03  0.00000000000E+00 0.  1.
         22    1    3    3    0    0 -0.44647661488E+02  0.47167335867E+01  0.27818405788E+03  0.28178366048E+03  0.00000000000E+00 0.  1.
</event>
<event>
 7    1  0.6999029E-005  0.9029825E+02  0.7818608E-02  0.1413587E+00
          2   -1    0    0  502    0  0.00000000000E+00  0.00000000000E+00  0.48739546919E+03  0.48739546919E+03  0.00000000000E+00 0. -1.
          1   -1    0    0  501    0 -0.00000000000E+00 -0.00000000000E+00 -0.73247797563E+03  0.73247797563E+03  0.00000000000E+00 0. -1.
         25    2    1    2    0    0 -0.12186523385E+03  0.33175169095E+01 -0.97516008677E+02  0.19999031525E+03  0.12499845242E+03 0.  0.
          2    1    1    2  501    0  0.87549492441E+02 -0.11285216113E+02 -0.57966655856E+03  0.58634937438E+03  0.00000000000E+00 0. -1.
          1    1    1    2  502    0  0.34315741409E+02  0.79676992037E+01  0.43210006079E+03  0.43353375517E+03  0.00000000000E+00 0. -1.
         22    1    3    3    0    0 -0.14468601257E+02  0.34779369221E+02  0.15690557552E+02  0.40806109126E+02  0.00000000000E+00 0.  1.
         22    1    3    3    0    0 -0.10739663259E+03 -0.31461852311E+02 -0.11320656623E+03  0.15918420613E+03  0.00000000000E+00 0.  1.
</event>
<event>
 7    1  0.8120474E-005  0.2067500E+03  0.7818608E-02  0.1281205E+00
          2   -1    0    0  502    0  0.00000000000E+00  0.00000000000E+00  0.65691204264E+03  0.65691204264E+03  0.00000000000E+00 0. -1.
          1   -1    0    0  501    0 -0.00000000000E+00 -0.00000000000E+00 -0.21417722036E+04  0.21417722036E+04  0.00000000000E+00 0. -1.
         25    2    1    2    0    0 -0.68334206215E+02  0.20040807425E+03 -0.11438263254E+04  0.11699557374E+04  0.12499921886E+03 0.  0.
          2    1    1    2  501    0 -0.40974259916E+02 -0.24909397711E+02 -0.96767346713E+03  0.96886082957E+03  0.00000000000E+00 0. -1.
          1    1    1    2  502    0  0.10930846613E+03 -0.17549867654E+03  0.62663963162E+03  0.65986767927E+03  0.00000000000E+00 0. -1.
         22    1    3    3    0    0 -0.54153996105E+02  0.22642305493E+02 -0.43958244881E+03  0.44348400038E+03  0.00000000000E+00 0.  1.
         22    1    3    3    0    0 -0.14180210110E+02  0.17776576876E+03 -0.70424387664E+03  0.72647173702E+03  0.00000000000E+00 0.  1.
</event>
<event>
 7    1  0.6999029E-005  0.5455021E+03  0.7818608E-02  0.1047057E+00
          2   -1    0    0  502    0  0.00000000000E+00  0.00000000000E+00  0.48825195483E+03  0.48825195483E+03  0.00000000000E+00 0. -1.
          1   -1    0    0  501    0 -0.00000000000E+00 -0.00000000000E+00 -0.28234428099E+04  0.28234428099E+04  0.00000000000E+00 0. -1.
         25    2    1    2    0    0 -0.52206776279E+03  0.29942640856E+03 -0.21335724313E+04  0.22203530602E+04  0.12500187679E+03 0.  0.
          2    1    1    2  501    0  0.25619451585E+03 -0.38657985465E+03 -0.50022669442E+03  0.68213368175E+03  0.00000000000E+00 0. -1.
          1    1    1    2  502    0  0.26587324695E+03  0.87153446088E+02  0.29860827065E+03  0.40920802278E+03  0.00000000000E+00 0. -1.
         22    1    3    3    0    0 -0.43880333993E+03  0.26824360222E+03 -0.16371511845E+04  0.17160323430E+04  0.00000000000E+00 0.  1.
         22    1    3    3    0    0 -0.83264422861E+02  0.31182806344E+02 -0.49642124681E+03  0.50432071722E+03  0.00000000000E+00 0.  1.
</event>
<event>
 7    1  0.6999029E-005  0.5686970E+03  0.7818608E-02  0.1238272E+00
          2   -1    0    0  502    0  0.00000000000E+00  0.00000000000E+00  0.13350861163E+04  0.13350861163E+04  0.00000000000E+00 0. -1.
          1   -1    0    0  501    0 -0.00000000000E+00 -0.00000000000E+00 -0.32181654472E+03  0.32181654472E+03  0.00000000000E+00 0. -1.
         25    2    1    2    0    0 -0.28587453836E+03 -0.49696394441E+03  0.17662705943E+03  0.61279219428E+03  0.12497896429E+03 0.  0.
          2    1    1    2  501    0  0.25928887720E+03  0.49642615728E+03  0.66055667926E+03  0.86602816235E+03  0.00000000000E+00 0. -1.
          1    1    1    2  502    0  0.26585661159E+02  0.53778713183E+00  0.17608583287E+03  0.17808230437E+03  0.00000000000E+00 0. -1.
         22    1    3    3    0    0 -0.10828299578E+03 -0.21515624950E+03  0.13763915050E+03  0.27742017704E+03  0.00000000000E+00 0.  1.
         22    1    3    3    0    0 -0.17759154258E+03 -0.28180769491E+03  0.38987908932E+02  0.33537201724E+03  0.00000000000E+00 0.  1.
</event>
<event>
 7    1  0.6999029E-005  0.2236923E+03  0.7818608E-02  0.1233798E+00
          2   -1    0    0  502    0  0.00000000000E+00  0.00000000000E+00  0.43655389878E+03  0.43655389878E+03  0.00000000000E+00 0. -1.
          1   -1    0    0  501    0 -0.00000000000E+00 -0.00000000000E+00 -0.13004503648E+04  0.13004503648E+04  0.00000000000E+00 0. -1.
         25    2    1    2    0    0 -0.25187843630E+03  0.35238569175E+02 -0.65753785385E+03  0.71600668172E+03  0.12500014237E+03 0.  0.
          2    1    1    2  501    0  0.30985722819E+02 -0.63622421560E+02 -0.58092709592E+03  0.58522151218E+03  0.00000000000E+00 0. -1.
          1    1    1    2  502    0  0.22089271348E+03  0.28383852385E+02  0.37456848371E+03  0.43577606972E+03  0.00000000000E+00 0. -1.
         22    1    3    3    0    0 -0.35550385845E+02 -0.38861319536E+02 -0.15978331952E+03  0.16824012983E+03  0.00000000000E+00 0.  1.
         22    1    3    3    0    0 -0.21632805045E+03  0.74099888711E+02 -0.49775453433E+03  0.54776655188E+03  0.00000000000E+00 0.  1.
</event>
<event>
 7    1  0.6999029E-005  0.1025314E+04  0.7818608E-02  0.1013275E+00
          2   -1    0    0  502    0  0.00000000000E+00  0.00000000000E+00  0.23040965266E+04  0.23040965266E+04  0.00000000000E+00 0. -1.
          1   -1    0    0  501    0 -0.00000000000E+00 -0.00000000000E+00 -0.62378068710E+03  0.62378068710E+03  0.00000000000E+00 0. -1.
         25    2    1    2    0    0 -0.74248218641E+03  0.88150482461E+03  0.74560502168E+03  0.13783623507E+04  0.12500147397E+03 0.  0.
          2    1    1    2  501    0  0.52212224986E+03 -0.77278850701E+03  0.52089405641E+03  0.10682435763E+04  0.00000000000E+00 0. -1.
          1    1    1    2  502    0  0.22035993655E+03 -0.10871631760E+03  0.41381676138E+03  0.48127128664E+03  0.00000000000E+00 0. -1.
         22    1    3    3    0    0 -0.44339489867E+03  0.58386601943E+03  0.41606666064E+03  0.84297688634E+03  0.00000000000E+00 0. -1.
         22    1    3    3    0    0 -0.29908728774E+03  0.29763880519E+03  0.32953836104E+03  0.53538546435E+03  0.00000000000E+00 0. -1.
</event>
<event>
 7    1  0.6999029E-005  0.1662018E+03  0.7818608E-02  0.1210427E+00
          2   -1    0    0  502    0  0.00000000000E+00  0.00000000000E+00  0.36174244294E+04  0.36174244294E+04  0.00000000000E+00 0. -1.
          1   -1    0    0  501    0 -0.00000000000E+00 -0.00000000000E+00 -0.13046668105E+04  0.13046668105E+04  0.00000000000E+00 0. -1.
         25    2    1    2    0    0 -0.26353822346E+03 -0.87194026623E+02  0.40080431356E+03  0.50331254188E+03  0.12499689415E+03 0.  0.
          2    1    1    2  501    0  0.14195306987E+03  0.83988702784E+02 -0.12468111098E+04  0.12576735346E+04  0.00000000000E+00 0. -1.
          1    1    1    2  502    0  0.12158515359E+03  0.32053238395E+01  0.31587644152E+04  0.31611051634E+04  0.00000000000E+00 0. -1.
         22    1    3    3    0    0 -0.95363517983E+02  0.28549369942E+02  0.14809150479E+03  0.17843867539E+03  0.00000000000E+00 0.  1.
         22    1    3    3    0    0 -0.16817470548E+03 -0.11574339657E+03  0.25271280877E+03  0.32487386649E+03  0.00000000000E+00 0.  1.
</event>
<event>
 7    1  0.6999029E-005  0.3820882E+03  0.7818608E-02  0.1154003E+00
          2   -1    0    0  502    0  0.00000000000E+00  0.00000000000E+00  0.14209760248E+03  0.14209760248E+03  0.00000000000E+00 0. -1.
          1   -1    0    0  501    0 -0.00000000000E+00 -0.00000000000E+00 -0.18004257744E+04  0.18004257744E+04  0.00000000000E+00 0. -1.
         25    2    1    2    0    0  0.22494964902E+03  0.38162952327E+03 -0.87387389820E+03  0.98768650050E+03  0.12500238270E+03 0.  0.
          2    1    1    2  501    0 -0.17792205746E+03 -0.29389003642E+03 -0.78324894051E+03  0.85528154127E+03  0.00000000000E+00 0. -1.
          1    1    1    2  502    0 -0.47027591551E+02 -0.87739486858E+02 -0.12053332080E+01  0.99555335113E+02  0.00000000000E+00 0. -1.
         22    1    3    3    0    0 -0.13864552540E+02  0.48244890329E+02 -0.95606986547E+02  0.10798375404E+03  0.00000000000E+00 0. -1.
         22    1    3    3    0    0  0.23881420156E+03  0.33338463294E+03 -0.77826691165E+03  0.87970274646E+03  0.00000000000E+00 0. -1.
</event>
<event>
 7    1  0.6999029E-005  0.3778705E+03  0.7818608E-02  0.1169992E+00
          2   -1    0    0  502    0  0.00000000000E+00  0.00000000000E+00  0.43651760707E+03  0.43651760707E+03  0.00000000000E+00 0. -1.
          1   -1    0    0  501    0 -0.00000000000E+00 -0.00000000000E+00 -0.66804208315E+03  0.66804208315E+03  0.00000000000E+00 0. -1.
         25    2    1    2    0    0  0.10640128020E+03  0.33450251678E+03  0.69121025748E+02  0.37896479300E+03  0.12499372774E+03 0.  0.
          2    1    1    2  501    0 -0.35535102996E+02  0.75693951825E+02 -0.29779475933E+03  0.30931219920E+03  0.00000000000E+00 0. -1.
          1    1    1    2  502    0 -0.70866177202E+02 -0.41019646861E+03 -0.28507424937E+01  0.41628269801E+03  0.00000000000E+00 0. -1.
         22    1    3    3    0    0  0.82126171338E+02  0.33030650464E+03  0.43015313495E+02  0.34307056449E+03  0.00000000000E+00 0.  1.
         22    1    3    3    0    0  0.24275108860E+02  0.41960121391E+01  0.26105712253E+02  0.35894228509E+02  0.00000000000E+00 0.  1.
</event>
<event>
 7    1  0.6999029E-005  0.2350568E+03  0.7818608E-02  0.1309476E+00
          2   -1    0    0  502    0  0.00000000000E+00  0.00000000000E+00  0.26400907023E+04  0.26400907023E+04  0.00000000000E+00 0. -1.
          1   -1    0    0  501    0 -0.00000000000E+00 -0.00000000000E+00 -0.31524238464E+03  0.31524238464E+03  0.00000000000E+00 0. -1.
         25    2    1    2    0    0  0.34212204202E+02  0.24044963605E+03 -0.19005047604E+03  0.33276266336E+03  0.12500121716E+03 0.  0.
          2    1    1    2  501    0 -0.39843079859E+02 -0.20850454968E+03  0.15596484125E+03  0.26341345819E+03  0.00000000000E+00 0. -1.
          1    1    1    2  502    0  0.56308756565E+01 -0.31945086373E+02  0.23589339524E+04  0.23591569653E+04  0.00000000000E+00 0. -1.
         22    1    3    3    0    0 -0.11867660610E+02  0.55753205638E+02 -0.11460636826E+03  0.12799953497E+03  0.00000000000E+00 0. -1.
         22    1    3    3    0    0  0.46079864812E+02  0.18469643041E+03 -0.75444107775E+02  0.20476312838E+03  0.00000000000E+00 0. -1.
</event>
<event>
 7    1  0.6999029E-005  0.1170127E+03  0.7818608E-02  0.1299428E+00
          2   -1    0    0  502    0  0.00000000000E+00  0.00000000000E+00  0.41121466504E+02  0.41121466504E+02  0.00000000000E+00 0. -1.
          1   -1    0    0  501    0 -0.00000000000E+00 -0.00000000000E+00 -0.16382271366E+04  0.16382271366E+04  0.00000000000E+00 0. -1.
         25    2    1    2    0    0 -0.16956645636E+03  0.15786581015E+02 -0.13167266158E+04  0.13335647597E+04  0.12499595236E+03 0.  0.
          2    1    1    2  501    0  0.63322275948E+02 -0.33071707973E+02 -0.38768499987E+02  0.81280041158E+02  0.00000000000E+00 0. -1.
          1    1    1    2  502    0  0.10624418041E+03  0.17285126958E+02 -0.24161055428E+03  0.26450380228E+03  0.00000000000E+00 0. -1.
         22    1    3    3    0    0 -0.17582749293E+03 -0.17839595499E+02 -0.10750503182E+04  0.10894800342E+04  0.00000000000E+00 0.  1.
         22    1    3    3    0    0  0.62610365730E+01  0.33626176513E+02 -0.24167629767E+03  0.24408472542E+03  0.00000000000E+00 0.  1.
</event>
<event>
 7    1  0.6999029E-005  0.7978926E+02  0.7818608E-02  0.1374627E+00
          2   -1    0    0  502    0  0.00000000000E+00  0.00000000000E+00  0.53410067361E+03  0.53410067361E+03  0.00000000000E+00 0. -1.
          1   -1    0    0  501    0 -0.00000000000E+00 -0.00000000000E+00 -0.23180439622E+04  0.23180439622E+04  0.00000000000E+00 0. -1.
         25    2    1    2    0    0  0.10093079863E+03  0.88012611359E+02  0.11107551578E+03  0.21423585299E+03  0.12500393846E+03 0.  0.
          2    1    1    2  501    0 -0.58582672713E+02 -0.53827276379E+02 -0.22637677065E+04  0.22651652333E+04  0.00000000000E+00 0. -1.
          1    1    1    2  502    0 -0.42348125916E+02 -0.34185334980E+02  0.36874890212E+03  0.37274354952E+03  0.00000000000E+00 0. -1.
         22    1    3    3    0    0  0.28286484136E+02  0.10031689977E+03  0.39347709698E+02  0.11140847285E+03  0.00000000000E+00 0. -1.
         22    1    3    3    0    0  0.72644314493E+02 -0.12304288410E+02  0.71727806078E+02  0.10282738014E+03  0.00000000000E+00 0. -1.
</event>
<event>
 7    1  0.6999029E-005  0.9263104E+03  0.7818608E-02  0.1081074E+00
          2   -1    0    0  502    0  0.00000000000E+00  0.00000000000E+00  0.15300172118E+04  0.15300172118E+04  0.00000000000E+00 0. -1.
          1   -1    0    0  501    0 -0.00000000000E+00 -0.00000000000E+00 -0.11452142058E+04  0.11452142058E+04  0.00000000000E+00 0. -1.
         25    2    1    2    0    0 -0.46263997241E+03  0.74746298941E+03 -0.12305062029E+03  0.89638312714E+03  0.12499836349E+03 0.  0.
          2    1    1    2  501    0  0.54942631216E+03 -0.80243940341E+03 -0.25798608989E+03  0.10061486427E+04  0.00000000000E+00 0. -1.
          1    1    1    2  502    0 -0.86786339755E+02  0.54976414008E+02  0.76583971609E+03  0.77269964773E+03  0.00000000000E+00 0. -1.
         22    1    3    3    0    0 -0.27619902217E+03  0.49575965581E+03 -0.13341921320E+03  0.58297874972E+03  0.00000000000E+00 0.  1.
         22    1    3    3    0    0 -0.18644095023E+03  0.25170333360E+03  0.10368592913E+02  0.31340437742E+03  0.00000000000E+00 0.  1.
</event>
<event>
 7    1  0.6999029E-005  0.9884151E+02  0.7818608E-02  0.1317446E+00
          2   -1    0    0  502    0  0.00000000000E+00  0.00000000000E+00  0.14644814897E+04  0.14644814897E+04  0.00000000000E+00 0. -1.
          1   -1    0    0  501    0 -0.00000000000E+00 -0.00000000000E+00 -0.38167461626E+03  0.38167461626E+03  0.00000000000E+00 0. -1.
         25    2    1    2    0    0  0.87522544793E+02  0.84921135287E+02 -0.83619545532E+02  0.19362136245E+03  0.12500083414E+03 0.  0.
          2    1    1    2  501    0 -0.97190420952E+02 -0.13788620418E+02 -0.23218446219E+03  0.25208278097E+03  0.00000000000E+00 0. -1.
          1    1    1    2  502    0  0.96678761586E+01 -0.71132514868E+02  0.13986108812E+04  0.14004519626E+04  0.00000000000E+00 0. -1.
         22    1    3    3    0    0 -0.27817802774E+02  0.43216625398E+02 -0.17550471958E+02  0.54309538093E+02  0.00000000000E+00 0. -1.
         22    1    3    3    0    0  0.11534034757E+03  0.41704509889E+02 -0.66069073574E+02  0.13931182435E+03  0.00000000000E+00 0. -1.
</event>
<event>
 7    1  0.6999029E-005  0.3114331E+03  0.7818608E-02  0.1273738E+00
          2   -1    0    0  502    0  0.00000000000E+00  0.00000000000E+00  0.21045803792E+04  0.21045803792E+04  0.00000000000E+00 0. -1.
          1   -1    0    0  501    0 -0.00000000000E+00 -0.00000000000E+00 -0.35711404429E+03  0.35711404429E+03  0.00000000000E+00 0. -1.
         25    2    1    2    0    0  0.72238156465E+01  0.34236103758E+03  0.13764082453E+03  0.38965785340E+03  0.12499993031E+03 0.  0.
          2    1    1    2  501    0 -0.13287238276E+01 -0.34161562586E+02 -0.21685295136E+03  0.21953127426E+03  0.00000000000E+00 0. -1.
          1    1    1    2  502    0 -0.58950918189E+01 -0.30819947499E+03  0.18266784618E+04  0.18525052959E+04  0.00000000000E+00 0. -1.
         22    1    3    3    0    0 -0.27640036800E+02  0.20699635054E+03  0.25366227529E+02  0.21036850114E+03  0.00000000000E+00 0.  1.
         22    1    3    3    0    0  0.34863852446E+02  0.13536468704E+03  0.11227459700E+03  0.17928935226E+03  0.00000000000E+00 0.  1.
</event>
<event>
 7    1  0.6999029E-005  0.9428259E+02  0.7818608E-02  0.1358824E+00
          2   -1    0    0  502    0  0.00000000000E+00  0.00000000000E+00  0.51864124130E+02  0.51864124130E+02  0.00000000000E+00 0. -1.
          1   -1    0    0  501    0 -0.00000000000E+00 -0.00000000000E+00 -0.88011462623E+03  0.88011462623E+03  0.00000000000E+00 0. -1.
         25    2    1    2    0    0 -0.11303465130E+03  0.25065267839E+02 -0.25252917024E+03  0.30461123530E+03  0.12494768026E+03 0.  0.
          2    1    1    2  501    0  0.25120639381E+02 -0.46133228188E+02 -0.51678946842E+03  0.51945228456E+03  0.00000000000E+00 0. -1.
          1    1    1    2  502    0  0.87914011922E+02  0.21067960348E+02 -0.58931863447E+02  0.10791523050E+03  0.00000000000E+00 0. -1.
         22    1    3    3    0    0  0.23144575857E+02 -0.26533465409E+01 -0.10570022009E+02  0.25581966397E+02  0.00000000000E+00 0. -1.
         22    1    3    3    0    0 -0.13617922716E+03  0.27718614380E+02 -0.24195914823E+03  0.27902926891E+03  0.00000000000E+00 0. -1.
</event>
<event>
 7    1  0.6999029E-005  0.2307797E+03  0.7818608E-02  0.1334097E+00
          2   -1    0    0  502    0  0.00000000000E+00  0.00000000000E+00  0.13763349639E+04  0.13763349639E+04  0.00000000000E+00 0. -1.
          1   -1    0    0  501    0 -0.00000000000E+00 -0.00000000000E+00 -0.13638518709E+04  0.13638518709E+04  0.00000000000E+00 0. -1.
         25    2    1    2    0    0 -0.62622618494E+02 -0.24014832802E+03 -0.29756790390E+03  0.40714233525E+03  0.12500164767E+03 0.  0.
          2    1    1    2  501    0  0.71690653738E+02  0.21521519854E+03 -0.99864254369E+03  0.10240820580E+04  0.00000000000E+00 0. -1.
          1    1    1    2  502    0 -0.90680352431E+01  0.24933129486E+02  0.13086935405E+04  0.13089624415E+04  0.00000000000E+00 0. -1.
         22    1    3    3    0    0 -0.44181256610E+02 -0.12191151330E+03 -0.63777971126E+02  0.14450615943E+03  0.00000000000E+00 0.  1.
         22    1    3    3    0    0 -0.18441361885E+02 -0.11823681472E+03 -0.23378993278E+03  0.26263617582E+03  0.00000000000E+00 0.  1.
</event>
<event>
 7    1  0.6999029E-005  0.1910343E+03  0.7818608E-02  0.1277086E+00
          2   -1    0    0  502    0  0.00000000000E+00  0.00000000000E+00  0.18178219738E+04  0.18178219738E+04  0.00000000000E+00 0. -1.
          1   -1    0    0  501    0 -0.00000000000E+00 -0.00000000000E+00 -0.23730775715E+04  0.23730775715E+04  0.00000000000E+00 0. -1.
         25    2    1    2    0    0  0.13093856442E+03 -0.13939309558E+03  0.17310776944E+04  0.17460895397E+04  0.12499341622E+03 0.  0.
          2    1    1    2  501    0  0.36447442536E+02  0.39808556146E+02 -0.22450685301E+04  0.22457172222E+04  0.00000000000E+00 0. -1.
          1    1    1    2  502    0 -0.16738600696E+03  0.99584539435E+02 -0.41264761947E+02  0.19909278339E+03  0.00000000000E+00 0. -1.
         22    1    3    3    0    0  0.49665862876E+01 -0.90860956662E+02  0.57486079624E+03  0.58201831198E+03  0.00000000000E+00 0.  1.
         22    1    3    3    0    0  0.12597197813E+03 -0.48532138920E+02  0.11562168981E+04  0.11640712278E+04  0.00000000000E+00 0.  1.
</event>
<event>
 7    1  0.6999029E-005  0.1926438E+03  0.7818608E-02  0.1259626E+00
          2   -1    0    0  502    0  0.00000000000E+00  0.00000000000E+00  0.13181310345E+04  0.13181310345E+04  0.00000000000E+00 0. -1.
          1   -1    0    0  501    0 -0.00000000000E+00 -0.00000000000E+00 -0.12214557252E+04  0.12214557252E+04  0.00000000000E+00 0. -1.
         25    2    1    2    0    0 -0.10003289772E+03 -0.23493949119E+03  0.78393389361E+03  0.83389496986E+03  0.12500130420E+03 0.  0.
          2    1    1    2  501    0  0.72499104601E+02  0.17783542243E+03 -0.11867524752E+04  0.12021909145E+04  0.00000000000E+00 0. -1.
          1    1    1    2  502    0  0.27533793120E+02  0.57104068766E+02  0.49949389091E+03  0.50350087536E+03  0.00000000000E+00 0. -1.
         22    1    3    3    0    0 -0.24443146124E+02 -0.20506608304E+02  0.27044165508E+03  0.27231723628E+03  0.00000000000E+00 0. -1.
         22    1    3    3    0    0 -0.75589751597E+02 -0.21443288289E+03  0.51349223853E+03  0.56157773357E+03  0.00000000000E+00 0. -1.
</event>
<event>
 7    1  0.6999029E-005  0.2205124E+03  0.7818608E-02  0.1172026E+00
          2   -1    0    0  502    0  0.00000000000E+00  0.00000000000E+00  0.93129528583E+03  0.93129528583E+03  0.00000000000E+00 0. -1.
          1   -1    0    0  501    0 -0.00000000000E+00 -0.00000000000E+00 -0.43896112007E+03  0.43896112007E+03  0.00000000000E+00 0. -1.
         25    2    1    2    0    0  0.74595146147E+02 -0.30048542700E+03 -0.97454002192E+02  0.34783238842E+03  0.12503663554E+03 0.  0.
          2    1    1    2  501    0  0.55981260254E+02  0.12832269932E+03 -0.17705505666E+03  0.22571909478E+03  0.00000000000E+00 0. -1.
          1    1    1    2  502    0 -0.13057640640E+03  0.17216272768E+03  0.76684322461E+03  0.79670492269E+03  0.00000000000E+00 0. -1.
         22    1    3    3    0    0  0.41788346195E+02 -0.29799932674E+03 -0.85483024582E+02  0.31282137412E+03  0.00000000000E+00 0. -1.
         22    1    3    3    0    0  0.32806799952E+02 -0.24861002591E+01 -0.11970977610E+02  0.35011014303E+02  0.00000000000E+00 0. -1.
</event>
<event>
 7    1  0.6999029E-005  0.3314313E+03  0.7818608E-02  0.1234805E+00
          2   -1    0    0  502    0  0.00000000000E+00  0.00000000000E+00  0.92837813729E+03  0.92837813729E+03  0.00000000000E+00 0. -1.
          1   -1    0    0  501    0 -0.00000000000E+00 -0.00000000000E+00 -0.32928280519E+03  0.32928280519E+03  0.00000000000E+00 0. -1.
         25    2    1    2    0    0 -0.67319839061E+02  0.33496506532E+03 -0.74440067569E+02  0.37134402275E+03  0.12498601465E+03 0.  0.
          2    1    1    2  501    0  0.24193509458E+02 -0.31560734842E+03  0.13237913911E+03  0.34309992822E+03  0.00000000000E+00 0. -1.
          1    1    1    2  502    0  0.43126329602E+02 -0.19357716903E+02  0.54115626057E+03  0.54321699151E+03  0.00000000000E+00 0. -1.
         22    1    3    3    0    0 -0.93401038067E+02  0.31213179830E+03 -0.51690616377E+02  0.32988169583E+03  0.00000000000E+00 0.  1.
         22    1    3    3    0    0  0.26081199006E+02  0.22833267024E+02 -0.22749451191E+02  0.41462326926E+02  0.00000000000E+00 0.  1.
</event>
<event>
 7    1  0.9402628E-005  0.4189355E+03  0.7818608E-02  0.1161031E+00
          2   -1    0    0  502    0  0.00000000000E+00  0.00000000000E+00  0.15473774097E+04  0.15473774097E+04  0.00000000000E+00 0. -1.
          1   -1    0    0  501    0 -0.00000000000E+00 -0.00000000000E+00 -0.11468661364E+04  0.11468661364E+04  0.00000000000E+00 0. -1.
         25    2    1    2    0    0 -0.43902056133E+03  0.11340380893E+03 -0.43131284613E+03  0.63816280309E+03  0.12498605867E+03 0.  0.
          2    1    1    2  501    0  0.22977331882E+02 -0.80412137200E+02 -0.57890374508E+03  0.58491334029E+03  0.00000000000E+00 0. -1.
          1    1    1    2  502    0  0.41604322945E+03 -0.32991671726E+02  0.14107278645E+04  0.14711674028E+04  0.00000000000E+00 0. -1.
         22    1    3    3    0    0 -0.39827232319E+03  0.78121629773E+02 -0.41804428915E+03  0.58265329326E+03  0.00000000000E+00 0. -1.
         22    1    3    3    0    0 -0.40748238146E+02  0.35282179153E+02 -0.13268556982E+02  0.55509509835E+02  0.00000000000E+00 0. -1.
</event>
<event>
 7    1  0.6999029E-005  0.5344210E+03  0.7818608E-02  0.1270922E+00
          2   -1    0    0  502    0  0.00000000000E+00  0.00000000000E+00  0.94791807425E+03  0.94791807425E+03  0.00000000000E+00 0. -1.
          1   -1    0    0  501    0 -0.00000000000E+00 -0.00000000000E+00 -0.59366548090E+03  0.59366548090E+03  0.00000000000E+00 0. -1.
         25    2    1    2    0    0 -0.27896631207E+03 -0.46832056360E+03 -0.26921963189E+03  0.62068832119E+03  0.12501371247E+03 0.  0.
          2    1    1    2  501    0  0.20219796843E+02  0.31934224633E+01 -0.54928457702E+02  0.58618884303E+02  0.00000000000E+00 0. -1.
          1    1    1    2  502    0  0.25874651523E+03  0.46512714114E+03  0.67840068294E+03  0.86227634966E+03  0.00000000000E+00 0. -1.
         22    1    3    3    0    0 -0.16293481033E+03 -0.36834185151E+03 -0.22458928888E+03  0.46115487710E+03  0.00000000000E+00 0. -1.
         22    1    3    3    0    0 -0.11603150174E+03 -0.99978712088E+02 -0.44630343013E+02  0.15953344409E+03  0.00000000000E+00 0. -1.
</event>
<event>
 7    1  0.6999029E-005  0.3545322E+03  0.7818608E-02  0.1114652E+00
          2   -1    0    0  502    0  0.00000000000E+00  0.00000000000E+00  0.37947670763E+04  0.37947670763E+04  0.00000000000E+00 0. -1.
          1   -1    0    0  501    0 -0.00000000000E+00 -0.00000000000E+00 -0.11231606887E+04  0.11231606887E+04  0.00000000000E+00 0. -1.
         25    2    1    2    0    0 -0.15099591038E+03  0.31799153702E+03  0.60399148959E+03  0.71017546321E+03  0.12500034596E+03 0.  0.
          2    1    1    2  501    0 -0.18092151426E+02 -0.35601602304E+03 -0.10378969335E+04  0.10974082099E+04  0.00000000000E+00 0. -1.
          1    1    1    2  502    0  0.16908806180E+03  0.38024486020E+02  0.31055118315E+04  0.31103440919E+04  0.00000000000E+00 0. -1.
         22    1    3    3    0    0 -0.70392172095E+02  0.14874945693E+03  0.16595936160E+03  0.23371771121E+03  0.00000000000E+00 0.  1.
         22    1    3    3    0    0 -0.80603738283E+02  0.16924208009E+03  0.43803212799E+03  0.47645775201E+03  0.00000000000E+00 0.  1.
</event>
<event>
 7    1  0.6999029E-005  0.1071780E+03  0.7818608E-02  0.1454755E+00
          2   -1    0    0  502    0  0.00000000000E+00  0.00000000000E+00  0.10208772743E+03  0.10208772743E+03  0.00000000000E+00 0. -1.
          1   -1    0    0  501    0 -0.00000000000E+00 -0.00000000000E+00 -0.10990240208E+04  0.10990240208E+04  0.00000000000E+00 0. -1.
         25    2    1    2    0    0 -0.11584118497E+03  0.49808795408E+02 -0.13550946012E+03  0.22335667328E+03  0.12500117392E+03 0.  0.
          2    1    1    2  501    0  0.99951729037E+02 -0.34937604418E+02 -0.91438741201E+03  0.92049732405E+03  0.00000000000E+00 0. -1.
          1    1    1    2  502    0  0.15889455936E+02 -0.14871190989E+02  0.52960578776E+02  0.57257750879E+02  0.00000000000E+00 0. -1.
         22    1    3    3    0    0 -0.33827831233E+01  0.77025589517E+01 -0.96835173134E+02  0.97199914568E+02  0.00000000000E+00 0.  1.
         22    1    3    3    0    0 -0.11245840185E+03  0.42106236456E+02 -0.38674286983E+02  0.12615675871E+03  0.00000000000E+00 0.  1.
</event>
<event>
 7    1  0.6999029E-005  0.5865275E+03  0.7818608E-02  0.1238794E+00
          2   -1    0    0  502    0  0.00000000000E+00  0.00000000000E+00  0.14125598890E+04  0.14125598890E+04  0.00000000000E+00 0. -1.
          1   -1    0    0  501    0 -0.00000000000E+00 -0.00000000000E+00 -0.41978091247E+03  0.41978091247E+03  0.00000000000E+00 0. -1.
         25    2    1    2    0    0 -0.55094103605E+03 -0.20268704835E+03  0.18386130211E+03  0.62773275510E+03  0.12500147452E+03 0.  0.
          2    1    1    2  501    0  0.55853043340E+03  0.17818967727E+03  0.23738863031E+03  0.63250388767E+03  0.00000000000E+00 0. -1.
          1    1    1    2  502    0 -0.75893973478E+01  0.24497371079E+02  0.57152904407E+03  0.57210415866E+03  0.00000000000E+00 0. -1.
         22    1    3    3    0    0 -0.25471459179E+03 -0.52156494991E+02  0.30543587181E+02  0.26178757411E+03  0.00000000000E+00 0. -1.
         22    1    3    3    0    0 -0.29622644426E+03 -0.15053055336E+03  0.15331771493E+03  0.36594518098E+03  0.00000000000E+00 0. -1.
</event>
<event>
 7    1  0.6999029E-005  0.3882059E+03  0.7818608E-02  0.1303224E+00
          2   -1    0    0  502    0  0.00000000000E+00  0.00000000000E+00  0.73942582042E+03  0.73942582042E+03  0.00000000000E+00 0. -1.
          1   -1    0    0  501    0 -0.00000000000E+00 -0.00000000000E+00 -0.12517341643E+04  0.12517341643E+04  0.00000000000E+00 0. -1.
         25    2    1    2    0    0  0.22011250347E+03  0.33584471105E+03  0.43796297684E+03  0.60718838455E+03  0.12499992452E+03 0.  0.
          2    1    1    2  501    0 -0.19968167216E+03 -0.33197526371E+03 -0.11343724835E+04  0.11986998278E+04  0.00000000000E+00 0. -1.
          1    1    1    2  502    0 -0.20430831315E+02 -0.38694473421E+01  0.18410116277E+03  0.18527177234E+03  0.00000000000E+00 0. -1.
         22    1    3    3    0    0  0.12287517485E+03  0.11547253887E+03  0.25050269317E+03  0.30196657946E+03  0.00000000000E+00 0. -1.
         22    1    3    3    0    0  0.97237328620E+02  0.22037217218E+03  0.18746028368E+03  0.30522180510E+03  0.00000000000E+00 0. -1.
</event>
<event>
 7    1  0.6999029E-005  0.2657507E+03  0.7818608E-02  0.1122678E+00
          2   -1    0    0  502    0  0.00000000000E+00  0.00000000000E+00  0.89177431783E+03  0.89177431783E+03  0.00000000000E+00 0. -1.
          1   -1    0    0  501    0 -0.00000000000E+00 -0.00000000000E+00 -0.34727851529E+03  0.34727851529E+03  0.00000000000E+00 0. -1.
         25    2    1    2    0    0 -0.30061120593E+03 -0.22118785654E+03  0.49010027439E+03  0.62858203038E+03  0.12500369977E+03 0.  0.
          2    1    1    2  501    0  0.25802270534E+03  0.16488900540E+02 -0.16554701398E+03  0.30700718908E+03  0.00000000000E+00 0. -1.
          1    1    1    2  502    0  0.42588500598E+02  0.20469895600E+03  0.21994254214E+03  0.30346361365E+03  0.00000000000E+00 0. -1.
         22    1    3    3    0    0 -0.28610516194E+03 -0.21578509827E+03  0.39952363548E+03  0.53669219077E+03  0.00000000000E+00 0. -1.
         22    1    3    3    0    0 -0.14506043992E+02 -0.54027582683E+01  0.90576638903E+02  0.91889839613E+02  0.00000000000E+00 0. -1.
</event>
<event>
 7    1  0.6999029E-005  0.2881599E+03  0.7818608E-02  0.1132641E+00
          2   -1    0    0  502    0  0.00000000000E+00  0.00000000000E+00  0.13818088932E+04  0.13818088932E+04  0.00000000000E+00 0. -1.
          1   -1    0    0  501    0 -0.00000000000E+00 -0.00000000000E+00 -0.48606221697E+03  0.48606221697E+03  0.00000000000E+00 0. -1.
         25    2    1    2    0    0 -0.14194383640E+03  0.20016325893E+03  0.26710257127E+02  0.27668201399E+03  0.12500446437E+03 0.  0.
          2    1    1    2  501    0  0.21518081662E+02 -0.32089972908E+03 -0.28190704714E+03  0.42768124484E+03  0.00000000000E+00 0. -1.
          1    1    1    2  502    0  0.12042575474E+03  0.12073647015E+03  0.11509434663E+04  0.11635078514E+04  0.00000000000E+00 0. -1.
         22    1    3    3    0    0 -0.14758046483E+03  0.17199176460E+03  0.58272741220E+02  0.23400186550E+03  0.00000000000E+00 0. -1.
         22    1    3    3    0    0  0.56366284286E+01  0.28171494331E+02 -0.31562484093E+02  0.42680148488E+02  0.00000000000E+00 0. -1.
</event>
<event>
 7    1  0.6999029E-005  0.7299521E+03  0.7818608E-02  0.9960967E-01
          2   -1    0    0  502    0  0.00000000000E+00  0.00000000000E+00  0.19467195117E+04  0.19467195117E+04  0.00000000000E+00 0. -1.
          1   -1    0    0  501    0 -0.00000000000E+00 -0.00000000000E+00 -0.21212978596E+04  0.21212978596E+04  0.00000000000E+00 0. -1.
         25    2    1    2    0    0  0.86532110585E+03  0.41783179222E+03 -0.16655851939E+04  0.19269577787E+04  0.12501287982E+03 0.  0.
          2    1    1    2  501    0 -0.42361481931E+03  0.15561791978E+03 -0.34420966378E+02  0.45260496575E+03  0.00000000000E+00 0. -1.
          1    1    1    2  502    0 -0.44170628654E+03 -0.57344971200E+03  0.15254278124E+04  0.16884546268E+04  0.00000000000E+00 0. -1.
         22    1    3    3    0    0  0.48575936324E+03  0.16766847448E+03 -0.91604803925E+03  0.10503422711E+04  0.00000000000E+00 0.  1.
         22    1    3    3    0    0  0.37956174261E+03  0.25016331774E+03 -0.74953715465E+03  0.87661550762E+03  0.00000000000E+00 0.  1.
</event>
<event>
 7    1  0.6999029E-005  0.4710574E+03  0.7818608E-02  0.1101001E+00
          2   -1    0    0  502    0  0.00000000000E+00  0.00000000000E+00  0.14100030941E+04  0.14100030941E+04  0.00000000000E+00 0. -1.
          1   -1    0    0  501    0 -0.00000000000E+00 -0.00000000000E+00 -0.11329184274E+04  0.11329184274E+04  0.00000000000E+00 0. -1.
         25    2    1    2    0    0  0.32806995199E+03 -0.42859589553E+03 -0.72212538865E+03  0.91017274205E+03  0.12500003350E+03 0.  0.
          2    1    1    2  501    0 -0.23601177710E+03  0.30350014884E+03 -0.19319071693E+03  0.43027497299E+03  0.00000000000E+00 0. -1.
          1    1    1    2  502    0 -0.92058174890E+02  0.12509574669E+03  0.11924007723E+04  0.12024738065E+04  0.00000000000E+00 0. -1.
         22    1    3    3    0    0  0.15496119081E+03 -0.19215417114E+03 -0.22993002251E+03  0.33734850140E+03  0.00000000000E+00 0.  1.
         22    1    3    3    0    0  0.17310876118E+03 -0.23644172439E+03 -0.49219536614E+03  0.57282424065E+03  0.00000000000E+00 0.  1.
</event>
<event>
 7    1  0.6999029E-005  0.4462946E+02  0.7818608E-02  0.1484415E+00
          2   -1    0    0  502    0  0.00000000000E+00  0.00000000000E+00  0.46616494841E+03  0.46616494841E+03  0.00000000000E+00 0. -1.
          1   -1    0    0  501    0 -0.00000000000E+00 -0.00000000000E+00 -0.26282278410E+03  0.26282278410E+03  0.00000000000E+00 0. -1.
         25    2    1    2    0    0 -0.12105623483E+02 -0.12215620140E+02 -0.46209944627E+02  0.13437284998E+03  0.12499974534E+03 0.  0.
          2    1    1    2  501    0 -0.29122133473E+02  0.30616204218E+02 -0.16871111359E+03  0.17392208160E+03  0.00000000000E+00 0. -1.
          1    1    1    2  502    0  0.41227756957E+02 -0.18400584078E+02  0.41826322252E+03  0.42069280093E+03  0.00000000000E+00 0. -1.
         22    1    3    3    0    0  0.36703640200E+02 -0.50201454890E+02 -0.10842997604E+02  0.63126174239E+02  0.00000000000E+00 0.  1.
         22    1    3    3    0    0 -0.48809263684E+02  0.37985834750E+02 -0.35366947023E+02  0.71246675745E+02  0.00000000000E+00 0.  1.
</event>
<event>
 7    1  0.6999029E-005  0.3356253E+03  0.7818608E-02  0.1169772E+00
          2   -1    0    0  502    0  0.00000000000E+00  0.00000000000E+00  0.10154283153E+04  0.10154283153E+04  0.00000000000E+00 0. -1.
          1   -1    0    0  501    0 -0.00000000000E+00 -0.00000000000E+00 -0.61867564938E+03  0.61867564938E+03  0.00000000000E+00 0. -1.
         25    2    1    2    0    0  0.35294368270E+03  0.23123967459E+03  0.57994714208E+03  0.72801408542E+03  0.12499916285E+03 0.  0.
          2    1    1    2  501    0 -0.28288419995E+03 -0.16799676804E+03 -0.48713500447E+03  0.58783237172E+03  0.00000000000E+00 0. -1.
          1    1    1    2  502    0 -0.70059482742E+02 -0.63242906546E+02  0.30394052828E+03  0.31825750751E+03  0.00000000000E+00 0. -1.
         22    1    3    3    0    0  0.34066142926E+03  0.24181700801E+03  0.57561304859E+03  0.71123558436E+03  0.00000000000E+00 0. -1.
         22    1    3    3    0    0  0.12282253431E+02 -0.10577333421E+02  0.43340934876E+01  0.16778501065E+02  0.00000000000E+00 0. -1.
</event>
<event>
 7    1  0.6999029E-005  0.2995206E+03  0.7818608E-02  0.1110873E+00
          2   -1    0    0  502    0  0.00000000000E+00  0.00000000000E+00  0.11216880974E+04  0.11216880974E+04  0.00000000000E+00 0. -1.
          1   -1    0    0  501    0 -0.00000000000E+00 -0.00000000000E+00 -0.89747964466E+03  0.89747964466E+03  0.00000000000E+00 0. -1.
         25    2    1    2    0    0 -0.17021227876E+03 -0.46504229459E+03 -0.45651897823E+03  0.68503248003E+03  0.12499346228E+03 0.  0.
          2    1    1    2  501    0  0.12299083421E+03  0.17659668013E+03 -0.26667035177E+03  0.34267507823E+03  0.00000000000E+00 0. -1.
          1    1    1    2  502    0  0.47221444550E+02  0.28844561446E+03  0.94739778274E+03  0.99146018381E+03  0.00000000000E+00 0. -1.
         22    1    3    3    0    0 -0.61455829432E+02 -0.10584359688E+03 -0.51278106783E+02  0.13269939791E+03  0.00000000000E+00 0.  1.
         22    1    3    3    0    0 -0.10875644932E+03 -0.35919869771E+03 -0.40524087144E+03  0.55233308211E+03  0.00000000000E+00 0.  1.
</event>
<event>
 7    1  0.6999029E-005  0.1810838E+03  0.7818608E-02  0.1294262E+00
          2   -1    0    0  502    0  0.00000000000E+00  0.00000000000E+00  0.15681554252E+04  0.15681554252E+04  0.00000000000E+00 0. -1.
          1   -1    0    0  501    0 -0.00000000000E+00 -0.00000000000E+00 -0.56048889601E+03  0.56048889601E+03  0.00000000000E+00 0. -1.
         25    2    1    2    0    0 -0.14763976422E+03 -0.12761569663E+03 -0.17781336943E+03  0.29210523334E+03  0.12499842796E+03 0.  0.
          2    1    1    2  501    0  0.15755940635E+03  0.80217500541E+02 -0.30109933798E+03  0.34917134083E+03  0.00000000000E+00 0. -1.
          1    1    1    2  502    0 -0.99196421358E+01  0.47398196088E+02  0.14865792366E+04  0.14873677471E+04  0.00000000000E+00 0. -1.
         22    1    3    3    0    0  0.10081760081E+02 -0.32789529574E+02  0.25836364290E+01  0.34401603352E+02  0.00000000000E+00 0. -1.
         22    1    3    3    0    0 -0.15772152430E+03 -0.94826167054E+02 -0.18039700586E+03  0.25770362998E+03  0.00000000000E+00 0. -1.
</event>
<event>
 7    1  0.6999029E-005  0.1858981E+03  0.7818608E-02  0.1239627E+00
          2   -1    0    0  502    0  0.00000000000E+00  0.00000000000E+00  0.28321172155E+03  0.28321172155E+03  0.00000000000E+00 0. -1.
          1   -1    0    0  501    0 -0.00000000000E+00 -0.00000000000E+00 -0.39422467431E+03  0.39422467431E+03  0.00000000000E+00 0. -1.
         25    2    1    2    0    0 -0.69334728459E+02  0.13296222511E+03 -0.22577207493E+03  0.29847002005E+03  0.12500026070E+03 0.  0.
          2    1    1    2  501    0 -0.79604405716E+02 -0.10027753455E+02 -0.73832955168E+02  0.10903541864E+03  0.00000000000E+00 0. -1.
          1    1    1    2  502    0  0.14893913418E+03 -0.12293447165E+03  0.18859207733E+03  0.26993095717E+03  0.00000000000E+00 0. -1.
         22    1    3    3    0    0 -0.91372439606E+02  0.10399338044E+03 -0.22233553844E+03  0.26190959805E+03  0.00000000000E+00 0. -1.
         22    1    3    3    0    0  0.22037711146E+02  0.28968844669E+02 -0.34365364870E+01  0.36560422003E+02  0.00000000000E+00 0. -1.
</event>
<event>
 7    1  0.6999029E-005  0.5819623E+03  0.7818608E-02  0.1095617E+00
          2   -1    0    0  502    0  0.00000000000E+00  0.00000000000E+00  0.27780705009E+04  0.27780705009E+04  0.00000000000E+00 0. -1.
          1   -1    0    0  501    0 -0.00000000000E+00 -0.00000000000E+00 -0.52057759355E+03  0.52057759355E+03  0.00000000000E+00 0. -1.
         25    2    1    2    0    0 -0.71950568960E+02  0.65000146864E+03 -0.19372648196E+03  0.69342133557E+03  0.12499762075E+03 0.  0.
          2    1    1    2  501    0 -0.93559371751E+02 -0.97104407111E+02  0.64050088845E+02  0.14928173299E+03  0.00000000000E+00 0. -1.
          1    1    1    2  502    0  0.16550994071E+03 -0.55289706153E+03  0.23871693004E+04  0.24559450259E+04  0.00000000000E+00 0. -1.
         22    1    3    3    0    0 -0.52974371026E+02  0.17230456527E+03 -0.10035148473E+03  0.20631424499E+03  0.00000000000E+00 0. -1.
         22    1    3    3    0    0 -0.18976197934E+02  0.47769690338E+03 -0.93374997232E+02  0.48710709058E+03  0.00000000000E+00 0. -1.
</event>
<event>
 7    1  0.6999029E-005  0.1272492E+04  0.7818608E-02  0.1126195E+00
          2   -1    0    0  502    0  0.00000000000E+00  0.00000000000E+00  0.26536074273E+04  0.26536074273E+04  0.00000000000E+00 0. -1.
          1   -1    0    0  501    0 -0.00000000000E+00 -0.00000000000E+00 -0.32329994033E+04  0.32329994033E+04  0.00000000000E+00 0. -1.
         25    2    1    2    0    0  0.71770442298E+03  0.10386860072E+04  0.60274881085E+03  0.14045992171E+04  0.12499828574E+03 0.  0.
          2    1    1    2  501    0 -0.22887944260E+02  0.34978132402E+02 -0.25840630091E+04  0.25844010839E+04  0.00000000000E+00 0. -1.
          1    1    1    2  502    0 -0.69481647872E+03 -0.10736641396E+04  0.14019222222E+04  0.18976065295E+04  0.00000000000E+00 0. -1.
         22    1    3    3    0    0  0.13959760470E+03  0.12450854829E+03  0.90793828993E+02  0.20792640337E+03  0.00000000000E+00 0. -1.
         22    1    3    3    0    0  0.57810681828E+03  0.91417745893E+03  0.51195498186E+03  0.11966728138E+04  0.00000000000E+00 0. -1.
</event>
<event>
 7    1  0.6999029E-005  0.2975693E+03  0.7818608E-02  0.1280100E+00
          2   -1    0    0  502    0  0.00000000000E+00  0.00000000000E+00  0.10330927057E+04  0.10330927057E+04  0.00000000000E+00 0. -1.
          1   -1    0    0  501    0 -0.00000000000E+00 -0.00000000000E+00 -0.16198743002E+03  0.16198743002E+03  0.00000000000E+00 0. -1.
         25    2    1    2    0    0  0.62163500485E+02 -0.28985676103E+03  0.13352372824E+03  0.34833098109E+03  0.12499857469E+03 0.  0.
          2    1    1    2  501    0 -0.29826828611E+02  0.29923199682E+03  0.36621497317E+03  0.47385950893E+03  0.00000000000E+00 0. -1.
          1    1    1    2  502    0 -0.32336671873E+02 -0.93752357841E+01  0.37136657424E+03  0.37288964568E+03  0.00000000000E+00 0. -1.
         22    1    3    3    0    0 -0.50114835951E+01  0.97618178939E+01 -0.42686950851E+01  0.11774116279E+02  0.00000000000E+00 0.  1.
         22    1    3    3    0    0  0.67174984080E+02 -0.29961857893E+03  0.13779242333E+03  0.33655686481E+03  0.00000000000E+00 0.  1.
</event>
<event>
 7    1  0.6999029E-005  0.3224673E+03  0.7818608E-02  0.1107188E+00
          2   -1    0    0  502    0  0.00000000000E+00  0.00000000000E+00  0.22470960242E+04  0.22470960242E+04  0.00000000000E+00 0. -1.
          1   -1    0    0  501    0 -0.00000000000E+00 -0.00000000000E+00 -0.22460917737E+03  0.22460917737E+03  0.00000000000E+00 0. -1.
         25    2    1    2    0    0 -0.28768707010E+02  0.44451729519E+03  0.83178880361E+03  0.95179882771E+03  0.12500052155E+03 0.  0.
          2    1    1    2  501    0 -0.10461132122E+03 -0.18152716153E+03 -0.73301866518E+02  0.22196576884E+03  0.00000000000E+00 0. -1.
          1    1    1    2  502    0  0.13338002823E+03 -0.26299013366E+03  0.12639999098E+04  0.12979406051E+04  0.00000000000E+00 0. -1.
         22    1    3    3    0    0  0.13783927030E+02  0.20116499768E+03  0.26079561688E+03  0.32965391962E+03  0.00000000000E+00 0. -1.
         22    1    3    3    0    0 -0.42552634040E+02  0.24335229751E+03  0.57099318674E+03  0.62214490809E+03  0.00000000000E+00 0. -1.
</event>
<event>
 7    1  0.6999029E-005  0.1296314E+03  0.7818608E-02  0.1258932E+00
          2   -1    0    0  502    0  0.00000000000E+00  0.00000000000E+00  0.19244689228E+04  0.19244689228E+04  0.00000000000E+00 0. -1.
          1   -1    0    0  501    0 -0.00000000000E+00 -0.00000000000E+00 -0.13630564931E+04  0.13630564931E+04  0.00000000000E+00 0. -1.
         25    2    1    2    0    0  0.35882959615E+02  0.21841759952E+03  0.30208824000E+03  0.39481227028E+03  0.12500235776E+03 0.  0.
          2    1    1    2  501    0 -0.36413215538E+02 -0.12356265032E+03 -0.13121102733E+04  0.13184183783E+04  0.00000000000E+00 0. -1.
          1    1    1    2  502    0  0.53025592230E+00 -0.94854949204E+02  0.15714344631E+04  0.15742947673E+04  0.00000000000E+00 0. -1.
         22    1    3    3    0    0  0.81170579446E+02  0.11910271125E+03  0.18835559259E+03  0.23717493134E+03  0.00000000000E+00 0.  1.
         22    1    3    3    0    0 -0.45287619831E+02  0.99314888269E+02  0.11373264741E+03  0.15763733894E+03  0.00000000000E+00 0.  1.
</event>
<event>
 7    1  0.6999029E-005  0.2874245E+03  0.7818608E-02  0.1199189E+00
          2   -1    0    0  502    0  0.00000000000E+00  0.00000000000E+00  0.10870823578E+04  0.10870823578E+04  0.00000000000E+00 0. -1.
          1   -1    0    0  501    0 -0.00000000000E+00 -0.00000000000E+00 -0.66389443610E+03  0.66389443610E+03  0.00000000000E+00 0. -1.
         25    2    1    2    0    0 -0.17833104579E+03 -0.29306632045E+03  0.61195815001E+02  0.37021461433E+03  0.12499641122E+03 0.  0.
          2    1    1    2  501    0  0.17804505843E+03  0.21368600974E+03 -0.46938484060E+03  0.54560414421E+03  0.00000000000E+00 0. -1.
          1    1    1    2  502    0  0.28598736020E+00  0.79380310715E+02  0.83137694732E+03  0.83515803538E+03  0.00000000000E+00 0. -1.
         22    1    3    3    0    0 -0.29324284911E+02 -0.53632373666E+02  0.63571390437E+02  0.88191081594E+02  0.00000000000E+00 0.  1.
         22    1    3    3    0    0 -0.14900676088E+03 -0.23943394679E+03 -0.23755754360E+01  0.28202353274E+03  0.00000000000E+00 0.  1.
</event>
<event>
 7    1  0.6999029E-005  0.1552902E+03  0.7818608E-02  0.1231735E+00
          2   -1    0    0  502    0  0.00000000000E+00  0.00000000000E+00  0.18935770428E+03  0.18935770428E+03  0.00000000000E+00 0. -1.
          1   -1    0    0  501    0 -0.00000000000E+00 -0.00000000000E+00 -0.65349239584E+03  0.65349239584E+03  0.00000000000E+00 0. -1.
         25    2    1    2    0    0  0.24806801913E+03  0.21794286076E+01 -0.91734720848E+02  0.29254577059E+03  0.12500110743E+03 0.  0.
          2    1    1    2  501    0 -0.14403107992E+03  0.20215978011E+01 -0.41387554785E+03  0.43822597818E+03  0.00000000000E+00 0. -1.
          1    1    1    2  502    0 -0.10403693921E+03 -0.42010264087E+01  0.41475577142E+02  0.11207835135E+03  0.00000000000E+00 0. -1.
         22    1    3    3    0    0  0.82829956747E+02 -0.58883704505E+02 -0.32832563773E+02  0.10679920241E+03  0.00000000000E+00 0.  1.
         22    1    3    3    0    0  0.16523806238E+03  0.61063133112E+02 -0.58902157075E+02  0.18574656818E+03  0.00000000000E+00 0.  1.
</event>
<event>
 7    1  0.6999029E-005  0.8170476E+02  0.7818608E-02  0.1328109E+00
          2   -1    0    0  502    0  0.00000000000E+00  0.00000000000E+00  0.72639818638E+02  0.72639818638E+02  0.00000000000E+00 0. -1.
          1   -1    0    0  501    0 -0.00000000000E+00 -0.00000000000E+00 -0.65857606899E+03  0.65857606899E+03  0.00000000000E+00 0. -1.
         25    2    1    2    0    0 -0.22870619709E+02 -0.64920893016E+02 -0.23951811863E+03  0.27880189128E+03  0.12499511126E+03 0.  0.
          2    1    1    2  501    0  0.88717898102E+02  0.16549383409E+02 -0.35862159085E+03  0.36980291097E+03  0.00000000000E+00 0. -1.
          1    1    1    2  502    0 -0.65847278392E+02  0.48371509607E+02  0.12203459120E+02  0.82611085381E+02  0.00000000000E+00 0. -1.
         22    1    3    3    0    0  0.33573798449E+02  0.21134475678E+02 -0.61883056777E+02  0.73507677970E+02  0.00000000000E+00 0.  1.
         22    1    3    3    0    0 -0.56444418158E+02 -0.86055368695E+02 -0.17763506185E+03  0.20529421331E+03  0.00000000000E+00 0.  1.
</event>
<event>
 7    1  0.6999029E-005  0.2421752E+03  0.7818608E-02  0.1295910E+00
          2   -1    0    0  502    0  0.00000000000E+00  0.00000000000E+00  0.15189992469E+03  0.15189992469E+03  0.00000000000E+00 0. -1.
          1   -1    0    0  501    0 -0.00000000000E+00 -0.00000000000E+00 -0.13858806823E+04  0.13858806823E+04  0.00000000000E+00 0. -1.
         25    2    1    2    0    0  0.97733253528E+02  0.25506061949E+03 -0.30425010640E+02  0.30192482430E+03  0.12500083919E+03 0.  0.
          2    1    1    2  501    0 -0.75723004554E+02 -0.22700467534E+03 -0.11149943567E+04  0.11403848086E+04  0.00000000000E+00 0. -1.
          1    1    1    2  502    0 -0.22010248974E+02 -0.28055944146E+02 -0.88561390262E+02  0.95470974159E+02  0.00000000000E+00 0. -1.
         22    1    3    3    0    0  0.99297173980E+01  0.72219486804E+01  0.29758951995E+02  0.32192406779E+02  0.00000000000E+00 0. -1.
         22    1    3    3    0    0  0.87803536130E+02  0.24783867081E+03 -0.60183962635E+02  0.26973241752E+03  0.00000000000E+00 0. -1.
</event>
<event>
 7    1  0.6999029E-005  0.4701483E+03  0.7818608E-02  0.1088028E+00
          2   -1    0    0  502    0  0.00000000000E+00  0.00000000000E+00  0.53744403930E+03  0.53744403930E+03  0.00000000000E+00 0. -1.
          1   -1    0    0  501    0 -0.00000000000E+00 -0.00000000000E+00 -0.10201161813E+04  0.10201161813E+04  0.00000000000E+00 0. -1.
         25    2    1    2    0    0  0.61915877682E+02 -0.47929709575E+03 -0.43976350020E+03  0.66526381841E+03  0.12499892026E+03 0.  0.
          2    1    1    2  501    0  0.12136546770E+03  0.45845685107E+03 -0.31081589551E+03  0.56702626213E+03  0.00000000000E+00 0. -1.
          1    1    1    2  502    0 -0.18328134538E+03  0.20840244684E+02  0.26790725376E+03  0.32527014001E+03  0.00000000000E+00 0. -1.
         22    1    3    3    0    0  0.80352574182E+02 -0.34107889808E+03 -0.25307889858E+03  0.43225025136E+03  0.00000000000E+00 0.  1.
         22    1    3    3    0    0 -0.18436696500E+02 -0.13821819767E+03 -0.18668460163E+03  0.23301356705E+03  0.00000000000E+00 0.  1.
</event>
<event>
 7    1  0.6999029E-005  0.3555463E+03  0.7818608E-02  0.1092813E+00
          2   -1    0    0  502    0  0.00000000000E+00  0.00000000000E+00  0.10163848023E+04  0.10163848023E+04  0.00000000000E+00 0. -1.
          1   -1    0    0  501    0 -0.00000000000E+00 -0.00000000000E+00 -0.23254900712E+04  0.23254900712E+04  0.00000000000E+00 0. -1.
         25    2    1    2    0    0  0.18281342294E+03  0.27335585496E+03 -0.16062153207E+03  0.38674288514E+03  0.12500644619E+03 0.  0.
          2    1    1    2  501    0 -0.20901323085E+03  0.93514403785E+02 -0.20075885497E+04  0.20206046767E+04  0.00000000000E+00 0. -1.
          1    1    1    2  502    0  0.26199807903E+02 -0.36687025875E+03  0.85910481289E+03  0.93452731165E+03  0.00000000000E+00 0. -1.
         22    1    3    3    0    0  0.18017013652E+03  0.27882159875E+03 -0.13161342355E+03  0.35710622409E+03  0.00000000000E+00 0.  1.
         22    1    3    3    0    0  0.26432864218E+01 -0.54657437893E+01 -0.29008108518E+02  0.29636661048E+02  0.00000000000E+00 0.  1.
</event>
<event>
 7    1  0.6999029E-005  0.5332200E+03  0.7818608E-02  0.1189135E+00
          2   -1    0    0  502    0  0.00000000000E+00  0.00000000000E+00  0.23689527562E+03  0.23689527562E+03  0.00000000000E+00 0. -1.
          1   -1    0    0  501    0 -0.00000000000E+00 -0.00000000000E+00 -0.35349995955E+04  0.35349995955E+04  0.00000000000E+00 0. -1.
         25    2    1    2    0    0 -0.25111767940E+03 -0.45339208061E+03 -0.19098255120E+04  0.19828472796E+04  0.12500152004E+03 0.  0.
          2    1    1    2  501    0  0.29685440143E+03  0.46720786310E+03 -0.15365782985E+04  0.16332417428E+04  0.00000000000E+00 0. -1.
          1    1    1    2  502    0 -0.45736722034E+02 -0.13815782492E+02  0.14829949063E+03  0.15580584877E+03  0.00000000000E+00 0. -1.
         22    1    3    3    0    0 -0.34009498939E+02 -0.18418160637E+03 -0.67627878966E+03  0.70173535716E+03  0.00000000000E+00 0. -1.
         22    1    3    3    0    0 -0.21710818046E+03 -0.26921047424E+03 -0.12335467224E+04  0.12811119224E+04  0.00000000000E+00 0. -1.
</event>
<event>
 7    1  0.6999029E-005  0.2791432E+03  0.7818608E-02  0.1199998E+00
          2   -1    0    0  502    0  0.00000000000E+00  0.00000000000E+00  0.38924107288E+04  0.38924107288E+04  0.00000000000E+00 0. -1.
          1   -1    0    0  501    0 -0.00000000000E+00 -0.00000000000E+00 -0.56922549600E+03  0.56922549600E+03  0.00000000000E+00 0. -1.
         25    2    1    2    0    0 -0.43784562302E+01  0.26976751790E+03  0.54531077660E+03  0.62111376161E+03  0.12499910880E+03 0.  0.
          2    1    1    2  501    0  0.85355749327E+02 -0.26711961635E+03 -0.49378631998E+03  0.56785862958E+03  0.00000000000E+00 0. -1.
          1    1    1    2  502    0 -0.80977293096E+02 -0.26479015447E+01  0.32716607762E+04  0.32726638336E+04  0.00000000000E+00 0. -1.
         22    1    3    3    0    0  0.17114382039E+02  0.15646373885E+03  0.18552382389E+03  0.24329589573E+03  0.00000000000E+00 0. -1.
         22    1    3    3    0    0 -0.21492838269E+02  0.11330377905E+03  0.35978695271E+03  0.37781786589E+03  0.00000000000E+00 0. -1.
</event>
<event>
 7    1  0.6999029E-005  0.5550618E+03  0.7818608E-02  0.1146727E+00
          2   -1    0    0  502    0  0.00000000000E+00  0.00000000000E+00  0.81942422691E+03  0.81942422691E+03  0.00000000000E+00 0. -1.
          1   -1    0    0  501    0 -0.00000000000E+00 -0.00000000000E+00 -0.10547612996E+04  0.10547612996E+04  0.00000000000E+00 0. -1.
         25    2    1    2    0    0 -0.29955078161E+03  0.42818644986E+03 -0.54539681903E+02  0.54006847539E+03  0.12500029842E+03 0.  0.
          2    1    1    2  501    0 -0.74590538112E+02  0.38583011297E+01 -0.61302119907E+03  0.61755455254E+03  0.00000000000E+00 0. -1.
          1    1    1    2  502    0  0.37414131972E+03 -0.43204475099E+03  0.43222380825E+03  0.71656249860E+03  0.00000000000E+00 0. -1.
         22    1    3    3    0    0 -0.77312202111E+02  0.66089528532E+02  0.31721058814E+02  0.10654214166E+03  0.00000000000E+00 0. -1.
         22    1    3    3    0    0 -0.22223857950E+03  0.36209692133E+03 -0.86260740717E+02  0.43352633373E+03  0.00000000000E+00 0. -1.
</event>
<event>
 7    1  0.6999029E-005  0.1829100E+03  0.7818608E-02  0.1213157E+00
          2   -1    0    0  502    0  0.00000000000E+00  0.00000000000E+00  0.46808996049E+03  0.46808996049E+03  0.00000000000E+00 0. -1.
          1   -1    0    0  501    0 -0.00000000000E+00 -0.00000000000E+00 -0.43771612023E+03  0.43771612023E+03  0.00000000000E+00 0. -1.
         25    2    1    2    0    0 -0.45054272178E+02 -0.26589626124E+03  0.25881130764E+03  0.39412939119E+03  0.12499589934E+03 0.  0.
          2    1    1    2  501    0 -0.14800937329E+02  0.17677920684E+03 -0.32306905149E+03  0.36856962402E+03  0.00000000000E+00 0. -1.
          1    1    1    2  502    0  0.59855209506E+02  0.89117054401E+02  0.94631584108E+02  0.14310706552E+03  0.00000000000E+00 0. -1.
         22    1    3    3    0    0 -0.40411112390E+02 -0.11316345084E+03  0.38821566877E+02  0.12627802130E+03  0.00000000000E+00 0. -1.
         22    1    3    3    0    0 -0.46431597878E+01 -0.15273281040E+03  0.21998974076E+03  0.26785136988E+03  0.00000000000E+00 0. -1.
</event>
<event>
 7    1  0.6999029E-005  0.6358917E+02  0.7818608E-02  0.1495640E+00
          2   -1    0    0  502    0  0.00000000000E+00  0.00000000000E+00  0.17666410463E+04  0.17666410463E+04  0.00000000000E+00 0. -1.
          1   -1    0    0  501    0 -0.00000000000E+00 -0.00000000000E+00 -0.15412415463E+03  0.15412415463E+03  0.00000000000E+00 0. -1.
         25    2    1    2    0    0  0.10747282161E+02  0.45801959572E+02  0.57158769109E+02  0.14527873696E+03  0.12500185180E+03 0.  0.
          2    1    1    2  501    0 -0.21380305050E+02  0.17176657925E+02 -0.10773316109E+03  0.11116919097E+03  0.00000000000E+00 0. -1.
          1    1    1    2  502    0  0.10633022888E+02 -0.62978617497E+02  0.16630912837E+04  0.16643172730E+04  0.00000000000E+00 0. -1.
         22    1    3    3    0    0  0.10720303376E+02 -0.41166182591E+02  0.36111914304E+02  0.55800088246E+02  0.00000000000E+00 0. -1.
         22    1    3    3    0    0  0.26978785966E-01  0.86968142163E+02  0.21046854805E+02  0.89478648718E+02  0.00000000000E+00 0. -1.
</event>
<event>
 7    1  0.6999029E-005  0.9063806E+02  0.7818608E-02  0.1309909E+00
          2   -1    0    0  502    0  0.00000000000E+00  0.00000000000E+00  0.80873618563E+03  0.80873618563E+03  0.00000000000E+00 0. -1.
          1   -1    0    0  501    0 -0.00000000000E+00 -0.00000000000E+00 -0.20494300224E+04  0.20494300224E+04  0.00000000000E+00 0. -1.
         25    2    1    2    0    0 -0.38735898998E+02  0.53153469625E+02  0.37936640082E+03  0.40480782412E+03  0.12499898875E+03 0.  0.
          2    1    1    2  501    0  0.78288694320E+02  0.45674267083E+02 -0.20288818813E+04  0.20309054499E+04  0.00000000000E+00 0. -1.
          1    1    1    2  502    0 -0.39552795322E+02 -0.98827736708E+02  0.40882164364E+03  0.42245293403E+03  0.00000000000E+00 0. -1.
         22    1    3    3    0    0 -0.29825136047E+02 -0.37988706222E+02  0.10534114947E+03  0.11588545341E+03  0.00000000000E+00 0. -1.
         22    1    3    3    0    0 -0.89107629514E+01  0.91142175848E+02  0.27402525135E+03  0.28892237070E+03  0.00000000000E+00 0. -1.
</event>
<event>
 7    1  0.6999029E-005  0.2909702E+03  0.7818608E-02  0.1205837E+00
          2   -1    0    0  502    0  0.00000000000E+00  0.00000000000E+00  0.61009301327E+03  0.61009301327E+03  0.00000000000E+00 0. -1.
          1   -1    0    0  501    0 -0.00000000000E+00 -0.00000000000E+00 -0.20263343660E+04  0.20263343660E+04  0.00000000000E+00 0. -1.
         25    2    1    2    0    0  0.31338721386E+03 -0.67509385245E+02  0.33753973525E+03  0.48200384964E+03  0.12500230114E+03 0.  0.
          2    1    1    2  501    0 -0.70360671213E+02 -0.19355702016E+02 -0.18699684660E+04  0.18713918165E+04  0.00000000000E+00 0. -1.
          1    1    1    2  502    0 -0.24302654265E+03  0.86865087261E+02  0.11618737799E+03  0.28303171310E+03  0.00000000000E+00 0. -1.
         22    1    3    3    0    0  0.11528176769E+03  0.31051160409E+02  0.86894301791E+02  0.14766407894E+03  0.00000000000E+00 0.  1.
         22    1    3    3    0    0  0.19810544617E+03 -0.98560545655E+02  0.25064543346E+03  0.33433977070E+03  0.00000000000E+00 0.  1.
</event>
<event>
 7    1  0.6999029E-005  0.2013426E+03  0.7818608E-02  0.1364623E+00
          2   -1    0    0  502    0  0.00000000000E+00  0.00000000000E+00  0.15106957518E+04  0.15106957518E+04  0.00000000000E+00 0. -1.
          1   -1    0    0  501    0 -0.00000000000E+00 -0.00000000000E+00 -0.54285143823E+03  0.54285143823E+03  0.00000000000E+00 0. -1.
         25    2    1    2    0    0 -0.18392252343E+03  0.10439952061E+03  0.17424498271E+03  0.30118652666E+03  0.12500102125E+03 0.  0.
          2    1    1    2  501    0  0.16357080086E+03 -0.11601028819E+03 -0.45829450084E+03  0.50024758206E+03  0.00000000000E+00 0. -1.
          1    1    1    2  502    0  0.20351722564E+02  0.11610767581E+02  0.12518938317E+04  0.12521130813E+04  0.00000000000E+00 0. -1.
         22    1    3    3    0    0 -0.33775401687E+02  0.76018387741E+02  0.10353813435E+03  0.13281460123E+03  0.00000000000E+00 0. -1.
         22    1    3    3    0    0 -0.15014712174E+03  0.28381132869E+02  0.70706848363E+02  0.16837192544E+03  0.00000000000E+00 0. -1.
</event>
<event>
 7    1  0.6999029E-005  0.3452584E+03  0.7818608E-02  0.1281146E+00
          2   -1    0    0  502    0  0.00000000000E+00  0.00000000000E+00  0.94648346383E+02  0.94648346383E+02  0.00000000000E+00 0. -1.
          1   -1    0    0  501    0 -0.00000000000E+00 -0.00000000000E+00 -0.20523147906E+04  0.20523147906E+04  0.00000000000E+00 0. -1.
         25    2    1    2    0    0  0.32292739578E+03  0.16489094284E+03 -0.76236877146E+03  0.85340592067E+03  0.12499758297E+03 0.  0.
          2    1    1    2  501    0 -0.30497855226E+03 -0.14245686581E+03 -0.12136501900E+04  0.12594652277E+04  0.00000000000E+00 0. -1.
          1    1    1    2  502    0 -0.17948843525E+02 -0.22434077033E+02  0.18352517306E+02  0.34091988614E+02  0.00000000000E+00 0. -1.
         22    1    3    3    0    0  0.17528457658E+03  0.42339827180E+02 -0.47292960956E+03  0.50614203476E+03  0.00000000000E+00 0. -1.
         22    1    3    3    0    0  0.14764281920E+03  0.12255111566E+03 -0.28943916191E+03  0.34726388591E+03  0.00000000000E+00 0. -1.
</event>
<event>
 7    1  0.6999029E-005  0.2701878E+03  0.7818608E-02  0.1237915E+00
          2   -1    0    0  502    0  0.00000000000E+00  0.00000000000E+00  0.24003801805E+04  0.24003801805E+04  0.00000000000E+00 0. -1.
          1   -1    0    0  501    0 -0.00000000000E+00 -0.00000000000E+00 -0.23102896204E+04  0.23102896204E+04  0.00000000000E+00 0. -1.
         25    2    1    2    0    0  0.21654865912E+03  0.18174263320E+03  0.35970755900E+03  0.47427768791E+03  0.12500436295E+03 0.  0.
          2    1    1    2  501    0 -0.48540314780E+02  0.28271803505E+02 -0.22435340388E+04  0.22442371622E+04  0.00000000000E+00 0. -1.
          1    1    1    2  502    0 -0.16800834434E+03 -0.21001443670E+03  0.19739170399E+04  0.19921549508E+04  0.00000000000E+00 0. -1.
         22    1    3    3    0    0  0.13765655291E+03  0.53387418776E+02  0.11601984874E+03  0.18777685785E+03  0.00000000000E+00 0.  1.
         22    1    3    3    0    0  0.78892106209E+02  0.12835521442E+03  0.24368771026E+03  0.28650083006E+03  0.00000000000E+00 0.  1.
</event>
<event>
 7    1  0.6999029E-005  0.1963462E+03  0.7818608E-02  0.1271064E+00
          2   -1    0    0  502    0  0.00000000000E+00  0.00000000000E+00  0.53671529989E+03  0.53671529989E+03  0.00000000000E+00 0. -1.
          1   -1    0    0  501    0 -0.00000000000E+00 -0.00000000000E+00 -0.10219843775E+04  0.10219843775E+04  0.00000000000E+00 0. -1.
         25    2    1    2    0    0  0.68390850265E+02 -0.23564946636E+03  0.15219184681E+03  0.31463551585E+03  0.12500068082E+03 0.  0.
          2    1    1    2  501    0 -0.35063365857E+02  0.19109430937E+03 -0.92806414956E+03  0.94818222953E+03  0.00000000000E+00 0. -1.
          1    1    1    2  502    0 -0.33327484407E+02  0.44555156991E+02  0.29060322514E+03  0.29588193201E+03  0.00000000000E+00 0. -1.
         22    1    3    3    0    0  0.75848096730E+02 -0.23292676132E+03  0.16793661502E+03  0.29700255315E+03  0.00000000000E+00 0. -1.
         22    1    3    3    0    0 -0.74572464652E+01 -0.27227050422E+01 -0.15744768211E+02  0.17632962700E+02  0.00000000000E+00 0. -1.
</event>
<event>
 7    1  0.6999029E-005  0.3370462E+03  0.7818608E-02  0.1113391E+00
          2   -1    0    0  502    0  0.00000000000E+00  0.00000000000E+00  0.47506087134E+03  0.47506087134E+03  0.00000000000E+00 0. -1.
          1   -1    0    0  501    0 -0.00000000000E+00 -0.00000000000E+00 -0.17341238370E+04  0.17341238370E+04  0.00000000000E+00 0. -1.
         25    2    1    2    0    0  0.16592269697E+03  0.43370198045E+03  0.24399881706E+02  0.48150823494E+03  0.12500830721E+03 0.  0.
          2    1    1    2  501    0 -0.10002017125E+03 -0.15590588260E+03 -0.14051593793E+04  0.14173156177E+04  0.00000000000E+00 0. -1.
          1    1    1    2  502    0 -0.65902525723E+02 -0.27779609785E+03  0.12169653194E+03  0.31036085572E+03  0.00000000000E+00 0. -1.
         22    1    3    3    0    0  0.28651290550E+02  0.23416865969E+03 -0.13818377208E+02  0.23631928652E+03  0.00000000000E+00 0.  1.
         22    1    3    3    0    0  0.13727140642E+03  0.19953332076E+03  0.38218258915E+02  0.24518894842E+03  0.00000000000E+00 0.  1.
</event>
<event>
 7    1  0.6999029E-005  0.1020181E+03  0.7818608E-02  0.1458166E+00
          2   -1    0    0  502    0  0.00000000000E+00  0.00000000000E+00  0.20796800859E+04  0.20796800859E+04  0.00000000000E+00 0. -1.
          1   -1    0    0  501    0 -0.00000000000E+00 -0.00000000000E+00 -0.71042306422E+02  0.71042306422E+02  0.00000000000E+00 0. -1.
         25    2    1    2    0    0 -0.10638166634E+03 -0.35918743694E+02  0.39931498119E+03  0.43322530160E+03  0.12499797062E+03 0.  0.
          2    1    1    2  501    0  0.17908409785E+02 -0.13290495695E+02 -0.50178265557E+02  0.54910898291E+02  0.00000000000E+00 0. -1.
          1    1    1    2  502    0  0.88473256556E+02  0.49209239389E+02  0.16595010639E+04  0.16625861925E+04  0.00000000000E+00 0. -1.
         22    1    3    3    0    0 -0.10245130861E+03  0.22876052993E+02  0.29889670540E+03  0.31679461002E+03  0.00000000000E+00 0. -1.
         22    1    3    3    0    0 -0.39303577305E+01 -0.58794796687E+02  0.10041827579E+03  0.11643069158E+03  0.00000000000E+00 0. -1.
</event>
<event>
 7    1  0.6999029E-005  0.5644061E+03  0.7818608E-02  0.1043955E+00
          2   -1    0    0  502    0  0.00000000000E+00  0.00000000000E+00  0.44533387383E+03  0.44533387383E+03  0.00000000000E+00 0. -1.
          1   -1    0    0  501    0 -0.00000000000E+00 -0.00000000000E+00 -0.31168385241E+04  0.31168385241E+04  0.00000000000E+00 0. -1.
         25    2    1    2    0    0  0.59589188658E+03 -0.17854354689E+03 -0.10529320804E+04  0.12293315332E+04  0.12500045578E+03 0.  0.
          2    1    1    2  501    0 -0.40979447451E+02  0.27978073422E+03 -0.17341482027E+04  0.17570505295E+04  0.00000000000E+00 0. -1.
          1    1    1    2  502    0 -0.55491243913E+03 -0.10123718733E+03  0.11557563285E+03  0.57579033520E+03  0.00000000000E+00 0. -1.
         22    1    3    3    0    0  0.96651267745E+00  0.40392953505E+01  0.19331824389E+01  0.45811841293E+01  0.00000000000E+00 0. -1.
         22    1    3    3    0    0  0.59492537390E+03 -0.18258284224E+03 -0.10548652628E+04  0.12247503491E+04  0.00000000000E+00 0. -1.
</event>
<event>
 7    1  0.6999029E-005  0.3836597E+03  0.7818608E-02  0.1202287E+00
          2   -1    0    0  502    0  0.00000000000E+00  0.00000000000E+00  0.20599579706E+03  0.20599579706E+03  0.00000000000E+00 0. -1.
          1   -1    0    0  501    0 -0.00000000000E+00 -0.00000000000E+00 -0.18440292431E+04  0.18440292431E+04  0.00000000000E+00 0. -1.
         25    2    1    2    0    0 -0.18508620965E+02  0.38875764493E+03 -0.87247675363E+03  0.96349272454E+03  0.12500987595E+03 0.  0.
          2    1    1    2  501    0 -0.38144462906E+02 -0.37890024768E+03 -0.87977364765E+03  0.95865638727E+03  0.00000000000E+00 0. -1.
          1    1    1    2  502    0  0.56653083871E+02 -0.98573972519E+01  0.11421695522E+03  0.12787592836E+03  0.00000000000E+00 0. -1.
         22    1    3    3    0    0 -0.10831408127E+02  0.11781318226E+03 -0.41706770932E+03  0.43352363197E+03  0.00000000000E+00 0. -1.
         22    1    3    3    0    0 -0.76772128384E+01  0.27094446267E+03 -0.45540904431E+03  0.52996909258E+03  0.00000000000E+00 0. -1.
</event>
<event>
 7    1  0.6999029E-005  0.2041953E+03  0.7818608E-02  0.1153147E+00
          2   -1    0    0  502    0  0.00000000000E+00  0.00000000000E+00  0.86293255963E+03  0.86293255963E+03  0.00000000000E+00 0. -1.
          1   -1    0    0  501    0 -0.00000000000E+00 -0.00000000000E+00 -0.61332692384E+03  0.61332692384E+03  0.00000000000E+00 0. -1.
         25    2    1    2    0    0  0.32684899671E+03  0.15869348956E+03 -0.27412502216E+03  0.47200425093E+03  0.12501837803E+03 0.  0.
          2    1    1    2  501    0 -0.18742877564E+03 -0.16567633448E+02 -0.18753151313E+03  0.26565409998E+03  0.00000000000E+00 0. -1.
          1    1    1    2  502    0 -0.13942022107E+03 -0.14212585611E+03  0.71126217108E+03  0.73860113257E+03  0.00000000000E+00 0. -1.
         22    1    3    3    0    0  0.22165482291E+03  0.82213295755E+02 -0.10506483212E+03  0.25870544150E+03  0.00000000000E+00 0.  1.
         22    1    3    3    0    0  0.10519417380E+03  0.76480193802E+02 -0.16906019004E+03  0.21329880943E+03  0.00000000000E+00 0.  1.
</event>
<event>
 7    1  0.6999029E-005  0.3766313E+03  0.7818608E-02  0.1192686E+00
          2   -1    0    0  502    0  0.00000000000E+00  0.00000000000E+00  0.49816817921E+03  0.49816817921E+03  0.00000000000E+00 0. -1.
          1   -1    0    0  501    0 -0.00000000000E+00 -0.00000000000E+00 -0.42437278770E+03  0.42437278770E+03  0.00000000000E+00 0. -1.
         25    2    1    2    0    0  0.73851828586E+02  0.40526124314E+03  0.45725503594E+01  0.43050727358E+03  0.12499934643E+03 0.  0.
          2    1    1    2  501    0 -0.42700111352E+02 -0.49065265172E+02 -0.81273623674E+02  0.10409659774E+03  0.00000000000E+00 0. -1.
          1    1    1    2  502    0 -0.31151717234E+02 -0.35619597797E+03  0.15049646482E+03  0.38793709559E+03  0.00000000000E+00 0. -1.
         22    1    3    3    0    0  0.37793641991E+02  0.38601861721E+03  0.15588156003E+02  0.38817743728E+03  0.00000000000E+00 0. -1.
         22    1    3    3    0    0  0.36058186595E+02  0.19242625934E+02 -0.11015605643E+02  0.42329836298E+02  0.00000000000E+00 0. -1.
</event>
<event>
 7    1  0.6999029E-005  0.1386119E+03  0.7818608E-02  0.1318866E+00
          2   -1    0    0  502    0  0.00000000000E+00  0.00000000000E+00  0.19090620983E+03  0.19090620983E+03  0.00000000000E+00 0. -1.
          1   -1    0    0  501    0 -0.00000000000E+00 -0.00000000000E+00 -0.83804589292E+03  0.83804589292E+03  0.00000000000E+00 0. -1.
         25    2    1    2    0    0 -0.37750053351E+01 -0.15255363625E+03  0.12501657454E+03  0.23352308988E+03  0.12496810394E+03 0.  0.
          2    1    1    2  501    0  0.48747341615E+02  0.12948823923E+03 -0.61386720304E+03  0.62926659722E+03  0.00000000000E+00 0. -1.
          1    1    1    2  502    0 -0.44972336280E+02  0.23065397015E+02 -0.15828905459E+03  0.16616241565E+03  0.00000000000E+00 0. -1.
         22    1    3    3    0    0 -0.14875870942E+02 -0.76132938363E+02  0.13495738872E+03  0.15566313825E+03  0.00000000000E+00 0.  1.
         22    1    3    3    0    0  0.11100865607E+02 -0.76420697884E+02 -0.99408141769E+01  0.77859951637E+02  0.00000000000E+00 0.  1.
</event>
<event>
 7    1  0.6999029E-005  0.5125877E+02  0.7818608E-02  0.1485658E+00
          2   -1    0    0  502    0  0.00000000000E+00  0.00000000000E+00  0.70069047389E+02  0.70069047389E+02  0.00000000000E+00 0. -1.
          1   -1    0    0  501    0 -0.00000000000E+00 -0.00000000000E+00 -0.11068488403E+04  0.11068488403E+04  0.00000000000E+00 0. -1.
         25    2    1    2    0    0  0.28718341939E+01  0.27463899049E+02 -0.36717207393E+03  0.38884959514E+03  0.12500465023E+03 0.  0.
          2    1    1    2  501    0  0.35632587099E+02  0.77726192887E+01 -0.71678533373E+03  0.71771255355E+03  0.00000000000E+00 0. -1.
          1    1    1    2  502    0 -0.38504421293E+02 -0.35236518337E+02  0.47177614722E+02  0.70355739030E+02  0.00000000000E+00 0. -1.
         22    1    3    3    0    0  0.17458670925E+02 -0.47475550152E+02 -0.12217418061E+03  0.13223185494E+03  0.00000000000E+00 0.  1.
         22    1    3    3    0    0 -0.14586836731E+02  0.74939449200E+02 -0.24499789333E+03  0.25661774020E+03  0.00000000000E+00 0.  1.
</event>
<event>
 7    1  0.6999029E-005  0.5878906E+03  0.7818608E-02  0.1214798E+00
          2   -1    0    0  502    0  0.00000000000E+00  0.00000000000E+00  0.14302731087E+04  0.14302731087E+04  0.00000000000E+00 0. -1.
          1   -1    0    0  501    0 -0.00000000000E+00 -0.00000000000E+00 -0.20559613896E+04  0.20559613896E+04  0.00000000000E+00 0. -1.
         25    2    1    2    0    0 -0.41772816409E+03  0.37295807936E+03 -0.98368601257E+01  0.57386060254E+03  0.12499871719E+03 0.  0.
          2    1    1    2  501    0  0.44244310948E+03 -0.39455906611E+03 -0.17140574689E+04  0.18136774158E+04  0.00000000000E+00 0. -1.
          1    1    1    2  502    0 -0.24714945396E+02  0.21600986750E+02  0.10982060481E+04  0.10986964800E+04  0.00000000000E+00 0. -1.
         22    1    3    3    0    0 -0.23249752091E+03  0.26057403038E+03 -0.52203814681E+02  0.35309936393E+03  0.00000000000E+00 0.  1.
         22    1    3    3    0    0 -0.18523064317E+03  0.11238404898E+03  0.42366954555E+02  0.22076123861E+03  0.00000000000E+00 0.  1.
</event>
<event>
 7    1  0.6999029E-005  0.3368810E+02  0.7818608E-02  0.1591035E+00
          2   -1    0    0  502    0  0.00000000000E+00  0.00000000000E+00  0.27669192272E+02  0.27669192272E+02  0.00000000000E+00 0. -1.
          1   -1    0    0  501    0 -0.00000000000E+00 -0.00000000000E+00 -0.88515323040E+03  0.88515323040E+03  0.00000000000E+00 0. -1.
         25    2    1    2    0    0 -0.43464436800E+02 -0.39847742797E+02 -0.31019417935E+03  0.33959154792E+03  0.12499996258E+03 0.  0.
          2    1    1    2  501    0  0.28570206340E+02  0.16277176621E+02 -0.54418382389E+03  0.54517633602E+03  0.00000000000E+00 0. -1.
          1    1    1    2  502    0  0.14894230460E+02  0.23570566176E+02 -0.31060348881E+01  0.28054538734E+02  0.00000000000E+00 0. -1.
         22    1    3    3    0    0  0.33932830094E+02  0.59717202708E+01 -0.31285687684E+02  0.46539151852E+02  0.00000000000E+00 0.  1.
         22    1    3    3    0    0 -0.77397266895E+02 -0.45819463068E+02 -0.27890849167E+03  0.29305239607E+03  0.00000000000E+00 0.  1.
</event>
<event>
 7    1  0.6999029E-005  0.5767256E+02  0.7818608E-02  0.1413274E+00
          2   -1    0    0  502    0  0.00000000000E+00  0.00000000000E+00  0.99735377440E+03  0.99735377440E+03  0.00000000000E+00 0. -1.
          1   -1    0    0  501    0 -0.00000000000E+00 -0.00000000000E+00 -0.22353075160E+04  0.22353075160E+04  0.00000000000E+00 0. -1.
         25    2    1    2    0    0  0.29998920351E+02  0.10304009748E+03 -0.21775386806E+03  0.27306345657E+03  0.12501882798E+03 0.  0.
          2    1    1    2  501    0 -0.31358774004E+02 -0.45538898203E+02 -0.19886613623E+04  0.19894298625E+04  0.00000000000E+00 0. -1.
          1    1    1    2  502    0  0.13598536538E+01 -0.57501199277E+02  0.96846148882E+03  0.97016797126E+03  0.00000000000E+00 0. -1.
         22    1    3    3    0    0 -0.30251580819E+02  0.97175819921E+02 -0.15844444924E+03  0.18831606839E+03  0.00000000000E+00 0. -1.
         22    1    3    3    0    0  0.60250501169E+02  0.58642775589E+01 -0.59309418821E+02  0.84747388180E+02  0.00000000000E+00 0. -1.
</event>
<event>
 7    1  0.6999029E-005  0.5000753E+02  0.7818608E-02  0.1567250E+00
          2   -1    0    0  502    0  0.00000000000E+00  0.00000000000E+00  0.30121810366E+04  0.30121810366E+04  0.00000000000E+00 0. -1.
          1   -1    0    0  501    0 -0.00000000000E+00 -0.00000000000E+00 -0.13417155395E+02  0.13417155395E+02  0.00000000000E+00 0. -1.
         25    2    1    2    0    0  0.67583048269E+01  0.68798845046E+02  0.16745308060E+04  0.16806121259E+04  0.12499896731E+03 0.  0.
          2    1    1    2  501    0 -0.12386193897E+02 -0.47781195154E+02  0.48947446584E+02  0.69514839687E+02  0.00000000000E+00 0. -1.
          1    1    1    2  502    0  0.56278890704E+01 -0.21017649892E+02  0.12752856286E+04  0.12754712263E+04  0.00000000000E+00 0. -1.
         22    1    3    3    0    0  0.57298975308E+02  0.48937992000E+02  0.60048863224E+03  0.60519806435E+03  0.00000000000E+00 0.  1.
         22    1    3    3    0    0 -0.50540670481E+02  0.19860853045E+02  0.10740421737E+04  0.10754140616E+04  0.00000000000E+00 0.  1.
</event>
<event>
 7    1  0.6999029E-005  0.3250054E+03  0.7818608E-02  0.1237015E+00
          2   -1    0    0  502    0  0.00000000000E+00  0.00000000000E+00  0.34658431036E+03  0.34658431036E+03  0.00000000000E+00 0. -1.
          1   -1    0    0  501    0 -0.00000000000E+00 -0.00000000000E+00 -0.15687013921E+04  0.15687013921E+04  0.00000000000E+00 0. -1.
         25    2    1    2    0    0 -0.19639318938E+03  0.21521388455E+03 -0.26241598740E+03  0.41156089211E+03  0.12503166210E+03 0.  0.
          2    1    1    2  501    0  0.23900364242E+03 -0.23535171694E+03 -0.12066059183E+04  0.12523621736E+04  0.00000000000E+00 0. -1.
          1    1    1    2  502    0 -0.42610453043E+02  0.20137832387E+02  0.24690482402E+03  0.25136263670E+03  0.00000000000E+00 0. -1.
         22    1    3    3    0    0 -0.53425606546E+02  0.13792464073E+03 -0.16706504039E+03  0.22313276244E+03  0.00000000000E+00 0.  1.
         22    1    3    3    0    0 -0.14296758283E+03  0.77289243826E+02 -0.95350947016E+02  0.18842812967E+03  0.00000000000E+00 0.  1.
</event>
<event>
 7    1  0.6999029E-005  0.1489208E+03  0.7818608E-02  0.1282560E+00
          2   -1    0    0  502    0  0.00000000000E+00  0.00000000000E+00  0.12317023323E+04  0.12317023323E+04  0.00000000000E+00 0. -1.
          1   -1    0    0  501    0 -0.00000000000E+00 -0.00000000000E+00 -0.12432453026E+04  0.12432453026E+04  0.00000000000E+00 0. -1.
         25    2    1    2    0    0  0.13531734905E+03 -0.15470583919E+03 -0.10878163471E+03  0.26401258107E+03  0.12499806911E+03 0.  0.
          2    1    1    2  501    0 -0.11136235090E+03  0.93504989127E+02 -0.10509021516E+04  0.10609147413E+04  0.00000000000E+00 0. -1.
          1    1    1    2  502    0 -0.23954998154E+02  0.61200850060E+02  0.11481408159E+04  0.11500203125E+04  0.00000000000E+00 0. -1.
         22    1    3    3    0    0 -0.21900586387E+02 -0.17302040325E+02  0.13603767374E+01  0.27943638066E+02  0.00000000000E+00 0. -1.
         22    1    3    3    0    0  0.15721793544E+03 -0.13740379886E+03 -0.11014201145E+03  0.23606894301E+03  0.00000000000E+00 0. -1.
</event>
<event>
 7    1  0.6999029E-005  0.3956069E+02  0.7818608E-02  0.1597777E+00
          2   -1    0    0  502    0  0.00000000000E+00  0.00000000000E+00  0.17041324671E+03  0.17041324671E+03  0.00000000000E+00 0. -1.
          1   -1    0    0  501    0 -0.00000000000E+00 -0.00000000000E+00 -0.70353510790E+03  0.70353510790E+03  0.00000000000E+00 0. -1.
         25    2    1    2    0    0  0.46424225100E+02 -0.39767488666E+02  0.11718201363E+03  0.18191404206E+03  0.12499773018E+03 0.  0.
          2    1    1    2  501    0 -0.25950251532E+02  0.29751462654E+02 -0.66417852390E+03  0.66535079221E+03  0.00000000000E+00 0. -1.
          1    1    1    2  502    0 -0.20473973568E+02  0.10016026011E+02  0.13874649081E+02  0.26683520342E+02  0.00000000000E+00 0. -1.
         22    1    3    3    0    0 -0.36903512054E+02 -0.52085303647E+01  0.71881163355E+02  0.80968510149E+02  0.00000000000E+00 0. -1.
         22    1    3    3    0    0  0.83327737154E+02 -0.34558958301E+02  0.45300850276E+02  0.10094553192E+03  0.00000000000E+00 0. -1.
</event>
<event>
 7    1  0.6999029E-005  0.4973609E+03  0.7818608E-02  0.1138556E+00
          2   -1    0    0  502    0  0.00000000000E+00  0.00000000000E+00  0.69958968620E+03  0.69958968620E+03  0.00000000000E+00 0. -1.
          1   -1    0    0  501    0 -0.00000000000E+00 -0.00000000000E+00 -0.49098016714E+03  0.49098016714E+03  0.00000000000E+00 0. -1.
         25    2    1    2    0    0 -0.20390152717E+03  0.50454714151E+03  0.10616749571E+03  0.56836801233E+03  0.12500803776E+03 0.  0.
          2    1    1    2  501    0  0.13085961577E+03 -0.44869960101E+03 -0.21490521687E+02  0.46788611168E+03  0.00000000000E+00 0. -1.
          1    1    1    2  502    0  0.73041911408E+02 -0.55847540502E+02  0.12393254503E+03  0.15431572934E+03  0.00000000000E+00 0. -1.
         22    1    3    3    0    0 -0.19529866830E+03  0.50337461831E+03  0.86432100901E+02  0.54680717283E+03  0.00000000000E+00 0. -1.
         22    1    3    3    0    0 -0.86028588783E+01  0.11725232028E+01  0.19735394811E+02  0.21560839498E+02  0.00000000000E+00 0. -1.
</event>
<event>
 7    1  0.6999029E-005  0.7774950E+02  0.7818608E-02  0.1361077E+00
          2   -1    0    0  502    0  0.00000000000E+00  0.00000000000E+00  0.12409776869E+04  0.12409776869E+04  0.00000000000E+00 0. -1.
          1   -1    0    0  501    0 -0.00000000000E+00 -0.00000000000E+00 -0.21462050935E+03  0.21462050935E+03  0.00000000000E+00 0. -1.
         25    2    1    2    0    0 -0.27452375012E+02 -0.89741550402E+02  0.22285380076E+03  0.27220597073E+03  0.12500038091E+03 0.  0.
          2    1    1    2  501    0  0.66400287623E+02  0.40855573778E+02 -0.18091136056E+03  0.19699516868E+03  0.00000000000E+00 0. -1.
          1    1    1    2  502    0 -0.38947912611E+02  0.48885976623E+02  0.98441473738E+03  0.98639705686E+03  0.00000000000E+00 0. -1.
         22    1    3    3    0    0 -0.37986040418E+02 -0.88694935431E+02  0.23621410399E+03  0.25516040790E+03  0.00000000000E+00 0. -1.
         22    1    3    3    0    0  0.10533665406E+02 -0.10466149707E+01 -0.13360303232E+02  0.17045562831E+02  0.00000000000E+00 0. -1.
</event>
<event>
 7    1  0.6999029E-005  0.1525791E+04  0.7818608E-02  0.1035866E+00
          2   -1    0    0  502    0  0.00000000000E+00  0.00000000000E+00  0.38639613396E+04  0.38639613396E+04  0.00000000000E+00 0. -1.
          1   -1    0    0  501    0 -0.00000000000E+00 -0.00000000000E+00 -0.20637008417E+04  0.20637008417E+04  0.00000000000E+00 0. -1.
         25    2    1    2    0    0  0.13686601926E+04 -0.63697916590E+03 -0.35826119160E+03  0.15565824266E+04  0.12499835585E+03 0.  0.
          2    1    1    2  501    0 -0.14426125518E+04  0.54546078183E+03 -0.56685634123E+03  0.16431629714E+04  0.00000000000E+00 0. -1.
          1    1    1    2  502    0  0.73952359188E+02  0.91518384067E+02  0.27253780308E+04  0.27279167833E+04  0.00000000000E+00 0. -1.
         22    1    3    3    0    0  0.36612395912E+03 -0.11056879107E+03 -0.89847485703E+02  0.39286738435E+03  0.00000000000E+00 0.  1.
         22    1    3    3    0    0  0.10025362335E+04 -0.52641037483E+03 -0.26841370590E+03  0.11637150423E+04  0.00000000000E+00 0.  1.
</event>
<event>
 7    1  0.6999029E-005  0.7903973E+03  0.7818608E-02  0.1218593E+00
          2   -1    0    0  502    0  0.00000000000E+00  0.00000000000E+00  0.25009257393E+04  0.25009257393E+04  0.00000000000E+00 0. -1.
          1   -1    0    0  501    0 -0.00000000000E+00 -0.00000000000E+00 -0.11556643177E+04  0.11556643177E+04  0.00000000000E+00 0. -1.
         25    2    1    2    0    0  0.65661266919E+03 -0.43432319769E+03 -0.82304403989E+03  0.11457757792E+04  0.12499522877E+03 0.  0.
          2    1    1    2  501    0 -0.66985246004E+03  0.45368486213E+03  0.78489697553E+03  0.11272069617E+04  0.00000000000E+00 0. -1.
          1    1    1    2  502    0  0.13239790849E+02 -0.19361664439E+02  0.13834084860E+04  0.13836073161E+04  0.00000000000E+00 0. -1.
         22    1    3    3    0    0  0.45169813526E+03 -0.22769019590E+03 -0.50804238878E+03  0.71692475163E+03  0.00000000000E+00 0.  1.
         22    1    3    3    0    0  0.20491453393E+03 -0.20663300179E+03 -0.31500165111E+03  0.42885102757E+03  0.00000000000E+00 0.  1.
</event>
<event>
 7    1  0.6999029E-005  0.8923138E+03  0.7818608E-02  0.1201136E+00
          2   -1    0    0  502    0  0.00000000000E+00  0.00000000000E+00  0.92221247682E+03  0.92221247682E+03  0.00000000000E+00 0. -1.
          1   -1    0    0  501    0 -0.00000000000E+00 -0.00000000000E+00 -0.19851516831E+04  0.19851516831E+04  0.00000000000E+00 0. -1.
         25    2    1    2    0    0  0.74339942093E+03 -0.49479260358E+03 -0.37232450739E+03  0.97555672595E+03  0.12499186835E+03 0.  0.
          2    1    1    2  501    0  0.12803559991E+02  0.21512809669E+02 -0.99037762495E+03  0.99069398511E+03  0.00000000000E+00 0. -1.
          1    1    1    2  502    0 -0.75620298092E+03  0.47327979391E+03  0.29976292611E+03  0.94111344881E+03  0.00000000000E+00 0. -1.
         22    1    3    3    0    0  0.11691583509E+03 -0.12167182198E+03 -0.10596033147E+03  0.19925093877E+03  0.00000000000E+00 0. -1.
         22    1    3    3    0    0  0.62648358584E+03 -0.37312078159E+03 -0.26636417592E+03  0.77630578717E+03  0.00000000000E+00 0. -1.
</event>
<event>
 7    1  0.6999029E-005  0.1251962E+03  0.7818608E-02  0.1273428E+00
          2   -1    0    0  502    0  0.00000000000E+00  0.00000000000E+00  0.48799377275E+03  0.48799377275E+03  0.00000000000E+00 0. -1.
          1   -1    0    0  501    0 -0.00000000000E+00 -0.00000000000E+00 -0.60971612086E+03  0.60971612086E+03  0.00000000000E+00 0. -1.
         25    2    1    2    0    0  0.13313171873E+03  0.12504012160E+03 -0.36946598591E+03  0.43069178953E+03  0.12502486267E+03 0.  0.
          2    1    1    2  501    0 -0.15887025083E+02 -0.83804712238E+02 -0.19197561640E+03  0.21007204634E+03  0.00000000000E+00 0. -1.
          1    1    1    2  502    0 -0.11724469365E+03 -0.41235409362E+02  0.43971925420E+03  0.45694605774E+03  0.00000000000E+00 0. -1.
         22    1    3    3    0    0  0.95136481532E+01  0.92792618469E+02 -0.16713453994E+03  0.19140254435E+03  0.00000000000E+00 0.  1.
         22    1    3    3    0    0  0.12361807058E+03  0.32247503131E+02 -0.20233144597E+03  0.23928924518E+03  0.00000000000E+00 0.  1.
</event>
<event>
 7    1  0.6999029E-005  0.9233987E+02  0.7818608E-02  0.1374084E+00
          2   -1    0    0  502    0  0.00000000000E+00  0.00000000000E+00  0.84399793829E+03  0.84399793829E+03  0.00000000000E+00 0. -1.
          1   -1    0    0  501    0 -0.00000000000E+00 -0.00000000000E+00 -0.95657948664E+02  0.95657948664E+02  0.00000000000E+00 0. -1.
         25    2    1    2    0    0 -0.75385934869E+02 -0.11249789814E+03  0.15017121406E+03  0.23775850973E+03  0.12505558426E+03 0.  0.
          2    1    1    2  501    0  0.32785335581E+02  0.34007348912E+02 -0.37297100089E+02  0.60186806562E+02  0.00000000000E+00 0. -1.
          1    1    1    2  502    0  0.42600599288E+02  0.78490549225E+02  0.63546587565E+03  0.64171057066E+03  0.00000000000E+00 0. -1.
         22    1    3    3    0    0 -0.74142900727E+02 -0.12440995827E+03  0.77797098748E+02  0.16440010954E+03  0.00000000000E+00 0.  1.
         22    1    3    3    0    0 -0.12430341421E+01  0.11912060133E+02  0.72374115310E+02  0.73358400183E+02  0.00000000000E+00 0.  1.
</event>
<event>
 7    1  0.6999029E-005  0.6234003E+02  0.7818608E-02  0.1444738E+00
          2   -1    0    0  502    0  0.00000000000E+00  0.00000000000E+00  0.13490743327E+04  0.13490743327E+04  0.00000000000E+00 0. -1.
          1   -1    0    0  501    0 -0.00000000000E+00 -0.00000000000E+00 -0.94122611185E+03  0.94122611185E+03  0.00000000000E+00 0. -1.
         25    2    1    2    0    0  0.10636348218E+02 -0.23574731234E+02 -0.11206235105E+02  0.12813903938E+03  0.12500053541E+03 0.  0.
          2    1    1    2  501    0  0.35578581256E+02 -0.18890463984E+02 -0.87032429907E+03  0.87125603047E+03  0.00000000000E+00 0. -1.
          1    1    1    2  502    0 -0.46214929474E+02  0.42465195218E+02  0.12893787551E+04  0.12909053747E+04  0.00000000000E+00 0. -1.
         22    1    3    3    0    0 -0.13321075380E+02  0.42217050570E+02  0.23359333895E+02  0.50053859872E+02  0.00000000000E+00 0. -1.
         22    1    3    3    0    0  0.23957423598E+02 -0.65791781804E+02 -0.34565569000E+02  0.78085179507E+02  0.00000000000E+00 0. -1.
</event>
<event>
 7    1  0.6999029E-005  0.1731646E+03  0.7818608E-02  0.1268735E+00
          2   -1    0    0  502    0  0.00000000000E+00  0.00000000000E+00  0.42541585279E+04  0.42541585279E+04  0.00000000000E+00 0. -1.
          1   -1    0    0  501    0 -0.00000000000E+00 -0.00000000000E+00 -0.23693813401E+03  0.23693813401E+03  0.00000000000E+00 0. -1.
         25    2    1    2    0    0 -0.44427826792E+02 -0.14333339843E+03 -0.37953106774E+01  0.19534067593E+03  0.12500112156E+03 0.  0.
          2    1    1    2  501    0  0.10680435422E+03  0.15985295975E+03 -0.69727096924E+02  0.20450429548E+03  0.00000000000E+00 0. -1.
          1    1    1    2  502    0 -0.62376527431E+02 -0.16519561324E+02  0.40907428015E+04  0.40912516905E+04  0.00000000000E+00 0. -1.
         22    1    3    3    0    0 -0.24872077488E+02 -0.13734231721E+03 -0.47214294862E+02  0.14734558688E+03  0.00000000000E+00 0.  1.
         22    1    3    3    0    0 -0.19555749304E+02 -0.59910812249E+01  0.43418984185E+02  0.47995089048E+02  0.00000000000E+00 0.  1.
</event>
<event>
 7    1  0.6999029E-005  0.1046957E+03  0.7818608E-02  0.1306146E+00
          2   -1    0    0  502    0  0.00000000000E+00  0.00000000000E+00  0.25489168034E+03  0.25489168034E+03  0.00000000000E+00 0. -1.
          1   -1    0    0  501    0 -0.00000000000E+00 -0.00000000000E+00 -0.32803025201E+03  0.32803025201E+03  0.00000000000E+00 0. -1.
         25    2    1    2    0    0  0.12489077342E+03  0.11946405473E+03 -0.18835210322E+03  0.28455566297E+03  0.12500417947E+03 0.  0.
          2    1    1    2  501    0 -0.64292835188E+02 -0.38752442464E+02 -0.60041711569E+02  0.96126622647E+02  0.00000000000E+00 0. -1.
          1    1    1    2  502    0 -0.60597938231E+02 -0.80711612264E+02  0.17525524312E+03  0.20223964674E+03  0.00000000000E+00 0. -1.
         22    1    3    3    0    0  0.72179537063E+02  0.56718221740E+02 -0.15277179831E+02  0.93060380783E+02  0.00000000000E+00 0.  1.
         22    1    3    3    0    0  0.52711236357E+02  0.62745832988E+02 -0.17307492339E+03  0.19149528219E+03  0.00000000000E+00 0.  1.
</event>
<event>
 7    1  0.1003310E-004  0.3495062E+03  0.7818608E-02  0.1217538E+00
          2   -1    0    0  502    0  0.00000000000E+00  0.00000000000E+00  0.15873974365E+04  0.15873974365E+04  0.00000000000E+00 0. -1.
          1   -1    0    0  501    0 -0.00000000000E+00 -0.00000000000E+00 -0.11329399258E+04  0.11329399258E+04  0.00000000000E+00 0. -1.
         25    2    1    2    0    0  0.37730423641E+03 -0.26192357402E+02 -0.55189578145E+03  0.68063074461E+03  0.12499892212E+03 0.  0.
          2    1    1    2  501    0 -0.29147488795E+02  0.45025718871E+02 -0.49525474973E+03  0.49815073883E+03  0.00000000000E+00 0. -1.
          1    1    1    2  502    0 -0.34815674762E+03 -0.18833361469E+02  0.15016080419E+04  0.15415558789E+04  0.00000000000E+00 0. -1.
         22    1    3    3    0    0  0.76572427800E+02  0.14468673301E+02 -0.45419227722E+02  0.90197480303E+02  0.00000000000E+00 0. -1.
         22    1    3    3    0    0  0.30073180861E+03 -0.40661030703E+02 -0.50647655373E+03  0.59043326431E+03  0.00000000000E+00 0. -1.
</event>
<event>
 7    1  0.6999029E-005  0.2102893E+03  0.7818608E-02  0.1221350E+00
          2   -1    0    0  502    0  0.00000000000E+00  0.00000000000E+00  0.20465150507E+04  0.20465150507E+04  0.00000000000E+00 0. -1.
          1   -1    0    0  501    0 -0.00000000000E+00 -0.00000000000E+00 -0.88730612288E+03  0.88730612288E+03  0.00000000000E+00 0. -1.
         25    2    1    2    0    0 -0.13845756564E+03  0.25337661601E+03  0.29354394998E+03  0.43030546358E+03  0.12499813756E+03 0.  0.
          2    1    1    2  501    0  0.44847834826E+02 -0.72964738267E+02 -0.81053020778E+03  0.81504257499E+03  0.00000000000E+00 0. -1.
          1    1    1    2  502    0  0.93609730818E+02 -0.18041187775E+03  0.16761951857E+04  0.16884731350E+04  0.00000000000E+00 0. -1.
         22    1    3    3    0    0 -0.55808024324E+02  0.16448092129E+03  0.96014690568E+02  0.19846241421E+03  0.00000000000E+00 0. -1.
         22    1    3    3    0    0 -0.82649541320E+02  0.88895694720E+02  0.19752925941E+03  0.23184304938E+03  0.00000000000E+00 0. -1.
</event>
<event>
 7    1  0.6999029E-005  0.1547449E+03  0.7818608E-02  0.1205654E+00
          2   -1    0    0  502    0  0.00000000000E+00  0.00000000000E+00  0.14271189925E+03  0.14271189925E+03  0.00000000000E+00 0. -1.
          1   -1    0    0  501    0 -0.00000000000E+00 -0.00000000000E+00 -0.15979663699E+04  0.15979663699E+04  0.00000000000E+00 0. -1.
         25    2    1    2    0    0 -0.17213558564E+03  0.31898771336E+02 -0.10369322270E+04  0.10590097104E+04  0.12499972686E+03 0.  0.
          2    1    1    2  501    0  0.48994468527E+02 -0.12846051158E+03 -0.49045256857E+03  0.50935869778E+03  0.00000000000E+00 0. -1.
          1    1    1    2  502    0  0.12314111711E+03  0.96561740246E+02  0.72130325002E+02  0.17230986097E+03  0.00000000000E+00 0. -1.
         22    1    3    3    0    0 -0.15379539891E+03  0.41383076472E+02 -0.10198527888E+04  0.10322137834E+04  0.00000000000E+00 0. -1.
         22    1    3    3    0    0 -0.18340186729E+02 -0.94843051355E+01 -0.17079438239E+02  0.26795926998E+02  0.00000000000E+00 0. -1.
</event>
<event>
 7    1  0.6999029E-005  0.3630303E+02  0.7818608E-02  0.1594188E+00
          2   -1    0    0  502    0  0.00000000000E+00  0.00000000000E+00  0.12100325028E+03  0.12100325028E+03  0.00000000000E+00 0. -1.
          1   -1    0    0  501    0 -0.00000000000E+00 -0.00000000000E+00 -0.65175856920E+03  0.65175856920E+03  0.00000000000E+00 0. -1.
         25    2    1    2    0    0  0.55733896264E+01 -0.59680160710E+02 -0.30293206066E+03  0.33314448028E+03  0.12499850844E+03 0.  0.
          2    1    1    2  501    0 -0.15278754506E+00  0.34882726322E+02 -0.33127021459E+03  0.33310176075E+03  0.00000000000E+00 0. -1.
          1    1    1    2  502    0 -0.54206020813E+01  0.24797434387E+02  0.10344695633E+03  0.10651557845E+03  0.00000000000E+00 0. -1.
         22    1    3    3    0    0 -0.18617771513E+02  0.27712861495E+02 -0.16311379325E+03  0.16649544636E+03  0.00000000000E+00 0.  1.
         22    1    3    3    0    0  0.24191161139E+02 -0.87393022205E+02 -0.13981826740E+03  0.16664903392E+03  0.00000000000E+00 0.  1.
</event>
<event>
 7    1  0.6999029E-005  0.2239390E+03  0.7818608E-02  0.1158380E+00
          2   -1    0    0  502    0  0.00000000000E+00  0.00000000000E+00  0.17767274289E+04  0.17767274289E+04  0.00000000000E+00 0. -1.
          1   -1    0    0  501    0 -0.00000000000E+00 -0.00000000000E+00 -0.44945877378E+03  0.44945877378E+03  0.00000000000E+00 0. -1.
         25    2    1    2    0    0 -0.33874470793E+03  0.10297347469E+03  0.79721093884E+03  0.88120183937E+03  0.12497954659E+03 0.  0.
          2    1    1    2  501    0  0.15491667474E+03 -0.45131351424E+02 -0.38100421855E+03  0.41376349471E+03  0.00000000000E+00 0. -1.
          1    1    1    2  502    0  0.18382803319E+03 -0.57842123266E+02  0.91106193485E+03  0.93122086861E+03  0.00000000000E+00 0. -1.
         22    1    3    3    0    0 -0.28509445400E+03  0.12621275632E+03  0.71780025099E+03  0.78258910540E+03  0.00000000000E+00 0.  1.
         22    1    3    3    0    0 -0.53650253932E+02 -0.23239281634E+02  0.79410687843E+02  0.98612733973E+02  0.00000000000E+00 0.  1.
</event>
<event>
 7    1  0.6999029E-005  0.3485638E+02  0.7818608E-02  0.1621244E+00
          2   -1    0    0  502    0  0.00000000000E+00  0.00000000000E+00  0.12459893995E+04  0.12459893995E+04  0.00000000000E+00 0. -1.
          1   -1    0    0  501    0 -0.00000000000E+00 -0.00000000000E+00 -0.17574882648E+03  0.17574882648E+03  0.00000000000E+00 0. -1.
         25    2    1    2    0    0 -0.31255392760E+02  0.87809941010E+01  0.11256570689E+02  0.12964055112E+03  0.12500382665E+03 0.  0.
          2    1    1    2  501    0  0.32435901520E+02  0.13688929464E+02 -0.11378793681E+03  0.11910990328E+03  0.00000000000E+00 0. -1.
          1    1    1    2  502    0 -0.11805087599E+01 -0.22469923565E+02  0.11727719391E+04  0.11729877716E+04  0.00000000000E+00 0. -1.
         22    1    3    3    0    0 -0.49201331993E+02 -0.17685656895E+02  0.54719197170E+02  0.75681860896E+02  0.00000000000E+00 0.  1.
         22    1    3    3    0    0  0.17945939233E+02  0.26466650996E+02 -0.43462626481E+02  0.53958690223E+02  0.00000000000E+00 0.  1.
</event>
<event>
 7    1  0.6999029E-005  0.2121342E+03  0.7818608E-02  0.1246084E+00
          2   -1    0    0  502    0  0.00000000000E+00  0.00000000000E+00  0.16805516233E+04  0.16805516233E+04  0.00000000000E+00 0. -1.
          1   -1    0    0  501    0 -0.00000000000E+00 -0.00000000000E+00 -0.43984791804E+03  0.43984791804E+03  0.00000000000E+00 0. -1.
         25    2    1    2    0    0  0.17075352230E+03 -0.10771482926E+03 -0.17189884941E+03  0.29314409049E+03  0.12499997417E+03 0.  0.
          2    1    1    2  501    0  0.35473061013E+02  0.55500850500E+02 -0.19490409205E+03  0.20573353534E+03  0.00000000000E+00 0. -1.
          1    1    1    2  502    0 -0.20622658331E+03  0.52213978759E+02  0.16075066468E+04  0.16215219156E+04  0.00000000000E+00 0. -1.
         22    1    3    3    0    0 -0.19454347094E+02 -0.89274984987E+01 -0.63640676519E+01  0.22330992082E+02  0.00000000000E+00 0.  1.
         22    1    3    3    0    0  0.19020786939E+03 -0.98787330760E+02 -0.16553478176E+03  0.27081309841E+03  0.00000000000E+00 0.  1.
</event>
<event>
 7    1  0.6999029E-005  0.1258516E+03  0.7818608E-02  0.1242923E+00
          2   -1    0    0  502    0  0.00000000000E+00  0.00000000000E+00  0.41934863580E+03  0.41934863580E+03  0.00000000000E+00 0. -1.
          1   -1    0    0  501    0 -0.00000000000E+00 -0.00000000000E+00 -0.23044219375E+03  0.23044219375E+03  0.00000000000E+00 0. -1.
         25    2    1    2    0    0 -0.16317775182E+03  0.40906923111E+02  0.18354747450E+03  0.27859460065E+03  0.12499968429E+03 0.  0.
          2    1    1    2  501    0  0.58372509414E+02 -0.98644714170E+02 -0.14128221146E+03  0.18193073617E+03  0.00000000000E+00 0. -1.
          1    1    1    2  502    0  0.10480524241E+03  0.57737791059E+02  0.14664117901E+03  0.18926549272E+03  0.00000000000E+00 0. -1.
         22    1    3    3    0    0  0.10874784102E+02 -0.77855127678E+01  0.55519751620E+02  0.57107950044E+02  0.00000000000E+00 0. -1.
         22    1    3    3    0    0 -0.17405253592E+03  0.48692435878E+02  0.12802772288E+03  0.22148665061E+03  0.00000000000E+00 0. -1.
</event>
<event>
 7    1  0.6999029E-005  0.3879360E+03  0.7818608E-02  0.1253498E+00
          2   -1    0    0  502    0  0.00000000000E+00  0.00000000000E+00  0.74564032195E+03  0.74564032195E+03  0.00000000000E+00 0. -1.
          1   -1    0    0  501    0 -0.00000000000E+00 -0.00000000000E+00 -0.18816545195E+04  0.18816545195E+04  0.00000000000E+00 0. -1.
         25    2    1    2    0    0  0.17287541188E+03 -0.34545129104E+03  0.50828956976E+03  0.65054598580E+03  0.12501716040E+03 0.  0.
          2    1    1    2  501    0 -0.26287657254E+02 -0.20679527115E+02 -0.15761659508E+04  0.15765207859E+04  0.00000000000E+00 0. -1.
          1    1    1    2  502    0 -0.14658775463E+03  0.36613081816E+03 -0.68137816487E+02  0.40022806979E+03  0.00000000000E+00 0. -1.
         22    1    3    3    0    0  0.11192475231E+03 -0.11367523426E+03  0.26309750303E+03  0.30768409963E+03  0.00000000000E+00 0.  1.
         22    1    3    3    0    0  0.60950659574E+02 -0.23177605678E+03  0.24519206672E+03  0.34286188616E+03  0.00000000000E+00 0.  1.
</event>
<event>
 7    1  0.6999029E-005  0.1506424E+04  0.7818608E-02  0.1112850E+00
          2   -1    0    0  502    0  0.00000000000E+00  0.00000000000E+00  0.33781139730E+04  0.33781139730E+04  0.00000000000E+00 0. -1.
          1   -1    0    0  501    0 -0.00000000000E+00 -0.00000000000E+00 -0.20450765542E+04  0.20450765542E+04  0.00000000000E+00 0. -1.
         25    2    1    2    0    0 -0.56499090414E+03 -0.14288639084E+04  0.25395789081E+04  0.29708505892E+04  0.12500161055E+03 0.  0.
          2    1    1    2  501    0  0.57557750657E+03  0.13885005796E+04 -0.15190884482E+04  0.21370196628E+04  0.00000000000E+00 0. -1.
          1    1    1    2  502    0 -0.10586602428E+02  0.40363328757E+02  0.31254695883E+03  0.31532027517E+03  0.00000000000E+00 0. -1.
         22    1    3    3    0    0 -0.19206110555E+03 -0.38978264693E+03  0.63496148180E+03  0.76941150465E+03  0.00000000000E+00 0. -1.
         22    1    3    3    0    0 -0.37292979859E+03 -0.10390812614E+04  0.19046174263E+04  0.22014390846E+04  0.00000000000E+00 0. -1.
</event>
<event>
 7    1  0.6999029E-005  0.2193963E+03  0.7818608E-02  0.1273506E+00
          2   -1    0    0  502    0  0.00000000000E+00  0.00000000000E+00  0.17784967554E+04  0.17784967554E+04  0.00000000000E+00 0. -1.
          1   -1    0    0  501    0 -0.00000000000E+00 -0.00000000000E+00 -0.37471657334E+03  0.37471657334E+03  0.00000000000E+00 0. -1.
         25    2    1    2    0    0 -0.23042058217E+03 -0.12404450934E+03 -0.15053773555E+03  0.32675157462E+03  0.12499718679E+03 0.  0.
          2    1    1    2  501    0  0.48504277994E+02  0.35981559744E+01 -0.12442878878E+03  0.13359691309E+03  0.00000000000E+00 0. -1.
          1    1    1    2  502    0  0.18191630418E+03  0.12044635336E+03  0.16787467064E+04  0.16928648411E+04  0.00000000000E+00 0. -1.
         22    1    3    3    0    0 -0.17530358949E+03 -0.27048621822E+02 -0.10593375490E+03  0.20660333215E+03  0.00000000000E+00 0.  1.
         22    1    3    3    0    0 -0.55116992687E+02 -0.96995887515E+02 -0.44603980653E+02  0.12014824247E+03  0.00000000000E+00 0.  1.
</event>
<event>
 7    1  0.6999029E-005  0.1584116E+04  0.7818608E-02  0.1123201E+00
          2   -1    0    0  502    0  0.00000000000E+00  0.00000000000E+00  0.33029605359E+04  0.33029605359E+04  0.00000000000E+00 0. -1.
          1   -1    0    0  501    0 -0.00000000000E+00 -0.00000000000E+00 -0.90300835663E+03  0.90300835663E+03  0.00000000000E+00 0. -1.
         25    2    1    2    0    0  0.13826333322E+04  0.80345344401E+03  0.14303219370E+04  0.21491065304E+04  0.12500266928E+03 0.  0.
          2    1    1    2  501    0 -0.13736179713E+04 -0.76979205664E+03  0.59915696155E+03  0.16847537524E+04  0.00000000000E+00 0. -1.
          1    1    1    2  502    0 -0.90153608754E+01 -0.33661387378E+02  0.37047328069E+03  0.37210860974E+03  0.00000000000E+00 0. -1.
         22    1    3    3    0    0  0.22873720878E+03  0.11694591614E+03  0.29117836466E+03  0.38830644861E+03  0.00000000000E+00 0. -1.
         22    1    3    3    0    0  0.11538961234E+04  0.68650752787E+03  0.11391435723E+04  0.17608000818E+04  0.00000000000E+00 0. -1.
</event>
<event>
 7    1  0.6999029E-005  0.2730690E+03  0.7818608E-02  0.1196686E+00
          2   -1    0    0  502    0  0.00000000000E+00  0.00000000000E+00  0.75781823482E+03  0.75781823482E+03  0.00000000000E+00 0. -1.
          1   -1    0    0  501    0 -0.00000000000E+00 -0.00000000000E+00 -0.11032248577E+04  0.11032248577E+04  0.00000000000E+00 0. -1.
         25    2    1    2    0    0 -0.17960162952E+03  0.13926251449E+03 -0.31296113890E+03  0.40647753898E+03  0.12501408707E+03 0.  0.
          2    1    1    2  501    0  0.21232733484E+03 -0.21864639828E+03 -0.70944595159E+03  0.77214163392E+03  0.00000000000E+00 0. -1.
          1    1    1    2  502    0 -0.32725705326E+02  0.79383883792E+02  0.67700046766E+03  0.68242391957E+03  0.00000000000E+00 0. -1.
         22    1    3    3    0    0 -0.14841342742E+03  0.16270806745E+03 -0.26102771988E+03  0.34152003045E+03  0.00000000000E+00 0. -1.
         22    1    3    3    0    0 -0.31188202100E+02 -0.23445552957E+02 -0.51933419026E+02  0.64957508538E+02  0.00000000000E+00 0. -1.
</event>
<event>
 7    1  0.6999029E-005  0.1291896E+03  0.7818608E-02  0.1316964E+00
          2   -1    0    0  502    0  0.00000000000E+00  0.00000000000E+00  0.16587320481E+04  0.16587320481E+04  0.00000000000E+00 0. -1.
          1   -1    0    0  501    0 -0.00000000000E+00 -0.00000000000E+00 -0.24620061882E+02  0.24620061882E+02  0.00000000000E+00 0. -1.
         25    2    1    2    0    0 -0.45308388281E+02 -0.76006778429E+02  0.39341119060E+03  0.42217179865E+03  0.12500712888E+03 0.  0.
          2    1    1    2  501    0 -0.40965522290E+02 -0.36940551295E+02  0.12720155289E+03  0.13864708221E+03  0.00000000000E+00 0. -1.
          1    1    1    2  502    0  0.86273910571E+02  0.11294732972E+03  0.11134992427E+04  0.11225332291E+04  0.00000000000E+00 0. -1.
         22    1    3    3    0    0 -0.50650085920E+02 -0.99502359102E+02  0.21618178545E+03  0.24331197059E+03  0.00000000000E+00 0. -1.
         22    1    3    3    0    0  0.53416976388E+01  0.23495580673E+02  0.17722940515E+03  0.17885982806E+03  0.00000000000E+00 0. -1.
</event>
<event>
 7    1  0.6999029E-005  0.1479636E+03  0.7818608E-02  0.1273579E+00
          2   -1    0    0  502    0  0.00000000000E+00  0.00000000000E+00  0.61032215715E+03  0.61032215715E+03  0.00000000000E+00 0. -1.
          1   -1    0    0  501    0 -0.00000000000E+00 -0.00000000000E+00 -0.10722551116E+04  0.10722551116E+04  0.00000000000E+00 0. -1.
         25    2    1    2    0    0 -0.16775188838E+03  0.63480516159E+02  0.13534473615E+02  0.21904121390E+03  0.12500159768E+03 0.  0.
          2    1    1    2  501    0  0.14699178948E+03  0.55318092461E+01 -0.96124863633E+03  0.97243823862E+03  0.00000000000E+00 0. -1.
          1    1    1    2  502    0  0.20760098901E+02 -0.69012325405E+02  0.48578120829E+03  0.49109781621E+03  0.00000000000E+00 0. -1.
         22    1    3    3    0    0 -0.13048008314E+03  0.80479648685E+01  0.53442311564E+02  0.14122996318E+03  0.00000000000E+00 0. -1.
         22    1    3    3    0    0 -0.37271805246E+02  0.55432551290E+02 -0.39907837948E+02  0.77811250720E+02  0.00000000000E+00 0. -1.
</event>
<event>
 7    1  0.6999029E-005  0.3163132E+03  0.7818608E-02  0.1136160E+00
          2   -1    0    0  502    0  0.00000000000E+00  0.00000000000E+00  0.13631631696E+04  0.13631631696E+04  0.00000000000E+00 0. -1.
          1   -1    0    0  501    0 -0.00000000000E+00 -0.00000000000E+00 -0.61341196988E+03  0.61341196988E+03  0.00000000000E+00 0. -1.
         25    2    1    2    0    0  0.90766411989E+02 -0.29728034868E+03  0.47871009342E+02  0.33842658753E+03  0.12500709722E+03 0.  0.
          2    1    1    2  501    0  0.13325143150E+03  0.66295205564E+02 -0.43335071514E+03  0.45819629046E+03  0.00000000000E+00 0. -1.
          1    1    1    2  502    0 -0.22401784349E+03  0.23098514312E+03  0.11352309055E+04  0.11799522615E+04  0.00000000000E+00 0. -1.
         22    1    3    3    0    0  0.11333727491E+03 -0.21707570714E+03  0.65004977179E+02  0.25336307461E+03  0.00000000000E+00 0. -1.
         22    1    3    3    0    0 -0.22570862925E+02 -0.80204641536E+02 -0.17133967837E+02  0.85063512923E+02  0.00000000000E+00 0. -1.
</event>
<event>
 7    1  0.6999029E-005  0.5610675E+03  0.7818608E-02  0.1094331E+00
          2   -1    0    0  502    0  0.00000000000E+00  0.00000000000E+00  0.30010652691E+04  0.30010652691E+04  0.00000000000E+00 0. -1.
          1   -1    0    0  501    0 -0.00000000000E+00 -0.00000000000E+00 -0.31034841799E+03  0.31034841799E+03  0.00000000000E+00 0. -1.
         25    2    1    2    0    0  0.38920973427E+03  0.47694342090E+03  0.48817271937E+03  0.79554854588E+03  0.12500256368E+03 0.  0.
          2    1    1    2  501    0 -0.24741962399E+03 -0.46563641554E+03  0.29731670363E+03  0.60533541452E+03  0.00000000000E+00 0. -1.
          1    1    1    2  502    0 -0.14179011028E+03 -0.11307005352E+02  0.19052274281E+04  0.19105297267E+04  0.00000000000E+00 0. -1.
         22    1    3    3    0    0  0.14417901469E+03  0.22061846229E+03  0.13930550661E+03  0.29810420720E+03  0.00000000000E+00 0. -1.
         22    1    3    3    0    0  0.24503071958E+03  0.25632495861E+03  0.34886721276E+03  0.49744433867E+03  0.00000000000E+00 0. -1.
</event>
<event>
 7    1  0.6999029E-005  0.9121035E+02  0.7818608E-02  0.1357690E+00
          2   -1    0    0  502    0  0.00000000000E+00  0.00000000000E+00  0.60722633547E+03  0.60722633547E+03  0.00000000000E+00 0. -1.
          1   -1    0    0  501    0 -0.00000000000E+00 -0.00000000000E+00 -0.56727811526E+03  0.56727811526E+03  0.00000000000E+00 0. -1.
         25    2    1    2    0    0  0.12881758657E+02  0.14307130630E+03 -0.18043099026E+03  0.26232678461E+03  0.12499864514E+03 0.  0.
          2    1    1    2  501    0 -0.14997173448E+02 -0.52728392328E+02 -0.34008495606E+03  0.34447492784E+03  0.00000000000E+00 0. -1.
          1    1    1    2  502    0  0.21154147910E+01 -0.90342913973E+02  0.56046416653E+03  0.56770273828E+03  0.00000000000E+00 0. -1.
         22    1    3    3    0    0  0.58559841360E+02  0.53927372026E+02 -0.12401225644E+03  0.14736504409E+03  0.00000000000E+00 0.  1.
         22    1    3    3    0    0 -0.45678082703E+02  0.89143934276E+02 -0.56418733816E+02  0.11496174052E+03  0.00000000000E+00 0.  1.
</event>
<event>
 7    1  0.6999029E-005  0.2465119E+03  0.7818608E-02  0.1356157E+00
          2   -1    0    0  502    0  0.00000000000E+00  0.00000000000E+00  0.14521884988E+04  0.14521884988E+04  0.00000000000E+00 0. -1.
          1   -1    0    0  501    0 -0.00000000000E+00 -0.00000000000E+00 -0.29688864823E+03  0.29688864823E+03  0.00000000000E+00 0. -1.
         25    2    1    2    0    0  0.58878539832E+02 -0.24450690176E+03 -0.15189767968E+03  0.31928182889E+03  0.12497069140E+03 0.  0.
          2    1    1    2  501    0 -0.45483162685E+02  0.22892565554E+03  0.16129988161E+03  0.28371345696E+03  0.00000000000E+00 0. -1.
          1    1    1    2  502    0 -0.13395377147E+02  0.15581246219E+02  0.11458976486E+04  0.11460818612E+04  0.00000000000E+00 0. -1.
         22    1    3    3    0    0  0.53291859151E+02 -0.15451264493E+03 -0.27654380167E+02  0.16576774245E+03  0.00000000000E+00 0.  1.
         22    1    3    3    0    0  0.55866806805E+01 -0.89994256834E+02 -0.12424329951E+03  0.15351408644E+03  0.00000000000E+00 0.  1.
</event>
<event>
 7    1  0.6999029E-005  0.1182227E+03  0.7818608E-02  0.1320269E+00
          2   -1    0    0  502    0  0.00000000000E+00  0.00000000000E+00  0.24572470953E+04  0.24572470953E+04  0.00000000000E+00 0. -1.
          1   -1    0    0  501    0 -0.00000000000E+00 -0.00000000000E+00 -0.56608964462E+03  0.56608964462E+03  0.00000000000E+00 0. -1.
         25    2    1    2    0    0 -0.87035863155E+01  0.15775853470E+03  0.30145540705E+03  0.36258129662E+03  0.12500530603E+03 0.  0.
          2    1    1    2  501    0  0.42188713502E+02 -0.10976476818E+03 -0.52866232292E+03  0.54158290552E+03  0.00000000000E+00 0. -1.
          1    1    1    2  502    0 -0.33485127186E+02 -0.47993766519E+02  0.21183643666E+04  0.21191725378E+04  0.00000000000E+00 0. -1.
         22    1    3    3    0    0  0.28255862750E+02  0.15750315542E+03  0.21059980937E+03  0.26449559061E+03  0.00000000000E+00 0.  1.
         22    1    3    3    0    0 -0.36959449066E+02  0.25537928358E+00  0.90855597676E+02  0.98085706007E+02  0.00000000000E+00 0.  1.
</event>
<event>
 7    1  0.6999029E-005  0.2191464E+03  0.7818608E-02  0.1149894E+00
          2   -1    0    0  502    0  0.00000000000E+00  0.00000000000E+00  0.38442442920E+03  0.38442442920E+03  0.00000000000E+00 0. -1.
          1   -1    0    0  501    0 -0.00000000000E+00 -0.00000000000E+00 -0.10546774466E+04  0.10546774466E+04  0.00000000000E+00 0. -1.
         25    2    1    2    0    0 -0.12919779395E+03  0.14252593211E+03  0.19381020080E+03  0.30032394763E+03  0.12500547307E+03 0.  0.
          2    1    1    2  501    0 -0.23646006118E+02  0.18064994544E+03 -0.73729306069E+03  0.75946994261E+03  0.00000000000E+00 0. -1.
          1    1    1    2  502    0  0.15284380007E+03 -0.32317587756E+03 -0.12677015748E+03  0.37930798552E+03  0.00000000000E+00 0. -1.
         22    1    3    3    0    0 -0.57171709084E+02  0.31742319495E+02 -0.43536035409E+00  0.65393950066E+02  0.00000000000E+00 0. -1.
         22    1    3    3    0    0 -0.72026084867E+02  0.11078361262E+03  0.19424556116E+03  0.23492999756E+03  0.00000000000E+00 0. -1.
</event>
<event>
 7    1  0.6999029E-005  0.3440686E+03  0.7818608E-02  0.1136147E+00
          2   -1    0    0  502    0  0.00000000000E+00  0.00000000000E+00  0.14941805256E+03  0.14941805256E+03  0.00000000000E+00 0. -1.
          1   -1    0    0  501    0 -0.00000000000E+00 -0.00000000000E+00 -0.22057413794E+04  0.22057413794E+04  0.00000000000E+00 0. -1.
         25    2    1    2    0    0 -0.31775859872E+03 -0.19832450139E+03 -0.11470121363E+04  0.12130804135E+04  0.12499645557E+03 0.  0.
          2    1    1    2  501    0  0.11376894665E+03 -0.76051690213E+02 -0.75442143062E+03  0.76673263122E+03  0.00000000000E+00 0. -1.
          1    1    1    2  502    0  0.20398965207E+03  0.27437619160E+03 -0.15488975991E+03  0.37534638722E+03  0.00000000000E+00 0. -1.
         22    1    3    3    0    0 -0.51808035501E+02  0.61447965491E+01 -0.25013689313E+03  0.25551965947E+03  0.00000000000E+00 0.  1.
         22    1    3    3    0    0 -0.26595056322E+03 -0.20446929794E+03 -0.89687524315E+03  0.95756075403E+03  0.00000000000E+00 0.  1.
</event>
<event>
 7    1  0.6999029E-005  0.2151963E+03  0.7818608E-02  0.1355843E+00
          2   -1    0    0  502    0  0.00000000000E+00  0.00000000000E+00  0.81643360763E+03  0.81643360763E+03  0.00000000000E+00 0. -1.
          1   -1    0    0  501    0 -0.00000000000E+00 -0.00000000000E+00 -0.33016121016E+03  0.33016121016E+03  0.00000000000E+00 0. -1.
         25    2    1    2    0    0  0.12465908247E+03  0.16793367076E+03 -0.14687241033E+03  0.28449656352E+03  0.12500074050E+03 0.  0.
          2    1    1    2  501    0 -0.14818294499E+03 -0.16983299232E+03 -0.31028075932E+01  0.22541308277E+03  0.00000000000E+00 0. -1.
          1    1    1    2  502    0  0.23523862516E+02  0.18993215690E+01  0.63624761539E+03  0.63668517151E+03  0.00000000000E+00 0. -1.
         22    1    3    3    0    0  0.92767466232E+02  0.56431711939E+02 -0.12656242821E+03  0.16675847546E+03  0.00000000000E+00 0. -1.
         22    1    3    3    0    0  0.31891616239E+02  0.11150195882E+03 -0.20309982115E+02  0.11773808806E+03  0.00000000000E+00 0. -1.
</event>
<event>
 7    1  0.6999029E-005  0.1966135E+03  0.7818608E-02  0.1301589E+00
          2   -1    0    0  502    0  0.00000000000E+00  0.00000000000E+00  0.12451101625E+04  0.12451101625E+04  0.00000000000E+00 0. -1.
          1   -1    0    0  501    0 -0.00000000000E+00 -0.00000000000E+00 -0.87046233025E+02  0.87046233025E+02  0.00000000000E+00 0. -1.
         25    2    1    2    0    0 -0.13577005339E+03 -0.12652097995E+03  0.68836792301E+03  0.72382087281E+03  0.12500077088E+03 0.  0.
          2    1    1    2  501    0  0.17057269572E+03  0.10358986144E+03  0.77742526718E+02  0.21417237071E+03  0.00000000000E+00 0. -1.
          1    1    1    2  502    0 -0.34802642329E+02  0.22931118514E+02  0.39195347974E+03  0.39416315200E+03  0.00000000000E+00 0. -1.
         22    1    3    3    0    0 -0.61055261392E+02 -0.52225293735E+02  0.51284552985E+03  0.51910091864E+03  0.00000000000E+00 0. -1.
         22    1    3    3    0    0 -0.74714791996E+02 -0.74295686219E+02  0.17552239316E+03  0.20471995417E+03  0.00000000000E+00 0. -1.
</event>
<event>
 7    1  0.6999029E-005  0.4559083E+03  0.7818608E-02  0.1268819E+00
          2   -1    0    0  502    0  0.00000000000E+00  0.00000000000E+00  0.89283884242E+03  0.89283884242E+03  0.00000000000E+00 0. -1.
          1   -1    0    0  501    0 -0.00000000000E+00 -0.00000000000E+00 -0.12364200728E+04  0.12364200728E+04  0.00000000000E+00 0. -1.
         25    2    1    2    0    0 -0.39844415541E+03 -0.19186895398E+03 -0.40695467254E+03  0.61384503357E+03  0.12498871652E+03 0.  0.
          2    1    1    2  501    0  0.42259251206E+03  0.19593880635E+03 -0.65107450969E+03  0.80054635359E+03  0.00000000000E+00 0. -1.
          1    1    1    2  502    0 -0.24148356654E+02 -0.40698523681E+01  0.71444795183E+03  0.71486752808E+03  0.00000000000E+00 0. -1.
         22    1    3    3    0    0 -0.36241648340E+02 -0.23898554209E+02 -0.10388454778E+03  0.11259039584E+03  0.00000000000E+00 0. -1.
         22    1    3    3    0    0 -0.36220250707E+03 -0.16797039977E+03 -0.30307012476E+03  0.50125463773E+03  0.00000000000E+00 0. -1.
</event>
<event>
 7    1  0.6999029E-005  0.2604329E+03  0.7818608E-02  0.1134437E+00
          2   -1    0    0  502    0  0.00000000000E+00  0.00000000000E+00  0.18624737454E+04  0.18624737454E+04  0.00000000000E+00 0. -1.
          1   -1    0    0  501    0 -0.00000000000E+00 -0.00000000000E+00 -0.62179407957E+03  0.62179407957E+03  0.00000000000E+00 0. -1.
         25    2    1    2    0    0  0.27836909310E+02  0.31630332090E+03  0.23413949941E+03  0.41384964013E+03  0.12501014008E+03 0.  0.
          2    1    1    2  501    0 -0.16914311171E+03 -0.19752958672E+03 -0.49415892753E+03  0.55840878891E+03  0.00000000000E+00 0. -1.
          1    1    1    2  502    0  0.14130620240E+03 -0.11877373417E+03  0.15006990939E+04  0.15120093959E+04  0.00000000000E+00 0. -1.
         22    1    3    3    0    0  0.35628993408E+02  0.72265074294E+02  0.11947233882E+03  0.14410172059E+03  0.00000000000E+00 0.  1.
         22    1    3    3    0    0 -0.77920840979E+01  0.24403824660E+03  0.11466716059E+03  0.26974791954E+03  0.00000000000E+00 0.  1.
</event>
<event>
 7    1  0.6999029E-005  0.1767032E+03  0.7818608E-02  0.1234996E+00
          2   -1    0    0  502    0  0.00000000000E+00  0.00000000000E+00  0.49246533318E+03  0.49246533318E+03  0.00000000000E+00 0. -1.
          1   -1    0    0  501    0 -0.00000000000E+00 -0.00000000000E+00 -0.15606922839E+04  0.15606922839E+04  0.00000000000E+00 0. -1.
         25    2    1    2    0    0  0.15668845193E+02 -0.20239069380E+03  0.17261650298E+03  0.29433650950E+03  0.12502007069E+03 0.  0.
          2    1    1    2  501    0  0.69559616638E+02  0.54700354464E+02 -0.14702899273E+04  0.14729504877E+04  0.00000000000E+00 0. -1.
          1    1    1    2  502    0 -0.85228461831E+02  0.14769033934E+03  0.22944647359E+03  0.28587061983E+03  0.00000000000E+00 0. -1.
         22    1    3    3    0    0 -0.45944405899E+01 -0.61359114291E+02  0.13285578796E+03  0.14641280745E+03  0.00000000000E+00 0. -1.
         22    1    3    3    0    0  0.20263285783E+02 -0.14103157951E+03  0.39760715024E+02  0.14792370206E+03  0.00000000000E+00 0. -1.
</event>
<event>
 7    1  0.6999029E-005  0.2177327E+03  0.7818608E-02  0.1332402E+00
          2   -1    0    0  502    0  0.00000000000E+00  0.00000000000E+00  0.11479527824E+04  0.11479527824E+04  0.00000000000E+00 0. -1.
          1   -1    0    0  501    0 -0.00000000000E+00 -0.00000000000E+00 -0.41185973696E+03  0.41185973696E+03  0.00000000000E+00 0. -1.
         25    2    1    2    0    0 -0.20211027833E+03  0.21295116882E+02  0.19399616180E+03  0.30750686090E+03  0.12499564833E+03 0.  0.
          2    1    1    2  501    0 -0.19331489661E+02 -0.20997423151E+02 -0.34083508703E+03  0.34202800298E+03  0.00000000000E+00 0. -1.
          1    1    1    2  502    0  0.22144176799E+03 -0.29769373122E+00  0.88293197070E+03  0.91027765550E+03  0.00000000000E+00 0. -1.
         22    1    3    3    0    0 -0.83645918910E+01  0.42660901463E+02  0.30637550628E+02  0.53184381350E+02  0.00000000000E+00 0.  1.
         22    1    3    3    0    0 -0.19374568644E+03 -0.21365784581E+02  0.16335861117E+03  0.25432247955E+03  0.00000000000E+00 0.  1.
</event>
<event>
 7    1  0.6999029E-005  0.6159334E+03  0.7818608E-02  0.1126055E+00
          2   -1    0    0  502    0  0.00000000000E+00  0.00000000000E+00  0.77887604246E+03  0.77887604246E+03  0.00000000000E+00 0. -1.
          1   -1    0    0  501    0 -0.00000000000E+00 -0.00000000000E+00 -0.13355355716E+04  0.13355355716E+04  0.00000000000E+00 0. -1.
         25    2    1    2    0    0  0.62339078212E+03  0.19339967518E+03 -0.13737406317E+03  0.67861322891E+03  0.12499911852E+03 0.  0.
          2    1    1    2  501    0 -0.72570435800E+02  0.47087758589E+02 -0.74648181803E+03  0.75147776402E+03  0.00000000000E+00 0. -1.
          1    1    1    2  502    0 -0.55082034632E+03 -0.24048743377E+03  0.32719635205E+03  0.68432062114E+03  0.00000000000E+00 0. -1.
         22    1    3    3    0    0  0.54945077909E+03  0.17056896799E+03 -0.76966435600E+02  0.58044273077E+03  0.00000000000E+00 0.  1.
         22    1    3    3    0    0  0.73940003029E+02  0.22830707186E+02 -0.60407627565E+02  0.98170498148E+02  0.00000000000E+00 0.  1.
</event>
<event>
 7    1  0.6999029E-005  0.3515061E+03  0.7818608E-02  0.1120957E+00
          2   -1    0    0  502    0  0.00000000000E+00  0.00000000000E+00  0.12642636275E+04  0.12642636275E+04  0.00000000000E+00 0. -1.
          1   -1    0    0  501    0 -0.00000000000E+00 -0.00000000000E+00 -0.70404334479E+03  0.70404334479E+03  0.00000000000E+00 0. -1.
         25    2    1    2    0    0 -0.56407490348E+02  0.41023423699E+03 -0.10664416433E+03  0.44549872594E+03  0.12498881095E+03 0.  0.
          2    1    1    2  501    0 -0.11869333037E+03 -0.10951601047E+03 -0.38359812061E+03  0.41620833888E+03  0.00000000000E+00 0. -1.
          1    1    1    2  502    0  0.17510082072E+03 -0.30071822653E+03  0.10504625676E+04  0.11065999074E+04  0.00000000000E+00 0. -1.
         22    1    3    3    0    0 -0.35453391450E+02  0.36996233173E+03 -0.13089068752E+03  0.39403228541E+03  0.00000000000E+00 0.  1.
         22    1    3    3    0    0 -0.20954098898E+02  0.40271905259E+02  0.24246523195E+02  0.51466440530E+02  0.00000000000E+00 0.  1.
</event>
<event>
 7    1  0.6999029E-005  0.2261522E+03  0.7818608E-02  0.1261420E+00
          2   -1    0    0  502    0  0.00000000000E+00  0.00000000000E+00  0.22670237654E+03  0.22670237654E+03  0.00000000000E+00 0. -1.
          1   -1    0    0  501    0 -0.00000000000E+00 -0.00000000000E+00 -0.81395934965E+03  0.81395934965E+03  0.00000000000E+00 0. -1.
         25    2    1    2    0    0  0.20304016089E+03 -0.18699540617E+02 -0.55564893441E+02  0.24553368905E+03  0.12499742125E+03 0.  0.
          2    1    1    2  501    0 -0.22138498292E+03  0.68486933187E+02 -0.63665375709E+03  0.67751736295E+03  0.00000000000E+00 0. -1.
          1    1    1    2  502    0  0.18344822024E+02 -0.49787392570E+02  0.10496167743E+03  0.11761067419E+03  0.00000000000E+00 0. -1.
         22    1    3    3    0    0  0.21453855458E+02 -0.15603198293E+01  0.35624482219E+02  0.41614976215E+02  0.00000000000E+00 0.  1.
         22    1    3    3    0    0  0.18158630544E+03 -0.17139220787E+02 -0.91189375660E+02  0.20391871284E+03  0.00000000000E+00 0.  1.
</event>
<event>
 7    1  0.6999029E-005  0.5616487E+03  0.7818608E-02  0.1246847E+00
          2   -1    0    0  502    0  0.00000000000E+00  0.00000000000E+00  0.19833636564E+04  0.19833636564E+04  0.00000000000E+00 0. -1.
          1   -1    0    0  501    0 -0.00000000000E+00 -0.00000000000E+00 -0.58938607968E+03  0.58938607968E+03  0.00000000000E+00 0. -1.
         25    2    1    2    0    0  0.17425914021E+02  0.54263656451E+03 -0.40951522254E+02  0.55862280726E+03  0.12499723994E+03 0.  0.
          2    1    1    2  501    0 -0.11426285469E+02  0.21885167003E+02 -0.24275196979E+03  0.24400417901E+03  0.00000000000E+00 0. -1.
          1    1    1    2  502    0 -0.59996285521E+01 -0.56452173152E+03  0.16776810688E+04  0.17701227498E+04  0.00000000000E+00 0. -1.
         22    1    3    3    0    0 -0.27388932790E+02  0.41486394329E+03  0.45080258236E+01  0.41579149508E+03  0.00000000000E+00 0.  1.
         22    1    3    3    0    0  0.44814846811E+02  0.12777262123E+03 -0.45459548077E+02  0.14283131219E+03  0.00000000000E+00 0.  1.
</event>
<event>
 7    1  0.6999029E-005  0.1063061E+04  0.7818608E-02  0.1176514E+00
          2   -1    0    0  502    0  0.00000000000E+00  0.00000000000E+00  0.16384673094E+04  0.16384673094E+04  0.00000000000E+00 0. -1.
          1   -1    0    0  501    0 -0.00000000000E+00 -0.00000000000E+00 -0.23562346661E+04  0.23562346661E+04  0.00000000000E+00 0. -1.
         25    2    1    2    0    0 -0.10314470988E+04  0.31291591902E+03 -0.67899342119E+03  0.12800221855E+04  0.12500095746E+03 0.  0.
          2    1    1    2  501    0  0.23402802310E+02  0.14627963100E+02 -0.11666206753E+04  0.11669470719E+04  0.00000000000E+00 0. -1.
          1    1    1    2  502    0  0.10080442965E+04 -0.32754388212E+03  0.11278467398E+04  0.15477327182E+04  0.00000000000E+00 0. -1.
         22    1    3    3    0    0 -0.88300313683E+03  0.24349851535E+03 -0.61902308659E+03  0.11055205328E+04  0.00000000000E+00 0.  1.
         22    1    3    3    0    0 -0.14844396196E+03  0.69417403674E+02 -0.59970334601E+02  0.17450165273E+03  0.00000000000E+00 0.  1.
</event>
<event>
 7    1  0.6999029E-005  0.4860741E+03  0.7818608E-02  0.1207811E+00
          2   -1    0    0  502    0  0.00000000000E+00  0.00000000000E+00  0.13169845798E+04  0.13169845798E+04  0.00000000000E+00 0. -1.
          1   -1    0    0  501    0 -0.00000000000E+00 -0.00000000000E+00 -0.12149347977E+04  0.12149347977E+04  0.00000000000E+00 0. -1.
         25    2    1    2    0    0  0.40522570689E+03 -0.33336704475E+03  0.42329719316E+03  0.68567434831E+03  0.12500935219E+03 0.  0.
          2    1    1    2  501    0 -0.36903633335E+03  0.31057633636E+03 -0.10294021552E+04  0.11368000146E+04  0.00000000000E+00 0. -1.
          1    1    1    2  502    0 -0.36189373542E+02  0.22790708390E+02  0.70815474408E+03  0.70944501458E+03  0.00000000000E+00 0. -1.
         22    1    3    3    0    0  0.33074026795E+02 -0.24922502041E+02  0.88443946687E+02  0.97659377748E+02  0.00000000000E+00 0. -1.
         22    1    3    3    0    0  0.37215168010E+03 -0.30844454271E+03  0.33485324647E+03  0.58801497056E+03  0.00000000000E+00 0. -1.
</event>
<event>
 7    1  0.6999029E-005  0.7899168E+02  0.7818608E-02  0.1392542E+00
          2   -1    0    0  502    0  0.00000000000E+00  0.00000000000E+00  0.38057804774E+03  0.38057804774E+03  0.00000000000E+00 0. -1.
          1   -1    0    0  501    0 -0.00000000000E+00 -0.00000000000E+00 -0.25103781586E+04  0.25103781586E+04  0.00000000000E+00 0. -1.
         25    2    1    2    0    0  0.11161284634E+03 -0.46874879145E+02 -0.88540438633E+03  0.90234243303E+03  0.12500502933E+03 0.  0.
          2    1    1    2  501    0 -0.71768156170E+02  0.20946813505E+02 -0.16141176824E+04  0.16158481766E+04  0.00000000000E+00 0. -1.
          1    1    1    2  502    0 -0.39844690168E+02  0.25928065639E+02  0.36972195789E+03  0.37276559668E+03  0.00000000000E+00 0. -1.
         22    1    3    3    0    0  0.69077070397E+02 -0.72701474575E+02 -0.33488274341E+03  0.34957631198E+03  0.00000000000E+00 0. -1.
         22    1    3    3    0    0  0.42535775942E+02  0.25826595431E+02 -0.55052164292E+03  0.55276612106E+03  0.00000000000E+00 0. -1.
</event>
<event>
 7    1  0.6999029E-005  0.1601893E+03  0.7818608E-02  0.1321594E+00
          2   -1    0    0  502    0  0.00000000000E+00  0.00000000000E+00  0.54734330864E+03  0.54734330864E+03  0.00000000000E+00 0. -1.
          1   -1    0    0  501    0 -0.00000000000E+00 -0.00000000000E+00 -0.46261676664E+03  0.46261676664E+03  0.00000000000E+00 0. -1.
         25    2    1    2    0    0 -0.64151041876E+02 -0.15006648792E+03  0.50943010147E+03  0.54934348261E+03  0.12499570641E+03 0.  0.
          2    1    1    2  501    0  0.23944223152E+01  0.42614543309E+02 -0.19495133528E+03  0.19956892465E+03  0.00000000000E+00 0. -1.
          1    1    1    2  502    0  0.61756619560E+02  0.10745194461E+03 -0.22975222419E+03  0.26104766803E+03  0.00000000000E+00 0. -1.
         22    1    3    3    0    0 -0.69242651201E+02 -0.16113556329E+03  0.37086672254E+03  0.41024546358E+03  0.00000000000E+00 0.  1.
         22    1    3    3    0    0  0.50916093252E+01  0.11069075363E+02  0.13856337894E+03  0.13909801903E+03  0.00000000000E+00 0.  1.
</event>
<event>
 7    1  0.6999029E-005  0.3694437E+03  0.7818608E-02  0.1239705E+00
          2   -1    0    0  502    0  0.00000000000E+00  0.00000000000E+00  0.19398839736E+04  0.19398839736E+04  0.00000000000E+00 0. -1.
          1   -1    0    0  501    0 -0.00000000000E+00 -0.00000000000E+00 -0.23199162016E+04  0.23199162016E+04  0.00000000000E+00 0. -1.
         25    2    1    2    0    0 -0.99522178707E+02  0.32962198850E+03  0.59018052493E+01  0.36635398596E+03  0.12500036945E+03 0.  0.
          2    1    1    2  501    0  0.77648629468E+02 -0.36351742532E+03 -0.21233100209E+04  0.21556019283E+04  0.00000000000E+00 0. -1.
          1    1    1    2  502    0  0.21873549239E+02  0.33895436816E+02  0.17373759877E+04  0.17378442610E+04  0.00000000000E+00 0. -1.
         22    1    3    3    0    0 -0.10153037637E+03  0.33482615114E+03  0.20746414518E+02  0.35049590944E+03  0.00000000000E+00 0. -1.
         22    1    3    3    0    0  0.20081976645E+01 -0.52041626417E+01 -0.14844609268E+02  0.15858076522E+02  0.00000000000E+00 0. -1.
</event>
<event>
 7    1  0.6999029E-005  0.2037015E+03  0.7818608E-02  0.1345058E+00
          2   -1    0    0  502    0  0.00000000000E+00  0.00000000000E+00  0.26484219563E+04  0.26484219563E+04  0.00000000000E+00 0. -1.
          1   -1    0    0  501    0 -0.00000000000E+00 -0.00000000000E+00 -0.59044913825E+03  0.59044913825E+03  0.00000000000E+00 0. -1.
         25    2    1    2    0    0 -0.78863480420E+02  0.18068296409E+03  0.25259345086E+04  0.25366976930E+04  0.12499704666E+03 0.  0.
          2    1    1    2  501    0  0.56139725194E+02 -0.19587321999E+03 -0.56538885244E+03  0.60098464333E+03  0.00000000000E+00 0. -1.
          1    1    1    2  502    0  0.22723755226E+02  0.15190255902E+02  0.97427161834E+02  0.10118875821E+03  0.00000000000E+00 0. -1.
         22    1    3    3    0    0 -0.32235694776E+02 -0.10041286397E+02  0.54898381861E+03  0.55002109100E+03  0.00000000000E+00 0.  1.
         22    1    3    3    0    0 -0.46627785644E+02  0.19072425049E+03  0.19769506900E+04  0.19866766020E+04  0.00000000000E+00 0.  1.
</event>
<event>
 7    1  0.6999029E-005  0.4078263E+02  0.7818608E-02  0.1543289E+00
          2   -1    0    0  502    0  0.00000000000E+00  0.00000000000E+00  0.21537114727E+04  0.21537114727E+04  0.00000000000E+00 0. -1.
          1   -1    0    0  501    0 -0.00000000000E+00 -0.00000000000E+00 -0.11863223250E+03  0.11863223250E+03  0.00000000000E+00 0. -1.
         25    2    1    2    0    0  0.26659680835E+02 -0.62161618206E+02  0.12844846121E+04  0.12923235536E+04  0.12499857298E+03 0.  0.
          2    1    1    2  501    0 -0.18408953504E+02  0.25048152137E+02 -0.11218049291E+03  0.11640774237E+03  0.00000000000E+00 0. -1.
          1    1    1    2  502    0 -0.82507273314E+01  0.37113466068E+02  0.86277512099E+03  0.86361240917E+03  0.00000000000E+00 0. -1.
         22    1    3    3    0    0 -0.34740957747E+02 -0.17232143577E+02  0.87320608891E+03  0.87406679071E+03  0.00000000000E+00 0. -1.
         22    1    3    3    0    0  0.61400638582E+02 -0.44929474629E+02  0.41127852315E+03  0.41825676290E+03  0.00000000000E+00 0. -1.
</event>
<event>
 7    1  0.6999029E-005  0.6768119E+03  0.7818608E-02  0.1145780E+00
          2   -1    0    0  502    0  0.00000000000E+00  0.00000000000E+00  0.45811620959E+03  0.45811620959E+03  0.00000000000E+00 0. -1.
          1   -1    0    0  501    0 -0.00000000000E+00 -0.00000000000E+00 -0.17583952100E+04  0.17583952100E+04  0.00000000000E+00 0. -1.
         25    2    1    2    0    0  0.62715885408E+03  0.31159630284E+03 -0.64366010731E+03  0.95934536479E+03  0.12499884398E+03 0.  0.
          2    1    1    2  501    0 -0.94233806394E+01 -0.61229097263E+02 -0.58332397791E+03  0.58660435190E+03  0.00000000000E+00 0. -1.
          1    1    1    2  502    0 -0.61773547344E+03 -0.25036720558E+03 -0.73294915156E+02  0.67056170287E+03  0.00000000000E+00 0. -1.
         22    1    3    3    0    0  0.40070296914E+03  0.26116404923E+03 -0.45771957374E+03  0.66202472633E+03  0.00000000000E+00 0. -1.
         22    1    3    3    0    0  0.22645588493E+03  0.50432253615E+02 -0.18594053357E+03  0.29732063845E+03  0.00000000000E+00 0. -1.
</event>
<event>
 7    1  0.6999029E-005  0.4531173E+03  0.7818608E-02  0.1174964E+00
          2   -1    0    0  502    0  0.00000000000E+00  0.00000000000E+00  0.74497927894E+03  0.74497927894E+03  0.00000000000E+00 0. -1.
          1   -1    0    0  501    0 -0.00000000000E+00 -0.00000000000E+00 -0.60088002317E+03  0.60088002317E+03  0.00000000000E+00 0. -1.
         25    2    1    2    0    0 -0.35068761904E+02  0.43805039954E+03  0.39882971452E+03  0.60647207336E+03  0.12500105593E+03 0.  0.
          2    1    1    2  501    0 -0.50866499491E+02  0.41889660063E+02 -0.24289081492E+03  0.25167060290E+03  0.00000000000E+00 0. -1.
          1    1    1    2  502    0  0.85935261395E+02 -0.47994005960E+03 -0.11839643827E+02  0.48771662585E+03  0.00000000000E+00 0. -1.
         22    1    3    3    0    0  0.39702508481E+02  0.18190443177E+03  0.12578829935E+03  0.22469581155E+03  0.00000000000E+00 0.  1.
         22    1    3    3    0    0 -0.74771270385E+02  0.25614596777E+03  0.27304141517E+03  0.38177626180E+03  0.00000000000E+00 0.  1.
</event>
<event>
 7    1  0.6999029E-005  0.4325075E+03  0.7818608E-02  0.1060915E+00
          2   -1    0    0  502    0  0.00000000000E+00  0.00000000000E+00  0.26043366281E+04  0.26043366281E+04  0.00000000000E+00 0. -1.
          1   -1    0    0  501    0 -0.00000000000E+00 -0.00000000000E+00 -0.19889035547E+04  0.19889035547E+04  0.00000000000E+00 0. -1.
         25    2    1    2    0    0 -0.33412227653E+03 -0.57609320805E+03  0.22314151709E+03  0.71340231423E+03  0.12501857964E+03 0.  0.
          2    1    1    2  501    0  0.23223415991E+03  0.17373403401E+03 -0.17112933652E+04  0.17356961719E+04  0.00000000000E+00 0. -1.
          1    1    1    2  502    0  0.10188811662E+03  0.40235917404E+03  0.21035849215E+04  0.21441416967E+04  0.00000000000E+00 0. -1.
         22    1    3    3    0    0 -0.37248258829E+02 -0.41821478622E+02 -0.14116984866E+02  0.57756022384E+02  0.00000000000E+00 0. -1.
         22    1    3    3    0    0 -0.29687401770E+03 -0.53427172943E+03  0.23725850195E+03  0.65564629184E+03  0.00000000000E+00 0. -1.
</event>
<event>
 7    1  0.6999029E-005  0.1703106E+03  0.7818608E-02  0.1354933E+00
          2   -1    0    0  502    0  0.00000000000E+00  0.00000000000E+00  0.27210695660E+04  0.27210695660E+04  0.00000000000E+00 0. -1.
          1   -1    0    0  501    0 -0.00000000000E+00 -0.00000000000E+00 -0.57881775828E+03  0.57881775828E+03  0.00000000000E+00 0. -1.
         25    2    1    2    0    0  0.14495129014E+03  0.48697808657E+02 -0.25680655370E+03  0.32397095172E+03  0.12500087381E+03 0.  0.
          2    1    1    2  501    0  0.66458346279E+01  0.29306801854E+02 -0.28493419984E+03  0.28651449177E+03  0.00000000000E+00 0. -1.
          1    1    1    2  502    0 -0.15159712477E+03 -0.78004610512E+02  0.26839925613E+04  0.26894018808E+04  0.00000000000E+00 0. -1.
         22    1    3    3    0    0  0.67292005851E+02 -0.10065400582E+02 -0.19993353996E+03  0.21119409732E+03  0.00000000000E+00 0.  1.
         22    1    3    3    0    0  0.77659284290E+02  0.58763209240E+02 -0.56873013737E+02  0.11277685440E+03  0.00000000000E+00 0.  1.
</event>
<event>
 7    1  0.6999029E-005  0.2639785E+03  0.7818608E-02  0.1296053E+00
          2   -1    0    0  502    0  0.00000000000E+00  0.00000000000E+00  0.47473841796E+03  0.47473841796E+03  0.00000000000E+00 0. -1.
          1   -1    0    0  501    0 -0.00000000000E+00 -0.00000000000E+00 -0.12523291209E+04  0.12523291209E+04  0.00000000000E+00 0. -1.
         25    2    1    2    0    0 -0.28591018810E+03 -0.68763769963E+02 -0.11084424459E+04  0.11535787345E+04  0.12500459628E+03 0.  0.
          2    1    1    2  501    0  0.32616542778E+02 -0.18801539960E+01 -0.79590581330E+02  0.86035077023E+02  0.00000000000E+00 0. -1.
          1    1    1    2  502    0  0.25329364532E+03  0.70643923959E+02  0.41044232427E+03  0.48745372735E+03  0.00000000000E+00 0. -1.
         22    1    3    3    0    0 -0.97666224578E+02 -0.76491634018E+02 -0.56328900181E+03  0.57678779552E+03  0.00000000000E+00 0.  1.
         22    1    3    3    0    0 -0.18824396352E+03  0.77278640546E+01 -0.54515344407E+03  0.57679093896E+03  0.00000000000E+00 0.  1.
</event>
<event>
 7    1  0.6999029E-005  0.2315687E+03  0.7818608E-02  0.1335967E+00
          2   -1    0    0  502    0  0.00000000000E+00  0.00000000000E+00  0.63027586527E+03  0.63027586527E+03  0.00000000000E+00 0. -1.
          1   -1    0    0  501    0 -0.00000000000E+00 -0.00000000000E+00 -0.94316612251E+03  0.94316612251E+03  0.00000000000E+00 0. -1.
         25    2    1    2    0    0 -0.13066221613E+03 -0.18810198221E+03 -0.24637332258E+03  0.35885770145E+03  0.12499626146E+03 0.  0.
          2    1    1    2  501    0  0.11078469646E+03  0.20488107937E+03 -0.61906151006E+03  0.66142774276E+03  0.00000000000E+00 0. -1.
          1    1    1    2  502    0  0.19877519674E+02 -0.16779097158E+02  0.55254457540E+03  0.55315654357E+03  0.00000000000E+00 0. -1.
         22    1    3    3    0    0  0.18595558136E+02 -0.23166208231E+02 -0.66338336053E+02  0.72685918970E+02  0.00000000000E+00 0.  1.
         22    1    3    3    0    0 -0.14925777427E+03 -0.16493577398E+03 -0.18003498653E+03  0.28617178249E+03  0.00000000000E+00 0.  1.
</event>
<event>
 7    1  0.6999029E-005  0.1988057E+03  0.7818608E-02  0.1288999E+00
          2   -1    0    0  502    0  0.00000000000E+00  0.00000000000E+00  0.35359233826E+03  0.35359233826E+03  0.00000000000E+00 0. -1.
          1   -1    0    0  501    0 -0.00000000000E+00 -0.00000000000E+00 -0.11614911732E+04  0.11614911732E+04  0.00000000000E+00 0. -1.
         25    2    1    2    0    0 -0.19794171186E+03  0.53506261932E+02  0.17617606734E+03  0.29783549628E+03  0.12499653906E+03 0.  0.
          2    1    1    2  501    0  0.17519902652E+03 -0.93871270457E+02 -0.10866585939E+04  0.11046870209E+04  0.00000000000E+00 0. -1.
          1    1    1    2  502    0  0.22742685346E+02  0.40365008526E+02  0.10258369165E+03  0.11256099432E+03  0.00000000000E+00 0. -1.
         22    1    3    3    0    0 -0.13494587940E+03  0.94158483230E+02  0.11094478025E+03  0.19845642997E+03  0.00000000000E+00 0. -1.
         22    1    3    3    0    0 -0.62995832460E+02 -0.40652221299E+02  0.65231287091E+02  0.99379066304E+02  0.00000000000E+00 0. -1.
</event>
<event>
 7    1  0.6999029E-005  0.5057334E+02  0.7818608E-02  0.1455208E+00
          2   -1    0    0  502    0  0.00000000000E+00  0.00000000000E+00  0.24416024185E+03  0.24416024185E+03  0.00000000000E+00 0. -1.
          1   -1    0    0  501    0 -0.00000000000E+00 -0.00000000000E+00 -0.48278908309E+03  0.48278908309E+03  0.00000000000E+00 0. -1.
         25    2    1    2    0    0 -0.30718103385E+02  0.89660243782E+02 -0.44305768980E+02  0.16303016324E+03  0.12503308271E+03 0.  0.
          2    1    1    2  501    0  0.18800269764E+02 -0.41948267485E+02 -0.37441862044E+03  0.37722991745E+03  0.00000000000E+00 0. -1.
          1    1    1    2  502    0  0.11917833621E+02 -0.47711976297E+02  0.18009554819E+03  0.18668924425E+03  0.00000000000E+00 0. -1.
         22    1    3    3    0    0  0.29978893231E+02 -0.16778721774E+02 -0.10477826887E+02  0.35917188086E+02  0.00000000000E+00 0. -1.
         22    1    3    3    0    0 -0.60696996615E+02  0.10643896556E+03 -0.33827942093E+02  0.12711297516E+03  0.00000000000E+00 0. -1.
</event>
<event>
 7    1  0.6999029E-005  0.6910876E+03  0.7818608E-02  0.9824093E-01
          2   -1    0    0  502    0  0.00000000000E+00  0.00000000000E+00  0.15340959959E+04  0.15340959959E+04  0.00000000000E+00 0. -1.
          1   -1    0    0  501    0 -0.00000000000E+00 -0.00000000000E+00 -0.33646061744E+04  0.33646061744E+04  0.00000000000E+00 0. -1.
         25    2    1    2    0    0 -0.12302302279E+04  0.10338054670E+03 -0.26138915920E+03  0.12681102165E+04  0.12500111062E+03 0.  0.
          2    1    1    2  501    0  0.63608806045E+03 -0.11585208832E+03 -0.24689676356E+04  0.25522207805E+04  0.00000000000E+00 0. -1.
          1    1    1    2  502    0  0.59414216740E+03  0.12471541617E+02  0.89984661627E+03  0.10783711732E+04  0.00000000000E+00 0. -1.
         22    1    3    3    0    0 -0.83913682283E+03  0.47257304765E+02 -0.23210339629E+03  0.87192651460E+03  0.00000000000E+00 0. -1.
         22    1    3    3    0    0 -0.39109340502E+03  0.56123241939E+02 -0.29285762913E+02  0.39618370189E+03  0.00000000000E+00 0. -1.
</event>
<event>
 7    1  0.6999029E-005  0.7234638E+02  0.7818608E-02  0.1490635E+00
          2   -1    0    0  502    0  0.00000000000E+00  0.00000000000E+00  0.19562541578E+04  0.19562541578E+04  0.00000000000E+00 0. -1.
          1   -1    0    0  501    0 -0.00000000000E+00 -0.00000000000E+00 -0.10247624623E+04  0.10247624623E+04  0.00000000000E+00 0. -1.
         25    2    1    2    0    0 -0.72335309913E+02  0.63191986206E+02  0.37806466766E+03  0.40961686907E+03  0.12500984888E+03 0.  0.
          2    1    1    2  501    0  0.17998804980E+02 -0.17288910420E+02 -0.10080222560E+04  0.10083311619E+04  0.00000000000E+00 0. -1.
          1    1    1    2  502    0  0.54336504932E+02 -0.45903075787E+02  0.15614492839E+04  0.15630685891E+04  0.00000000000E+00 0. -1.
         22    1    3    3    0    0  0.11513805402E+02  0.71236690329E+02  0.20036930858E+03  0.21296735333E+03  0.00000000000E+00 0. -1.
         22    1    3    3    0    0 -0.83849115315E+02 -0.80447041225E+01  0.17769535908E+03  0.19664951575E+03  0.00000000000E+00 0. -1.
</event>
<event>
 7    1  0.6999029E-005  0.3499496E+03  0.7818608E-02  0.1114665E+00
          2   -1    0    0  502    0  0.00000000000E+00  0.00000000000E+00  0.37299212142E+03  0.37299212142E+03  0.00000000000E+00 0. -1.
          1   -1    0    0  501    0 -0.00000000000E+00 -0.00000000000E+00 -0.25843311069E+04  0.25843311069E+04  0.00000000000E+00 0. -1.
         25    2    1    2    0    0  0.36746366045E+03  0.30641398701E+03 -0.98636525454E+03  0.11033862807E+04  0.12500318392E+03 0.  0.
          2    1    1    2  501    0 -0.17338978632E+03 -0.27461845519E+02 -0.14407442944E+04  0.14514001146E+04  0.00000000000E+00 0. -1.
          1    1    1    2  502    0 -0.19407387413E+03 -0.27895214149E+03  0.21577056341E+03  0.40253683297E+03  0.00000000000E+00 0. -1.
         22    1    3    3    0    0  0.20499171034E+03  0.18076707817E+03 -0.69585712512E+03  0.74760649839E+03  0.00000000000E+00 0.  1.
         22    1    3    3    0    0  0.16247195011E+03  0.12564690884E+03 -0.29050812942E+03  0.35577978236E+03  0.00000000000E+00 0.  1.
</event>
<event>
 7    1  0.6999029E-005  0.3338856E+03  0.7818608E-02  0.1319958E+00
          2   -1    0    0  502    0  0.00000000000E+00  0.00000000000E+00  0.32553371525E+04  0.32553371525E+04  0.00000000000E+00 0. -1.
          1   -1    0    0  501    0 -0.00000000000E+00 -0.00000000000E+00 -0.90765766728E+03  0.90765766728E+03  0.00000000000E+00 0. -1.
         25    2    1    2    0    0  0.19462920239E+03 -0.27497505460E+03  0.10765091834E+04  0.11348961802E+04  0.12500204249E+03 0.  0.
          2    1    1    2  501    0  0.13767976385E+02  0.15562776536E+02 -0.86546163482E+03  0.86571103639E+03  0.00000000000E+00 0. -1.
          1    1    1    2  502    0 -0.20839717877E+03  0.25941227807E+03  0.21366319366E+04  0.21623876032E+04  0.00000000000E+00 0. -1.
         22    1    3    3    0    0  0.13841509387E+03 -0.15814121438E+03  0.83206763775E+03  0.85819807486E+03  0.00000000000E+00 0. -1.
         22    1    3    3    0    0  0.56214108522E+02 -0.11683384022E+03  0.24444154570E+03  0.27669810531E+03  0.00000000000E+00 0. -1.
</event>
<event>
 7    1  0.6999029E-005  0.5486507E+03  0.7818608E-02  0.1135894E+00
          2   -1    0    0  502    0  0.00000000000E+00  0.00000000000E+00  0.23301112578E+04  0.23301112578E+04  0.00000000000E+00 0. -1.
          1   -1    0    0  501    0 -0.00000000000E+00 -0.00000000000E+00 -0.29696563800E+04  0.29696563800E+04  0.00000000000E+00 0. -1.
         25    2    1    2    0    0  0.34648509753E+03 -0.39284409937E+03  0.13014001083E+04  0.14084195595E+04  0.12500001831E+03 0.  0.
          2    1    1    2  501    0  0.85216792838E+02 -0.12184207291E+02 -0.28255994388E+04  0.28269104240E+04  0.00000000000E+00 0. -1.
          1    1    1    2  502    0 -0.43170189036E+03  0.40502830666E+03  0.88465420839E+03  0.10644376542E+04  0.00000000000E+00 0. -1.
         22    1    3    3    0    0  0.23514106113E+03 -0.33963583695E+03  0.10508461557E+04  0.11291242019E+04  0.00000000000E+00 0. -1.
         22    1    3    3    0    0  0.11134403640E+03 -0.53208262413E+02  0.25055395259E+03  0.27929535762E+03  0.00000000000E+00 0. -1.
</event>
<event>
 7    1  0.6999029E-005  0.7115541E+03  0.7818608E-02  0.1166820E+00
          2   -1    0    0  502    0  0.00000000000E+00  0.00000000000E+00  0.10384246213E+04  0.10384246213E+04  0.00000000000E+00 0. -1.
          1   -1    0    0  501    0 -0.00000000000E+00 -0.00000000000E+00 -0.98437454722E+03  0.98437454722E+03  0.00000000000E+00 0. -1.
         25    2    1    2    0    0  0.40397533698E+03 -0.57166855270E+03 -0.53875564747E+03  0.89211855582E+03  0.12496744745E+03 0.  0.
          2    1    1    2  501    0 -0.43589741917E+03  0.60486077859E+03  0.25232986887E+03  0.78710449385E+03  0.00000000000E+00 0. -1.
          1    1    1    2  502    0  0.31922082187E+02 -0.33192225884E+02  0.34047585265E+03  0.34357611882E+03  0.00000000000E+00 0. -1.
         22    1    3    3    0    0  0.25349285138E+03 -0.27003352649E+03 -0.32673889206E+03  0.49389779784E+03  0.00000000000E+00 0.  1.
         22    1    3    3    0    0  0.15048248560E+03 -0.30163502621E+03 -0.21201675541E+03  0.39822075798E+03  0.00000000000E+00 0.  1.
</event>
<event>
 7    1  0.6999029E-005  0.4324543E+03  0.7818608E-02  0.1169241E+00
          2   -1    0    0  502    0  0.00000000000E+00  0.00000000000E+00  0.25174853483E+04  0.25174853483E+04  0.00000000000E+00 0. -1.
          1   -1    0    0  501    0 -0.00000000000E+00 -0.00000000000E+00 -0.57838904505E+03  0.57838904505E+03  0.00000000000E+00 0. -1.
         25    2    1    2    0    0 -0.13548432687E+03 -0.34263156836E+03  0.73967476506E+03  0.83576107867E+03  0.12500171233E+03 0.  0.
          2    1    1    2  501    0  0.17986021724E+03  0.40146956645E+03 -0.43814736166E+03  0.62088696319E+03  0.00000000000E+00 0. -1.
          1    1    1    2  502    0 -0.44375890372E+02 -0.58837998083E+02  0.16375688998E+04  0.16392263515E+04  0.00000000000E+00 0. -1.
         22    1    3    3    0    0 -0.12000802913E+03 -0.20379572887E+03  0.35556865354E+03  0.42704062283E+03  0.00000000000E+00 0. -1.
         22    1    3    3    0    0 -0.15476297738E+02 -0.13883583950E+03  0.38410611151E+03  0.40872045584E+03  0.00000000000E+00 0. -1.
</event>
<event>
 7    1  0.6999029E-005  0.2391539E+03  0.7818608E-02  0.1284185E+00
          2   -1    0    0  502    0  0.00000000000E+00  0.00000000000E+00  0.72002484475E+03  0.72002484475E+03  0.00000000000E+00 0. -1.
          1   -1    0    0  501    0 -0.00000000000E+00 -0.00000000000E+00 -0.33230696727E+03  0.33230696727E+03  0.00000000000E+00 0. -1.
         25    2    1    2    0    0  0.12693963245E+03  0.20886734598E+03 -0.11652104744E+03  0.29822715850E+03  0.12499218003E+03 0.  0.
          2    1    1    2  501    0 -0.15274772698E+03 -0.17791458792E+03 -0.13425561698E+02  0.23487382655E+03  0.00000000000E+00 0. -1.
          1    1    1    2  502    0  0.25808094530E+02 -0.30952758059E+02  0.51766448661E+03  0.51923082697E+03  0.00000000000E+00 0. -1.
         22    1    3    3    0    0  0.60237300446E+02  0.49703027409E+02  0.17126833575E+02  0.79951558627E+02  0.00000000000E+00 0.  1.
         22    1    3    3    0    0  0.66702332002E+02  0.15916431857E+03 -0.13364788102E+03  0.21827559987E+03  0.00000000000E+00 0.  1.
</event>
<event>
 7    1  0.6999029E-005  0.3873251E+03  0.7818608E-02  0.1204561E+00
          2   -1    0    0  502    0  0.00000000000E+00  0.00000000000E+00  0.40245605666E+04  0.40245605666E+04  0.00000000000E+00 0. -1.
          1   -1    0    0  501    0 -0.00000000000E+00 -0.00000000000E+00 -0.12636178962E+03  0.12636178962E+03  0.00000000000E+00 0. -1.
         25    2    1    2    0    0 -0.37111872046E+02 -0.35478963556E+03  0.11638777133E+04  0.12237191366E+04  0.12499686922E+03 0.  0.
          2    1    1    2  501    0  0.28786414063E+02 -0.47543248469E+02 -0.72684253572E+02  0.91498736750E+02  0.00000000000E+00 0. -1.
          1    1    1    2  502    0  0.83254579827E+01  0.40233288403E+03  0.28070053173E+04  0.28357044828E+04  0.00000000000E+00 0. -1.
         22    1    3    3    0    0 -0.45562506880E+02 -0.32409369654E+03  0.89499184502E+03  0.95295491437E+03  0.00000000000E+00 0.  1.
         22    1    3    3    0    0  0.84506348344E+01 -0.30695939020E+02  0.26888586824E+03  0.27076422223E+03  0.00000000000E+00 0.  1.
</event>
<event>
 7    1  0.1144354E-004  0.1757998E+03  0.7818608E-02  0.1210026E+00
          2   -1    0    0  502    0  0.00000000000E+00  0.00000000000E+00  0.16676233915E+04  0.16676233915E+04  0.00000000000E+00 0. -1.
          1   -1    0    0  501    0 -0.00000000000E+00 -0.00000000000E+00 -0.12423113278E+04  0.12423113278E+04  0.00000000000E+00 0. -1.
         25    2    1    2    0    0 -0.16637226520E+03  0.23343207720E+03 -0.61577957987E+03  0.69063653984E+03  0.12499629546E+03 0.  0.
          2    1    1    2  501    0  0.84439132781E+02 -0.78777225236E+02 -0.57868427846E+03  0.59009432509E+03  0.00000000000E+00 0. -1.
          1    1    1    2  502    0  0.81933132417E+02 -0.15465485196E+03  0.16197759221E+04  0.16292038544E+04  0.00000000000E+00 0. -1.
         22    1    3    3    0    0 -0.32720490004E+02  0.10838195271E+03 -0.35058987869E+03  0.36841626075E+03  0.00000000000E+00 0.  1.
         22    1    3    3    0    0 -0.13365177519E+03  0.12505012448E+03 -0.26518970118E+03  0.32222027909E+03  0.00000000000E+00 0.  1.
</event>
<event>
 7    1  0.6999029E-005  0.2342875E+03  0.7818608E-02  0.1184998E+00
          2   -1    0    0  502    0  0.00000000000E+00  0.00000000000E+00  0.26606298357E+04  0.26606298357E+04  0.00000000000E+00 0. -1.
          1   -1    0    0  501    0 -0.00000000000E+00 -0.00000000000E+00 -0.11542691185E+03  0.11542691185E+03  0.00000000000E+00 0. -1.
         25    2    1    2    0    0  0.91861694566E+02 -0.12378500602E+03  0.69484350940E+03  0.72262986069E+03  0.12500045747E+03 0.  0.
          2    1    1    2  501    0 -0.89053148983E+02  0.23760009140E+03  0.61682340174E+02  0.26113019333E+03  0.00000000000E+00 0. -1.
          1    1    1    2  502    0 -0.28085455826E+01 -0.11381508539E+03  0.17886770743E+04  0.17922966936E+04  0.00000000000E+00 0. -1.
         22    1    3    3    0    0  0.10460322585E+03 -0.10636993759E+03  0.39863329556E+03  0.42563470583E+03  0.00000000000E+00 0. -1.
         22    1    3    3    0    0 -0.12741531285E+02 -0.17415068431E+02  0.29621021384E+03  0.29699515486E+03  0.00000000000E+00 0. -1.
</event>
<event>
 7    1  0.6999029E-005  0.6447439E+03  0.7818608E-02  0.1136154E+00
          2   -1    0    0  502    0  0.00000000000E+00  0.00000000000E+00  0.29151124554E+04  0.29151124554E+04  0.00000000000E+00 0. -1.
          1   -1    0    0  501    0 -0.00000000000E+00 -0.00000000000E+00 -0.13402497285E+04  0.13402497285E+04  0.00000000000E+00 0. -1.
         25    2    1    2    0    0 -0.21706411770E+03  0.57574102353E+03 -0.56771862223E+03  0.84647746751E+03  0.12500044642E+03 0.  0.
          2    1    1    2  501    0  0.21694394985E+03 -0.64876316372E+03 -0.44771348394E+03  0.81756081345E+03  0.00000000000E+00 0. -1.
          1    1    1    2  502    0  0.12016784401E+00  0.73022140193E+02  0.25902948331E+04  0.25913239029E+04  0.00000000000E+00 0. -1.
         22    1    3    3    0    0 -0.11190983453E+03  0.31434480758E+03 -0.22330743731E+03  0.40150053633E+03  0.00000000000E+00 0. -1.
         22    1    3    3    0    0 -0.10515428317E+03  0.26139621595E+03 -0.34441118492E+03  0.44497693117E+03  0.00000000000E+00 0. -1.
</event>
<event>
 7    1  0.6999029E-005  0.2850945E+03  0.7818608E-02  0.1237694E+00
          2   -1    0    0  502    0  0.00000000000E+00  0.00000000000E+00  0.10561985585E+04  0.10561985585E+04  0.00000000000E+00 0. -1.
          1   -1    0    0  501    0 -0.00000000000E+00 -0.00000000000E+00 -0.26184063511E+03  0.26184063511E+03  0.00000000000E+00 0. -1.
         25    2    1    2    0    0 -0.13923085001E+03 -0.28263785977E+03  0.35089433283E+03  0.48787492897E+03  0.12500289650E+03 0.  0.
          2    1    1    2  501    0  0.89363678991E+02  0.26366013356E+03 -0.91119226580E+02  0.29292532598E+03  0.00000000000E+00 0. -1.
          1    1    1    2  502    0  0.49867171021E+02  0.18977726213E+02  0.53458281719E+03  0.53723893871E+03  0.00000000000E+00 0. -1.
         22    1    3    3    0    0 -0.10746270181E+03 -0.28706997913E+03  0.32395883549E+03  0.44598961006E+03  0.00000000000E+00 0.  1.
         22    1    3    3    0    0 -0.31768148205E+02  0.44321193579E+01  0.26935497343E+02  0.41885318902E+02  0.00000000000E+00 0.  1.
</event>
<event>
 7    1  0.6999029E-005  0.6445288E+02  0.7818608E-02  0.1525478E+00
          2   -1    0    0  502    0  0.00000000000E+00  0.00000000000E+00  0.52768238206E+03  0.52768238206E+03  0.00000000000E+00 0. -1.
          1   -1    0    0  501    0 -0.00000000000E+00 -0.00000000000E+00 -0.69292840589E+02  0.69292840589E+02  0.00000000000E+00 0. -1.
         25    2    1    2    0    0  0.73518244439E+02 -0.15784220147E+01  0.90208412748E+02  0.17079197471E+03  0.12499966886E+03 0.  0.
          2    1    1    2  501    0 -0.11795972880E+02  0.18696423509E+02 -0.21758331281E+02  0.31018159332E+02  0.00000000000E+00 0. -1.
          1    1    1    2  502    0 -0.61722271559E+02 -0.17118001494E+02  0.38993946001E+03  0.39516508861E+03  0.00000000000E+00 0. -1.
         22    1    3    3    0    0  0.40432700668E+02  0.57132766653E+02  0.18521703082E+02  0.72401725075E+02  0.00000000000E+00 0.  1.
         22    1    3    3    0    0  0.33085543771E+02 -0.58711188668E+02  0.71686709666E+02  0.98390249639E+02  0.00000000000E+00 0.  1.
</event>
<event>
 7    1  0.9128344E-005  0.2956438E+03  0.7818608E-02  0.1193717E+00
          2   -1    0    0  502    0  0.00000000000E+00  0.00000000000E+00  0.77000070643E+03  0.77000070643E+03  0.00000000000E+00 0. -1.
          1   -1    0    0  501    0 -0.00000000000E+00 -0.00000000000E+00 -0.21088035042E+04  0.21088035042E+04  0.00000000000E+00 0. -1.
         25    2    1    2    0    0  0.36691136244E+03  0.66195398490E+02 -0.65604976502E+03  0.76487346361E+03  0.12499736989E+03 0.  0.
          2    1    1    2  501    0 -0.81925556487E+02 -0.72525053748E+00 -0.13671926803E+04  0.13696452635E+04  0.00000000000E+00 0. -1.
          1    1    1    2  502    0 -0.28498580595E+03 -0.65470147953E+02  0.68443964753E+03  0.74428548352E+03  0.00000000000E+00 0. -1.
         22    1    3    3    0    0  0.21535392964E+03 -0.18869521136E+02 -0.31427829347E+03  0.38145015348E+03  0.00000000000E+00 0.  1.
         22    1    3    3    0    0  0.15155743280E+03  0.85064919626E+02 -0.34177147154E+03  0.38342331013E+03  0.00000000000E+00 0.  1.
</event>
<event>
 7    1  0.6999029E-005  0.3140636E+03  0.7818608E-02  0.1133318E+00
          2   -1    0    0  502    0  0.00000000000E+00  0.00000000000E+00  0.18379142390E+04  0.18379142390E+04  0.00000000000E+00 0. -1.
          1   -1    0    0  501    0 -0.00000000000E+00 -0.00000000000E+00 -0.76019271893E+03  0.76019271893E+03  0.00000000000E+00 0. -1.
         25    2    1    2    0    0  0.13839212744E+03  0.32250195598E+03  0.14613112635E+04  0.15080512626E+04  0.12501243756E+03 0.  0.
          2    1    1    2  501    0  0.47582917357E+02 -0.14770003833E+03 -0.68081981321E+03  0.69828006803E+03  0.00000000000E+00 0. -1.
          1    1    1    2  502    0 -0.18597504480E+03 -0.17480191765E+03  0.29723006987E+03  0.39177562729E+03  0.00000000000E+00 0. -1.
         22    1    3    3    0    0 -0.23140339227E+02  0.30657102199E+02  0.12728906189E+03  0.13295803282E+03  0.00000000000E+00 0. -1.
         22    1    3    3    0    0  0.16153246667E+03  0.29184485378E+03  0.13340222016E+04  0.13750932298E+04  0.00000000000E+00 0. -1.
</event>
<event>
 7    1  0.6999029E-005  0.3285602E+03  0.7818608E-02  0.1121419E+00
          2   -1    0    0  502    0  0.00000000000E+00  0.00000000000E+00  0.12293244867E+04  0.12293244867E+04  0.00000000000E+00 0. -1.
          1   -1    0    0  501    0 -0.00000000000E+00 -0.00000000000E+00 -0.40617546643E+03  0.40617546643E+03  0.00000000000E+00 0. -1.
         25    2    1    2    0    0 -0.30037423463E+03  0.10562385227E+03 -0.86199960336E+02  0.35276155110E+03  0.12501679798E+03 0.  0.
          2    1    1    2  501    0  0.24879053946E+03 -0.26948159570E+03  0.97613608070E+01  0.36689555341E+03  0.00000000000E+00 0. -1.
          1    1    1    2  502    0  0.51583695165E+02  0.16385774343E+03  0.89958761976E+03  0.91584284859E+03  0.00000000000E+00 0. -1.
         22    1    3    3    0    0 -0.91350555645E+02  0.88577694440E+02 -0.33963295041E+01  0.12728891163E+03  0.00000000000E+00 0.  1.
         22    1    3    3    0    0 -0.20902367898E+03  0.17046157825E+02 -0.82803630832E+02  0.22547263948E+03  0.00000000000E+00 0.  1.
</event>
<event>
 7    1  0.6999029E-005  0.7177357E+02  0.7818608E-02  0.1502684E+00
          2   -1    0    0  502    0  0.00000000000E+00  0.00000000000E+00  0.56876677138E+03  0.56876677138E+03  0.00000000000E+00 0. -1.
          1   -1    0    0  501    0 -0.00000000000E+00 -0.00000000000E+00 -0.29808966208E+03  0.29808966208E+03  0.00000000000E+00 0. -1.
         25    2    1    2    0    0 -0.26887226180E+02  0.80691613358E+02  0.32510363456E+03  0.35854054348E+03  0.12499955486E+03 0.  0.
          2    1    1    2  501    0 -0.75018942215E+01 -0.21899400755E+02 -0.27576489485E+03  0.27673478170E+03  0.00000000000E+00 0. -1.
          1    1    1    2  502    0  0.34389120401E+02 -0.58792212603E+02  0.22133836958E+03  0.23158110828E+03  0.00000000000E+00 0. -1.
         22    1    3    3    0    0 -0.44525500856E+02  0.51512389154E+01  0.23679394912E+03  0.24099881707E+03  0.00000000000E+00 0.  1.
         22    1    3    3    0    0  0.17638274677E+02  0.75540374443E+02  0.88309685444E+02  0.11754172641E+03  0.00000000000E+00 0.  1.
</event>
<event>
 7    1  0.6999029E-005  0.3397654E+03  0.7818608E-02  0.1156715E+00
          2   -1    0    0  502    0  0.00000000000E+00  0.00000000000E+00  0.17603344959E+04  0.17603344959E+04  0.00000000000E+00 0. -1.
          1   -1    0    0  501    0 -0.00000000000E+00 -0.00000000000E+00 -0.30760301309E+03  0.30760301309E+03  0.00000000000E+00 0. -1.
         25    2    1    2    0    0  0.23550355336E+03 -0.36817133079E+03  0.92914842187E+03  0.10343857074E+04  0.12499979779E+03 0.  0.
          2    1    1    2  501    0 -0.18460370225E+03  0.27241879452E+03 -0.14256884086E+03  0.35863128820E+03  0.00000000000E+00 0. -1.
          1    1    1    2  502    0 -0.50899851112E+02  0.95752536270E+02  0.66615190181E+03  0.67492051334E+03  0.00000000000E+00 0. -1.
         22    1    3    3    0    0  0.19461647342E+03 -0.22513035581E+03  0.70640318420E+03  0.76652769518E+03  0.00000000000E+00 0.  1.
         22    1    3    3    0    0  0.40887079940E+02 -0.14304097498E+03  0.22274523766E+03  0.26785801226E+03  0.00000000000E+00 0.  1.
</event>
<event>
 7    1  0.6999029E-005  0.9718498E+02  0.7818608E-02  0.1288361E+00
          2   -1    0    0  502    0  0.00000000000E+00  0.00000000000E+00  0.42325643241E+03  0.42325643241E+03  0.00000000000E+00 0. -1.
          1   -1    0    0  501    0 -0.00000000000E+00 -0.00000000000E+00 -0.20260004771E+03  0.20260004771E+03  0.00000000000E+00 0. -1.
         25    2    1    2    0    0  0.70824452995E+02 -0.43731425893E+00 -0.93329440974E+02  0.17132165332E+03  0.12499771981E+03 0.  0.
          2    1    1    2  501    0 -0.16662155954E+03 -0.15928315647E+02  0.52262982775E+02  0.17535071916E+03  0.00000000000E+00 0. -1.
          1    1    1    2  502    0  0.95797106545E+02  0.16365629906E+02  0.26172284290E+03  0.27918410764E+03  0.00000000000E+00 0. -1.
         22    1    3    3    0    0  0.43342151861E+02  0.25571432699E+02  0.18227185911E+02  0.53522617690E+02  0.00000000000E+00 0. -1.
         22    1    3    3    0    0  0.27482301134E+02 -0.26008746958E+02 -0.11155662688E+03  0.11779903563E+03  0.00000000000E+00 0. -1.
</event>
<event>
 7    1  0.6999029E-005  0.3194542E+03  0.7818608E-02  0.1100104E+00
          2   -1    0    0  502    0  0.00000000000E+00  0.00000000000E+00  0.45285659870E+03  0.45285659870E+03  0.00000000000E+00 0. -1.
          1   -1    0    0  501    0 -0.00000000000E+00 -0.00000000000E+00 -0.22473983132E+04  0.22473983132E+04  0.00000000000E+00 0. -1.
         25    2    1    2    0    0  0.37245007226E+03 -0.28640151327E+03  0.28824603772E+02  0.48703204346E+03  0.12499788173E+03 0.  0.
          2    1    1    2  501    0 -0.12501960554E+03  0.19508102409E+03 -0.19188031545E+04  0.19327421074E+04  0.00000000000E+00 0. -1.
          1    1    1    2  502    0 -0.24743046672E+03  0.91320489184E+02  0.95436836283E+02  0.28048076106E+03  0.00000000000E+00 0. -1.
         22    1    3    3    0    0  0.32101938101E+03 -0.26199398756E+03 -0.15856275400E+02  0.41466337429E+03  0.00000000000E+00 0. -1.
         22    1    3    3    0    0  0.51430691252E+02 -0.24407525709E+02  0.44680879172E+02  0.72368669171E+02  0.00000000000E+00 0. -1.
</event>
<event>
 7    1  0.6999029E-005  0.1028576E+03  0.7818608E-02  0.1326995E+00
          2   -1    0    0  502    0  0.00000000000E+00  0.00000000000E+00  0.82602468354E+03  0.82602468354E+03  0.00000000000E+00 0. -1.
          1   -1    0    0  501    0 -0.00000000000E+00 -0.00000000000E+00 -0.12004405075E+04  0.12004405075E+04  0.00000000000E+00 0. -1.
         25    2    1    2    0    0  0.15654888869E+02  0.11620308868E+03  0.59859062891E+03  0.62264292250E+03  0.12500093820E+03 0.  0.
          2    1    1    2  501    0 -0.57056209487E+02 -0.27554214650E+02 -0.11764077159E+04  0.11781127959E+04  0.00000000000E+00 0. -1.
          1    1    1    2  502    0  0.41401320618E+02 -0.88648874028E+02  0.20340126307E+03  0.22570947263E+03  0.00000000000E+00 0. -1.
         22    1    3    3    0    0 -0.37677701417E+02  0.11114163203E+03  0.38921865807E+03  0.40652581142E+03  0.00000000000E+00 0.  1.
         22    1    3    3    0    0  0.53332590287E+02  0.50614566488E+01  0.20937197083E+03  0.21611711108E+03  0.00000000000E+00 0.  1.
</event>
<event>
 7    1  0.6999029E-005  0.2396828E+03  0.7818608E-02  0.1153862E+00
          2   -1    0    0  502    0  0.00000000000E+00  0.00000000000E+00  0.29509466476E+03  0.29509466476E+03  0.00000000000E+00 0. -1.
          1   -1    0    0  501    0 -0.00000000000E+00 -0.00000000000E+00 -0.19344353662E+04  0.19344353662E+04  0.00000000000E+00 0. -1.
         25    2    1    2    0    0  0.29022800777E+03 -0.11255600829E+03 -0.15045812000E+04  0.15415226766E+04  0.12500569328E+03 0.  0.
          2    1    1    2  501    0 -0.13127986967E+03  0.11087677186E+03 -0.36777395065E+03  0.40593810057E+03  0.00000000000E+00 0. -1.
          1    1    1    2  502    0 -0.15894813810E+03  0.16792364260E+01  0.23301444920E+03  0.28206925386E+03  0.00000000000E+00 0. -1.
         22    1    3    3    0    0  0.27561731284E+02 -0.61199842389E+02 -0.26386609254E+03  0.27226895624E+03  0.00000000000E+00 0. -1.
         22    1    3    3    0    0  0.26266627649E+03 -0.51356165900E+02 -0.12407151075E+04  0.12692537203E+04  0.00000000000E+00 0. -1.
</event>
<event>
 7    1  0.6999029E-005  0.6475229E+03  0.7818608E-02  0.1095581E+00
          2   -1    0    0  502    0  0.00000000000E+00  0.00000000000E+00  0.28584808322E+04  0.28584808322E+04  0.00000000000E+00 0. -1.
          1   -1    0    0  501    0 -0.00000000000E+00 -0.00000000000E+00 -0.84818064408E+03  0.84818064408E+03  0.00000000000E+00 0. -1.
         25    2    1    2    0    0  0.29030296794E+01  0.72576278926E+03  0.64720038441E+03  0.98042449368E+03  0.12499518547E+03 0.  0.
          2    1    1    2  501    0 -0.64018593290E+02 -0.10296957441E+03 -0.62774985753E+03  0.63935201350E+03  0.00000000000E+00 0. -1.
          1    1    1    2  502    0  0.61115563611E+02 -0.62279321485E+03  0.19908496612E+04  0.20868849691E+04  0.00000000000E+00 0. -1.
         22    1    3    3    0    0 -0.15804055856E+02  0.66529106400E+03  0.62608001336E+03  0.91369478008E+03  0.00000000000E+00 0. -1.
         22    1    3    3    0    0  0.18707085535E+02  0.60471725252E+02  0.21120371050E+02  0.66729713602E+02  0.00000000000E+00 0. -1.
</event>
<event>
 7    1  0.6999029E-005  0.4091919E+03  0.7818608E-02  0.1064952E+00
          2   -1    0    0  502    0  0.00000000000E+00  0.00000000000E+00  0.16914122383E+04  0.16914122383E+04  0.00000000000E+00 0. -1.
          1   -1    0    0  501    0 -0.00000000000E+00 -0.00000000000E+00 -0.49108272004E+03  0.49108272004E+03  0.00000000000E+00 0. -1.
         25    2    1    2    0    0 -0.14751658876E+03  0.24111889449E+03  0.12883920105E+04  0.13249447090E+04  0.12500017571E+03 0.  0.
          2    1    1    2  501    0 -0.81507842496E+02 -0.41870737638E+03 -0.27971838340E+03  0.51009976420E+03  0.00000000000E+00 0. -1.
          1    1    1    2  502    0  0.22902443126E+03  0.17758848189E+03  0.19165589117E+03  0.34745048515E+03  0.00000000000E+00 0. -1.
         22    1    3    3    0    0 -0.45231705387E+02  0.15699617068E+03  0.51497825516E+03  0.54027428966E+03  0.00000000000E+00 0. -1.
         22    1    3    3    0    0 -0.10228488337E+03  0.84122723814E+02  0.77341375529E+03  0.78467041929E+03  0.00000000000E+00 0. -1.
</event>
<event>
 7    1  0.6999029E-005  0.1898634E+03  0.7818608E-02  0.1258808E+00
          2   -1    0    0  502    0  0.00000000000E+00  0.00000000000E+00  0.73647418329E+03  0.73647418329E+03  0.00000000000E+00 0. -1.
          1   -1    0    0  501    0 -0.00000000000E+00 -0.00000000000E+00 -0.13527903002E+04  0.13527903002E+04  0.00000000000E+00 0. -1.
         25    2    1    2    0    0 -0.39908274576E+02  0.21987628952E+03  0.38498782127E+02  0.25893418626E+03  0.12500601392E+03 0.  0.
          2    1    1    2  501    0 -0.16492947383E+02 -0.18788287538E+03 -0.12335947127E+04  0.12479294480E+04  0.00000000000E+00 0. -1.
          1    1    1    2  502    0  0.56401221959E+02 -0.31993414139E+02  0.57877981367E+03  0.58240084915E+03  0.00000000000E+00 0. -1.
         22    1    3    3    0    0 -0.94736387876E+01  0.19492085149E+03  0.71230535278E+02  0.20774425945E+03  0.00000000000E+00 0.  1.
         22    1    3    3    0    0 -0.30434635788E+02  0.24955438030E+02 -0.32731753151E+02  0.51189926814E+02  0.00000000000E+00 0.  1.
</event>
<event>
 7    1  0.1032342E-004  0.9482304E+02  0.7818608E-02  0.1389329E+00
          2   -1    0    0  502    0  0.00000000000E+00  0.00000000000E+00  0.10591754079E+04  0.10591754079E+04  0.00000000000E+00 0. -1.
          1   -1    0    0  501    0 -0.00000000000E+00 -0.00000000000E+00 -0.13016673972E+04  0.13016673972E+04  0.00000000000E+00 0. -1.
         25    2    1    2    0    0 -0.10570747957E+03 -0.80158794408E+02 -0.10508004185E+04  0.10664927454E+04  0.12500301183E+03 0.  0.
          2    1    1    2  501    0  0.23402896232E+02  0.33219395454E+02 -0.23916884487E+03  0.24259629045E+03  0.00000000000E+00 0. -1.
          1    1    1    2  502    0  0.82304583337E+02  0.46939398954E+02  0.10474772740E+04  0.10517537692E+04  0.00000000000E+00 0. -1.
         22    1    3    3    0    0 -0.30105464719E+02 -0.95158229930E+02 -0.71675721519E+03  0.72367280815E+03  0.00000000000E+00 0.  1.
         22    1    3    3    0    0 -0.75602014850E+02  0.14999435522E+02 -0.33404320330E+03  0.34281993726E+03  0.00000000000E+00 0.  1.
</event>
<event>
 7    1  0.6999029E-005  0.1025619E+03  0.7818608E-02  0.1317220E+00
          2   -1    0    0  502    0  0.00000000000E+00  0.00000000000E+00  0.29056025005E+03  0.29056025005E+03  0.00000000000E+00 0. -1.
          1   -1    0    0  501    0 -0.00000000000E+00 -0.00000000000E+00 -0.51757790725E+03  0.51757790725E+03  0.00000000000E+00 0. -1.
         25    2    1    2    0    0  0.15902337925E+03  0.37958427872E+02  0.14392016605E+02  0.20630280585E+03  0.12499776064E+03 0.  0.
          2    1    1    2  501    0 -0.99412755377E+02 -0.25708926670E+01 -0.40876628230E+03  0.42068917144E+03  0.00000000000E+00 0. -1.
          1    1    1    2  502    0 -0.59610623878E+02 -0.35387535205E+02  0.16735660849E+03  0.18114618001E+03  0.00000000000E+00 0. -1.
         22    1    3    3    0    0  0.11197792578E+03 -0.12760554094E+02  0.55714804220E+02  0.12572202278E+03  0.00000000000E+00 0.  1.
         22    1    3    3    0    0  0.47045453474E+02  0.50718981966E+02 -0.41322787615E+02  0.80580783072E+02  0.00000000000E+00 0.  1.
</event>
<event>
 7    1  0.6999029E-005  0.2397715E+03  0.7818608E-02  0.1131195E+00
          2   -1    0    0  502    0  0.00000000000E+00  0.00000000000E+00  0.24756587882E+04  0.24756587882E+04  0.00000000000E+00 0. -1.
          1   -1    0    0  501    0 -0.00000000000E+00 -0.00000000000E+00 -0.68065815594E+03  0.68065815594E+03  0.00000000000E+00 0. -1.
         25    2    1    2    0    0 -0.41511416713E+03 -0.15511254658E+03 -0.43493364423E+03  0.63337995555E+03  0.12499287722E+03 0.  0.
          2    1    1    2  501    0  0.18504957415E+03  0.96289979352E+02 -0.62868018086E+02  0.21787035759E+03  0.00000000000E+00 0. -1.
          1    1    1    2  502    0  0.23006459298E+03  0.58822567224E+02  0.22928022946E+04  0.23050666310E+04  0.00000000000E+00 0. -1.
         22    1    3    3    0    0 -0.34010257295E+03 -0.15083623967E+03 -0.41132284471E+03  0.55462402933E+03  0.00000000000E+00 0.  1.
         22    1    3    3    0    0 -0.75011594178E+02 -0.42763069072E+01 -0.23610799519E+02  0.78755926227E+02  0.00000000000E+00 0.  1.
</event>
<event>
 7    1  0.6999029E-005  0.1709021E+03  0.7818608E-02  0.1397849E+00
          2   -1    0    0  502    0  0.00000000000E+00  0.00000000000E+00  0.25787917024E+04  0.25787917024E+04  0.00000000000E+00 0. -1.
          1   -1    0    0  501    0 -0.00000000000E+00 -0.00000000000E+00 -0.11884545034E+04  0.11884545034E+04  0.00000000000E+00 0. -1.
         25    2    1    2    0    0 -0.58242323341E+02 -0.13837360469E+03 -0.17684101180E+03  0.26350951570E+03  0.12500039484E+03 0.  0.
          2    1    1    2  501    0 -0.72935320022E+01 -0.19758717781E+02 -0.96527513031E+03  0.96550488333E+03  0.00000000000E+00 0. -1.
          1    1    1    2  502    0  0.65535855343E+02  0.15813232247E+03  0.25324533412E+04  0.25382318068E+04  0.00000000000E+00 0. -1.
         22    1    3    3    0    0 -0.90474327964E+02 -0.61380436930E+02 -0.78903351077E+02  0.13482915437E+03  0.00000000000E+00 0.  1.
         22    1    3    3    0    0  0.32232004624E+02 -0.76993167763E+02 -0.97937660723E+02  0.12868036133E+03  0.00000000000E+00 0.  1.
</event>
<event>
 7    1  0.6999029E-005  0.1041581E+04  0.7818608E-02  0.1067007E+00
          2   -1    0    0  502    0  0.00000000000E+00  0.00000000000E+00  0.18033567068E+04  0.18033567068E+04  0.00000000000E+00 0. -1.
          1   -1    0    0  501    0 -0.00000000000E+00 -0.00000000000E+00 -0.17832784164E+04  0.17832784164E+04  0.00000000000E+00 0. -1.
         25    2    1    2    0    0 -0.40596006228E+03  0.94923605668E+03  0.10199988667E+03  0.10449316273E+04  0.12500186151E+03 0.  0.
          2    1    1    2  501    0  0.51066457661E+03 -0.91341734197E+03 -0.10996332770E+04  0.15179930482E+04  0.00000000000E+00 0. -1.
          1    1    1    2  502    0 -0.10470451433E+03 -0.35818714716E+02  0.10177116808E+04  0.10237104477E+04  0.00000000000E+00 0. -1.
         22    1    3    3    0    0 -0.18282412002E+03  0.31667013034E+03  0.77132352959E+02  0.37370313108E+03  0.00000000000E+00 0.  1.
         22    1    3    3    0    0 -0.22313594226E+03  0.63256592635E+03  0.24867533709E+02  0.67122849622E+03  0.00000000000E+00 0.  1.
</event>
<event>
 7    1  0.6999029E-005  0.1124490E+03  0.7818608E-02  0.1263991E+00
          2   -1    0    0  502    0  0.00000000000E+00  0.00000000000E+00  0.39292523577E+04  0.39292523577E+04  0.00000000000E+00 0. -1.
          1   -1    0    0  501    0 -0.00000000000E+00 -0.00000000000E+00 -0.30609241444E+03  0.30609241444E+03  0.00000000000E+00 0. -1.
         25    2    1    2    0    0  0.26503287450E+02 -0.18794228250E+03  0.28100577101E+03  0.36140572978E+03  0.12500052949E+03 0.  0.
          2    1    1    2  501    0  0.37585519208E+02  0.97034903531E+02 -0.25481853429E+03  0.27524703300E+03  0.00000000000E+00 0. -1.
          1    1    1    2  502    0 -0.64088806658E+02  0.90907378974E+02  0.35969727066E+04  0.35986920094E+04  0.00000000000E+00 0. -1.
         22    1    3    3    0    0 -0.12322152213E+02 -0.15323484353E+03  0.26596995898E+03  0.30720151657E+03  0.00000000000E+00 0.  1.
         22    1    3    3    0    0  0.38825439662E+02 -0.34707438976E+02  0.15035812036E+02  0.54204213202E+02  0.00000000000E+00 0.  1.
</event>
<event>
 7    1  0.6999029E-005  0.2286452E+03  0.7818608E-02  0.1224727E+00
          2   -1    0    0  502    0  0.00000000000E+00  0.00000000000E+00  0.13520020481E+04  0.13520020481E+04  0.00000000000E+00 0. -1.
          1   -1    0    0  501    0 -0.00000000000E+00 -0.00000000000E+00 -0.37147423609E+03  0.37147423609E+03  0.00000000000E+00 0. -1.
         25    2    1    2    0    0  0.17540023800E+03  0.19869957224E+03 -0.15774966117E+03  0.33280127960E+03  0.12499989042E+03 0.  0.
          2    1    1    2  501    0 -0.15165254179E+03 -0.12646357905E+03 -0.46985205358E+02  0.20297571229E+03  0.00000000000E+00 0. -1.
          1    1    1    2  502    0 -0.23747696216E+02 -0.72235993188E+02  0.11852626786E+04  0.11876992923E+04  0.00000000000E+00 0. -1.
         22    1    3    3    0    0  0.35131494134E+02 -0.25251552687E+01  0.88097774331E+01  0.36307168268E+02  0.00000000000E+00 0.  1.
         22    1    3    3    0    0  0.14026874387E+03  0.20122472751E+03 -0.16655943860E+03  0.29649411133E+03  0.00000000000E+00 0.  1.
</event>
<event>
 7    1  0.6999029E-005  0.1783767E+03  0.7818608E-02  0.1376257E+00
          2   -1    0    0  502    0  0.00000000000E+00  0.00000000000E+00  0.80466799266E+03  0.80466799266E+03  0.00000000000E+00 0. -1.
          1   -1    0    0  501    0 -0.00000000000E+00 -0.00000000000E+00 -0.28345501488E+03  0.28345501488E+03  0.00000000000E+00 0. -1.
         25    2    1    2    0    0  0.16316490053E+03 -0.49104274739E+02 -0.58523597248E+01  0.21141021747E+03  0.12500406142E+03 0.  0.
          2    1    1    2  501    0 -0.16732633338E+03  0.72761840890E+02 -0.12693460679E+03  0.22227186447E+03  0.00000000000E+00 0. -1.
          1    1    1    2  502    0  0.41614328442E+01 -0.23657566151E+02  0.65399994430E+03  0.65444092560E+03  0.00000000000E+00 0. -1.
         22    1    3    3    0    0  0.10927080494E+03 -0.85994183303E+02 -0.29141805759E+02  0.14207164818E+03  0.00000000000E+00 0. -1.
         22    1    3    3    0    0  0.53894095597E+02  0.36889908564E+02  0.23289446034E+02  0.69338569286E+02  0.00000000000E+00 0. -1.
</event>
<event>
 7    1  0.6999029E-005  0.1277414E+03  0.7818608E-02  0.1322659E+00
          2   -1    0    0  502    0  0.00000000000E+00  0.00000000000E+00  0.29694138095E+03  0.29694138095E+03  0.00000000000E+00 0. -1.
          1   -1    0    0  501    0 -0.00000000000E+00 -0.00000000000E+00 -0.16311245707E+04  0.16311245707E+04  0.00000000000E+00 0. -1.
         25    2    1    2    0    0 -0.10477071533E+03 -0.11958780128E+03 -0.44327621117E+02  0.20704633512E+03  0.12500040755E+03 0.  0.
          2    1    1    2  501    0  0.10801628779E+03  0.66668731232E+02 -0.14994552463E+04  0.15048183525E+04  0.00000000000E+00 0. -1.
          1    1    1    2  502    0 -0.32455724647E+01  0.52919070045E+02  0.20959967768E+03  0.21620126410E+03  0.00000000000E+00 0. -1.
         22    1    3    3    0    0 -0.10284871931E+03 -0.54578195158E+02  0.16983548308E+02  0.11766511532E+03  0.00000000000E+00 0. -1.
         22    1    3    3    0    0 -0.19219960213E+01 -0.65009606119E+02 -0.61311169424E+02  0.89381219798E+02  0.00000000000E+00 0. -1.
</event>
<event>
 7    1  0.6999029E-005  0.1494682E+03  0.7818608E-02  0.1281852E+00
          2   -1    0    0  502    0  0.00000000000E+00  0.00000000000E+00  0.12714808205E+04  0.12714808205E+04  0.00000000000E+00 0. -1.
          1   -1    0    0  501    0 -0.00000000000E+00 -0.00000000000E+00 -0.71540010606E+02  0.71540010606E+02  0.00000000000E+00 0. -1.
         25    2    1    2    0    0  0.13817954460E+03  0.11731562218E+03  0.97996153982E+03  0.10043935304E+04  0.12500081031E+03 0.  0.
          2    1    1    2  501    0 -0.47420482288E+02 -0.45793037398E+02 -0.22798009563E+02  0.69752803919E+02  0.00000000000E+00 0. -1.
          1    1    1    2  502    0 -0.90759062316E+02 -0.71522584781E+02  0.24277727959E+03  0.26887449677E+03  0.00000000000E+00 0. -1.
         22    1    3    3    0    0  0.13692587097E+03  0.13320916851E+03  0.75234334965E+03  0.77621768369E+03  0.00000000000E+00 0.  1.
         22    1    3    3    0    0  0.12536736324E+01 -0.15893546327E+02  0.22761819017E+03  0.22817584668E+03  0.00000000000E+00 0.  1.
</event>
<event>
 7    1  0.6999029E-005  0.2130035E+03  0.7818608E-02  0.1164663E+00
          2   -1    0    0  502    0  0.00000000000E+00  0.00000000000E+00  0.25530424342E+03  0.25530424342E+03  0.00000000000E+00 0. -1.
          1   -1    0    0  501    0 -0.00000000000E+00 -0.00000000000E+00 -0.13127839104E+04  0.13127839104E+04  0.00000000000E+00 0. -1.
         25    2    1    2    0    0  0.64420260756E+02  0.24528650405E+03 -0.60134749834E+03  0.66449924449E+03  0.12499997240E+03 0.  0.
          2    1    1    2  501    0 -0.14981009142E+03 -0.49286378311E+02 -0.61648807798E+03  0.63634091560E+03  0.00000000000E+00 0. -1.
          1    1    1    2  502    0  0.85389830661E+02 -0.19600012574E+03  0.16035590937E+03  0.26724799371E+03  0.00000000000E+00 0. -1.
         22    1    3    3    0    0  0.75371435621E+02  0.59751409824E+02 -0.22765298317E+03  0.24713754274E+03  0.00000000000E+00 0. -1.
         22    1    3    3    0    0 -0.10951174864E+02  0.18553509423E+03 -0.37369451516E+03  0.41736170175E+03  0.00000000000E+00 0. -1.
</event>
<event>
 7    1  0.6999029E-005  0.1154266E+04  0.7818608E-02  0.1121926E+00
          2   -1    0    0  502    0  0.00000000000E+00  0.00000000000E+00  0.20067307501E+04  0.20067307501E+04  0.00000000000E+00 0. -1.
          1   -1    0    0  501    0 -0.00000000000E+00 -0.00000000000E+00 -0.16495174472E+04  0.16495174472E+04  0.00000000000E+00 0. -1.
         25    2    1    2    0    0  0.44897802957E+03  0.10806779866E+04  0.10092565530E+03  0.11812098683E+04  0.12499833349E+03 0.  0.
          2    1    1    2  501    0 -0.48273853513E+02 -0.55385469964E+01 -0.86757740788E+03  0.86893705129E+03  0.00000000000E+00 0. -1.
          1    1    1    2  502    0 -0.40070417606E+03 -0.10751394396E+04  0.11238650554E+04  0.16061012777E+04  0.00000000000E+00 0. -1.
         22    1    3    3    0    0  0.31953782659E+03  0.61036903158E+03  0.68126394951E+02  0.69231205610E+03  0.00000000000E+00 0. -1.
         22    1    3    3    0    0  0.12944020298E+03  0.47030895502E+03  0.32799260350E+02  0.48889781223E+03  0.00000000000E+00 0. -1.
</event>
<event>
 7    1  0.6999029E-005  0.8944351E+03  0.7818608E-02  0.1185475E+00
          2   -1    0    0  502    0  0.00000000000E+00  0.00000000000E+00  0.27220833739E+04  0.27220833739E+04  0.00000000000E+00 0. -1.
          1   -1    0    0  501    0 -0.00000000000E+00 -0.00000000000E+00 -0.26176212345E+04  0.26176212345E+04  0.00000000000E+00 0. -1.
         25    2    1    2    0    0 -0.89049881330E+03 -0.19943283444E+02 -0.14190974968E+04  0.16801335534E+04  0.12500072334E+03 0.  0.
          2    1    1    2  501    0 -0.27750291556E+01 -0.29533629179E+02 -0.99056638159E+03  0.99101044009E+03  0.00000000000E+00 0. -1.
          1    1    1    2  502    0  0.89327384245E+03  0.49476912624E+02  0.25141260177E+04  0.26685606149E+04  0.00000000000E+00 0. -1.
         22    1    3    3    0    0 -0.26147919951E+03 -0.56347187130E+02 -0.47401556885E+03  0.54427670976E+03  0.00000000000E+00 0. -1.
         22    1    3    3    0    0 -0.62901961379E+03  0.36403903686E+02 -0.94508192793E+03  0.11358568436E+04  0.00000000000E+00 0. -1.
</event>
<event>
 7    1  0.7262384E-005  0.1094280E+03  0.7818608E-02  0.1427465E+00
          2   -1    0    0  502    0  0.00000000000E+00  0.00000000000E+00  0.39976503533E+04  0.39976503533E+04  0.00000000000E+00 0. -1.
          1   -1    0    0  501    0 -0.00000000000E+00 -0.00000000000E+00 -0.59698466403E+03  0.59698466403E+03  0.00000000000E+00 0. -1.
         25    2    1    2    0    0 -0.55524831295E+02  0.79695571284E+02 -0.90629677770E+02  0.18240455894E+03  0.12499317444E+03 0.  0.
          2    1    1    2  501    0  0.14404096834E+02  0.21800597492E+02 -0.45933750955E+03  0.46008009274E+03  0.00000000000E+00 0. -1.
          1    1    1    2  502    0  0.41120734461E+02 -0.10149616878E+03  0.39506328766E+04  0.39521503656E+04  0.00000000000E+00 0. -1.
         22    1    3    3    0    0 -0.10350378219E+02  0.38036340342E+02  0.28307480748E+02  0.48530474778E+02  0.00000000000E+00 0. -1.
         22    1    3    3    0    0 -0.45174453077E+02  0.41659230942E+02 -0.11893715852E+03  0.13387408416E+03  0.00000000000E+00 0. -1.
</event>
<event>
 7    1  0.6999029E-005  0.4320563E+02  0.7818608E-02  0.1575978E+00
          2   -1    0    0  502    0  0.00000000000E+00  0.00000000000E+00  0.15027932302E+03  0.15027932302E+03  0.00000000000E+00 0. -1.
          1   -1    0    0  501    0 -0.00000000000E+00 -0.00000000000E+00 -0.24657835022E+03  0.24657835022E+03  0.00000000000E+00 0. -1.
         25    2    1    2    0    0  0.18295540980E+02  0.27161641365E+02 -0.16977394781E+03  0.21335577572E+03  0.12500004838E+03 0.  0.
          2    1    1    2  501    0 -0.88395337644E+01 -0.49054901106E+02 -0.42251983033E+02  0.65343329804E+02  0.00000000000E+00 0. -1.
          1    1    1    2  502    0 -0.94560072156E+01  0.21893259741E+02  0.11572690365E+03  0.11815856771E+03  0.00000000000E+00 0. -1.
         22    1    3    3    0    0  0.48559101514E+02  0.64004200312E+02 -0.12017765581E+03  0.14455861425E+03  0.00000000000E+00 0. -1.
         22    1    3    3    0    0 -0.30263560534E+02 -0.36842558947E+02 -0.49596292004E+02  0.68797161471E+02  0.00000000000E+00 0. -1.
</event>
<event>
 7    1  0.6999029E-005  0.3226078E+03  0.7818608E-02  0.1143167E+00
          2   -1    0    0  502    0  0.00000000000E+00  0.00000000000E+00  0.21003176864E+04  0.21003176864E+04  0.00000000000E+00 0. -1.
          1   -1    0    0  501    0 -0.00000000000E+00 -0.00000000000E+00 -0.10165863798E+04  0.10165863798E+04  0.00000000000E+00 0. -1.
         25    2    1    2    0    0 -0.56380259777E+02 -0.21319345502E+03  0.21540283988E+03  0.33264951920E+03  0.12500854467E+03 0.  0.
          2    1    1    2  501    0 -0.44441076835E+01 -0.13402130178E+03 -0.93613117753E+03  0.94568654478E+03  0.00000000000E+00 0. -1.
          1    1    1    2  502    0  0.60824367460E+02  0.34721475680E+03  0.18044596443E+04  0.18385680022E+04  0.00000000000E+00 0. -1.
         22    1    3    3    0    0 -0.26025605869E+02 -0.91801712688E+02  0.15291548835E+02  0.96637042996E+02  0.00000000000E+00 0. -1.
         22    1    3    3    0    0 -0.30354653908E+02 -0.12139174233E+03  0.20011129105E+03  0.23601247621E+03  0.00000000000E+00 0. -1.
</event>
<event>
 7    1  0.6999029E-005  0.1879568E+03  0.7818608E-02  0.1372302E+00
          2   -1    0    0  502    0  0.00000000000E+00  0.00000000000E+00  0.69569683057E+03  0.69569683057E+03  0.00000000000E+00 0. -1.
          1   -1    0    0  501    0 -0.00000000000E+00 -0.00000000000E+00 -0.34342087991E+04  0.34342087991E+04  0.00000000000E+00 0. -1.
         25    2    1    2    0    0  0.12990738329E+03 -0.12699652558E+03 -0.17934777019E+04  0.18069839302E+04  0.12499844395E+03 0.  0.
          2    1    1    2  501    0 -0.12323164008E+03  0.14958073158E+03 -0.16280275441E+04  0.16395225270E+04  0.00000000000E+00 0. -1.
          1    1    1    2  502    0 -0.66757432117E+01 -0.22584205998E+02  0.68299327744E+03  0.68339917247E+03  0.00000000000E+00 0. -1.
         22    1    3    3    0    0  0.55878089622E+02 -0.10665108444E+03 -0.65881484534E+03  0.66972667198E+03  0.00000000000E+00 0. -1.
         22    1    3    3    0    0  0.74029293673E+02 -0.20345441136E+02 -0.11346628566E+04  0.11372572582E+04  0.00000000000E+00 0. -1.
</event>
<event>
 7    1  0.6999029E-005  0.4182709E+03  0.7818608E-02  0.1131634E+00
          2   -1    0    0  502    0  0.00000000000E+00  0.00000000000E+00  0.15254119653E+04  0.15254119653E+04  0.00000000000E+00 0. -1.
          1   -1    0    0  501    0 -0.00000000000E+00 -0.00000000000E+00 -0.58582986857E+03  0.58582986857E+03  0.00000000000E+00 0. -1.
         25    2    1    2    0    0 -0.24264641282E+02 -0.33983306289E+03  0.10349055490E+03  0.37737219543E+03  0.12499678189E+03 0.  0.
          2    1    1    2  501    0  0.64968417391E+02  0.45158917575E+03 -0.32914764507E+03  0.56257608478E+03  0.00000000000E+00 0. -1.
          1    1    1    2  502    0 -0.40703776110E+02 -0.11175611286E+03  0.11652391870E+04  0.11712935537E+04  0.00000000000E+00 0. -1.
         22    1    3    3    0    0 -0.39085331698E+02 -0.28680624460E+02  0.31000468024E+02  0.57543639014E+02  0.00000000000E+00 0.  1.
         22    1    3    3    0    0  0.14820690416E+02 -0.31115243843E+03  0.72490086875E+02  0.31982855642E+03  0.00000000000E+00 0.  1.
</event>
<event>
 7    1  0.6999029E-005  0.4198306E+03  0.7818608E-02  0.1089034E+00
          2   -1    0    0  502    0  0.00000000000E+00  0.00000000000E+00  0.23700692261E+04  0.23700692261E+04  0.00000000000E+00 0. -1.
          1   -1    0    0  501    0 -0.00000000000E+00 -0.00000000000E+00 -0.59366952750E+03  0.59366952750E+03  0.00000000000E+00 0. -1.
         25    2    1    2    0    0 -0.44608438467E+03 -0.14441581562E+03  0.17758761124E+04  0.18409797090E+04  0.12499246490E+03 0.  0.
          2    1    1    2  501    0  0.18214962991E+03 -0.91487648394E+02 -0.48256839387E+03  0.52385182280E+03  0.00000000000E+00 0. -1.
          1    1    1    2  502    0  0.26393475476E+03  0.23590346402E+03  0.48309198006E+03  0.59890722178E+03  0.00000000000E+00 0. -1.
         22    1    3    3    0    0 -0.75610871065E+01  0.30351284923E+01  0.29216791654E+01  0.86555330478E+01  0.00000000000E+00 0. -1.
         22    1    3    3    0    0 -0.43852329757E+03 -0.14745094412E+03  0.17729544333E+04  0.18323241760E+04  0.00000000000E+00 0. -1.
</event>
<event>
 7    1  0.6999029E-005  0.3772879E+03  0.7818608E-02  0.1156830E+00
          2   -1    0    0  502    0  0.00000000000E+00  0.00000000000E+00  0.52734512532E+03  0.52734512532E+03  0.00000000000E+00 0. -1.
          1   -1    0    0  501    0 -0.00000000000E+00 -0.00000000000E+00 -0.24107742105E+04  0.24107742105E+04  0.00000000000E+00 0. -1.
         25    2    1    2    0    0  0.23336708521E+03  0.39268386134E+03 -0.31861924509E+03  0.57079215322E+03  0.12499858967E+03 0.  0.
          2    1    1    2  501    0 -0.15784019048E+03 -0.33098410664E+03 -0.19427259725E+04  0.19770301487E+04  0.00000000000E+00 0. -1.
          1    1    1    2  502    0 -0.75526894725E+02 -0.61699754696E+02  0.37791613240E+03  0.39029703392E+03  0.00000000000E+00 0. -1.
         22    1    3    3    0    0  0.23935922634E+02  0.10429659326E+03 -0.12722165937E+03  0.16624096478E+03  0.00000000000E+00 0.  1.
         22    1    3    3    0    0  0.20943116257E+03  0.28838726808E+03 -0.19139758571E+03  0.40455118843E+03  0.00000000000E+00 0.  1.
</event>
<event>
 7    1  0.6999029E-005  0.9534543E+02  0.7818608E-02  0.1413261E+00
          2   -1    0    0  502    0  0.00000000000E+00  0.00000000000E+00  0.86959077007E+03  0.86959077007E+03  0.00000000000E+00 0. -1.
          1   -1    0    0  501    0 -0.00000000000E+00 -0.00000000000E+00 -0.80431410689E+02  0.80431410689E+02  0.00000000000E+00 0. -1.
         25    2    1    2    0    0 -0.57933106115E+02  0.82327414824E+02  0.53086301395E+02  0.16904934891E+03  0.12500191580E+03 0.  0.
          2    1    1    2  501    0 -0.19730586641E+02 -0.27008989757E+02 -0.49744719050E+01  0.33816075284E+02  0.00000000000E+00 0. -1.
          1    1    1    2  502    0  0.77663692756E+02 -0.55318425067E+02  0.74104752989E+03  0.74715675656E+03  0.00000000000E+00 0. -1.
         22    1    3    3    0    0 -0.51492650628E+02  0.48185652592E+02  0.92623747947E+02  0.11641524328E+03  0.00000000000E+00 0. -1.
         22    1    3    3    0    0 -0.64404554873E+01  0.34141762232E+02 -0.39537446553E+02  0.52634105627E+02  0.00000000000E+00 0. -1.
</event>
<event>
 7    1  0.6999029E-005  0.7469576E+02  0.7818608E-02  0.1498348E+00
          2   -1    0    0  502    0  0.00000000000E+00  0.00000000000E+00  0.19054990286E+04  0.19054990286E+04  0.00000000000E+00 0. -1.
          1   -1    0    0  501    0 -0.00000000000E+00 -0.00000000000E+00 -0.14212767920E+03  0.14212767920E+03  0.00000000000E+00 0. -1.
         25    2    1    2    0    0 -0.29105621948E+02 -0.70826346774E+02  0.21516111344E+03  0.26035324102E+03  0.12500398693E+03 0.  0.
          2    1    1    2  501    0  0.47763270012E+02  0.57521970816E+02 -0.10775289245E+03  0.13115179343E+03  0.00000000000E+00 0. -1.
          1    1    1    2  502    0 -0.18657648064E+02  0.13304375958E+02  0.16559631284E+04  0.16561216734E+04  0.00000000000E+00 0. -1.
         22    1    3    3    0    0  0.29976992620E+02 -0.47534638326E+01  0.14262857089E+03  0.14582223678E+03  0.00000000000E+00 0. -1.
         22    1    3    3    0    0 -0.59082614568E+02 -0.66072882941E+02  0.72532542547E+02  0.11453100424E+03  0.00000000000E+00 0. -1.
</event>
<event>
 7    1  0.6999029E-005  0.3716123E+03  0.7818608E-02  0.1257873E+00
          2   -1    0    0  502    0  0.00000000000E+00  0.00000000000E+00  0.24228592695E+04  0.24228592695E+04  0.00000000000E+00 0. -1.
          1   -1    0    0  501    0 -0.00000000000E+00 -0.00000000000E+00 -0.11199819891E+04  0.11199819891E+04  0.00000000000E+00 0. -1.
         25    2    1    2    0    0 -0.28207824675E+03  0.26586883616E+03  0.69451942248E+02  0.41316267897E+03  0.12500180671E+03 0.  0.
          2    1    1    2  501    0  0.24931173512E+03 -0.27252818102E+03 -0.91201838007E+03  0.98397432705E+03  0.00000000000E+00 0. -1.
          1    1    1    2  502    0  0.32766511630E+02  0.66593448572E+01  0.21454437183E+04  0.21457042526E+04  0.00000000000E+00 0. -1.
         22    1    3    3    0    0 -0.24005890200E+03  0.26741241237E+03  0.39465760446E+02  0.36151794003E+03  0.00000000000E+00 0. -1.
         22    1    3    3    0    0 -0.42019344749E+02 -0.15435762102E+01  0.29986181801E+02  0.51644738935E+02  0.00000000000E+00 0. -1.
</event>
<event>
 7    1  0.6999029E-005  0.6478775E+03  0.7818608E-02  0.1149659E+00
          2   -1    0    0  502    0  0.00000000000E+00  0.00000000000E+00  0.29265405340E+04  0.29265405340E+04  0.00000000000E+00 0. -1.
          1   -1    0    0  501    0 -0.00000000000E+00 -0.00000000000E+00 -0.11605974467E+04  0.11605974467E+04  0.00000000000E+00 0. -1.
         25    2    1    2    0    0 -0.63778723103E+03  0.91692238453E+02  0.99639356660E+03  0.11931490844E+04  0.12499831716E+03 0.  0.
          2    1    1    2  501    0 -0.12500391030E+02 -0.60521112019E+02 -0.10033925304E+04  0.10052938052E+04  0.00000000000E+00 0. -1.
          1    1    1    2  502    0  0.65028762205E+03 -0.31171126434E+02  0.17729420511E+04  0.18886950911E+04  0.00000000000E+00 0. -1.
         22    1    3    3    0    0 -0.33195237737E+03  0.36209993713E+02  0.40377964590E+03  0.52396712390E+03  0.00000000000E+00 0. -1.
         22    1    3    3    0    0 -0.30583485365E+03  0.55482244740E+02  0.59261392071E+03  0.66918196046E+03  0.00000000000E+00 0. -1.
</event>
<event>
 7    1  0.6999029E-005  0.1508765E+03  0.7818608E-02  0.1292107E+00
          2   -1    0    0  502    0  0.00000000000E+00  0.00000000000E+00  0.15246364814E+04  0.15246364814E+04  0.00000000000E+00 0. -1.
          1   -1    0    0  501    0 -0.00000000000E+00 -0.00000000000E+00 -0.11995893389E+04  0.11995893389E+04  0.00000000000E+00 0. -1.
         25    2    1    2    0    0  0.12654753657E+03  0.14577019863E+01  0.68148827443E+03  0.70431981575E+03  0.12499492295E+03 0.  0.
          2    1    1    2  501    0  0.40120038050E+02 -0.43666486181E+02 -0.11785351804E+04  0.11800260806E+04  0.00000000000E+00 0. -1.
          1    1    1    2  502    0 -0.16666757462E+03  0.42208784194E+02  0.82209404854E+03  0.83987992388E+03  0.00000000000E+00 0. -1.
         22    1    3    3    0    0  0.10126826095E+03  0.16840839207E+01  0.22060834854E+03  0.24274707055E+03  0.00000000000E+00 0.  1.
         22    1    3    3    0    0  0.25279275628E+02 -0.22638193437E+00  0.46087992589E+03  0.46157274520E+03  0.00000000000E+00 0.  1.
</event>
<event>
 7    1  0.6999029E-005  0.5580446E+03  0.7818608E-02  0.1081053E+00
          2   -1    0    0  502    0  0.00000000000E+00  0.00000000000E+00  0.62714050123E+03  0.62714050123E+03  0.00000000000E+00 0. -1.
          1   -1    0    0  501    0 -0.00000000000E+00 -0.00000000000E+00 -0.98161286215E+03  0.98161286215E+03  0.00000000000E+00 0. -1.
         25    2    1    2    0    0  0.51175425665E+03  0.34657101198E+03 -0.43281769938E+02  0.63206369860E+03  0.12500928739E+03 0.  0.
          2    1    1    2  501    0 -0.16005802710E+02 -0.16982651496E+03 -0.40738738935E+03  0.44165791729E+03  0.00000000000E+00 0. -1.
          1    1    1    2  502    0 -0.49574845394E+03 -0.17674449703E+03  0.96196798369E+02  0.53503174750E+03  0.00000000000E+00 0. -1.
         22    1    3    3    0    0  0.95776912255E+02  0.11579122547E+02 -0.52514237247E+01  0.96617133321E+02  0.00000000000E+00 0. -1.
         22    1    3    3    0    0  0.41597734439E+03  0.33499188943E+03 -0.38030346213E+02  0.53544656528E+03  0.00000000000E+00 0. -1.
</event>
<event>
 7    1  0.6999029E-005  0.3680928E+03  0.7818608E-02  0.1146093E+00
          2   -1    0    0  502    0  0.00000000000E+00  0.00000000000E+00  0.14133861105E+04  0.14133861105E+04  0.00000000000E+00 0. -1.
          1   -1    0    0  501    0 -0.00000000000E+00 -0.00000000000E+00 -0.10619632204E+04  0.10619632204E+04  0.00000000000E+00 0. -1.
         25    2    1    2    0    0  0.41274980525E+03  0.24485161974E+01  0.99581706648E+03  0.10851935485E+04  0.12500004316E+03 0.  0.
          2    1    1    2  501    0 -0.10877296333E+03  0.32354080578E+02 -0.95056320562E+03  0.95731329875E+03  0.00000000000E+00 0. -1.
          1    1    1    2  502    0 -0.30397684192E+03 -0.34802596776E+02  0.30616902925E+03  0.43284248363E+03  0.00000000000E+00 0. -1.
         22    1    3    3    0    0 -0.57773851770E+01 -0.11068048765E+02  0.31363174371E+02  0.33756904324E+02  0.00000000000E+00 0. -1.
         22    1    3    3    0    0  0.41852719043E+03  0.13516564962E+02  0.96445389211E+03  0.10514366441E+04  0.00000000000E+00 0. -1.
</event>
<event>
 7    1  0.6999029E-005  0.7001386E+02  0.7818608E-02  0.1448884E+00
          2   -1    0    0  502    0  0.00000000000E+00  0.00000000000E+00  0.19392938450E+03  0.19392938450E+03  0.00000000000E+00 0. -1.
          1   -1    0    0  501    0 -0.00000000000E+00 -0.00000000000E+00 -0.11965727637E+04  0.11965727637E+04  0.00000000000E+00 0. -1.
         25    2    1    2    0    0  0.34728078120E+02  0.39315282287E+02 -0.63427969018E+03  0.64860422330E+03  0.12499992912E+03 0.  0.
          2    1    1    2  501    0 -0.26615914401E+02 -0.73139823935E+02 -0.55075097247E+03  0.55622340334E+03  0.00000000000E+00 0. -1.
          1    1    1    2  502    0 -0.81121637191E+01  0.33824541648E+02  0.18238728341E+03  0.18567452159E+03  0.00000000000E+00 0. -1.
         22    1    3    3    0    0  0.31349894331E+02  0.31609050332E+02 -0.62349069230E+02  0.76611711711E+02  0.00000000000E+00 0.  1.
         22    1    3    3    0    0  0.33781837891E+01  0.77062319553E+01 -0.57193062095E+03  0.57199251159E+03  0.00000000000E+00 0.  1.
</event>
<event>
 7    1  0.6999029E-005  0.3219351E+03  0.7818608E-02  0.1153466E+00
          2   -1    0    0  502    0  0.00000000000E+00  0.00000000000E+00  0.11450966042E+03  0.11450966042E+03  0.00000000000E+00 0. -1.
          1   -1    0    0  501    0 -0.00000000000E+00 -0.00000000000E+00 -0.20054298898E+04  0.20054298898E+04  0.00000000000E+00 0. -1.
         25    2    1    2    0    0 -0.14655141602E+03  0.37728196457E+03 -0.62903353659E+03  0.75837660874E+03  0.12503156485E+03 0.  0.
          2    1    1    2  501    0  0.15049384797E+03 -0.25845015905E+03 -0.11797134028E+04  0.12170327011E+04  0.00000000000E+00 0. -1.
          1    1    1    2  502    0 -0.39424319519E+01 -0.11883180552E+03 -0.82173289986E+02  0.14453024029E+03  0.00000000000E+00 0. -1.
         22    1    3    3    0    0 -0.10105207361E+03  0.36159846165E+03 -0.55429260308E+03  0.66948133572E+03  0.00000000000E+00 0. -1.
         22    1    3    3    0    0 -0.45499342415E+02  0.15683502917E+02 -0.74740933509E+02  0.88895273023E+02  0.00000000000E+00 0. -1.
</event>
<event>
 7    1  0.6999029E-005  0.1099463E+04  0.7818608E-02  0.1052668E+00
          2   -1    0    0  502    0  0.00000000000E+00  0.00000000000E+00  0.17274704234E+04  0.17274704234E+04  0.00000000000E+00 0. -1.
          1   -1    0    0  501    0 -0.00000000000E+00 -0.00000000000E+00 -0.19262118287E+04  0.19262118287E+04  0.00000000000E+00 0. -1.
         25    2    1    2    0    0 -0.74470775084E+03  0.77628439721E+03 -0.12755400511E+04  0.16732701422E+04  0.12499378912E+03 0.  0.
          2    1    1    2  501    0  0.79310513697E+03 -0.89493203217E+03  0.35506750587E+03  0.12473940974E+04  0.00000000000E+00 0. -1.
          1    1    1    2  502    0 -0.48397386131E+02  0.11864763496E+03  0.72173113999E+03  0.73301801253E+03  0.00000000000E+00 0. -1.
         22    1    3    3    0    0 -0.71625871426E+03  0.77364599269E+03 -0.12454035260E+04  0.16317428138E+04  0.00000000000E+00 0.  1.
         22    1    3    3    0    0 -0.28449036579E+02  0.26384045222E+01 -0.30136525086E+02  0.41527328411E+02  0.00000000000E+00 0.  1.
</event>
<event>
 7    1  0.6999029E-005  0.1581294E+03  0.7818608E-02  0.1313925E+00
          2   -1    0    0  502    0  0.00000000000E+00  0.00000000000E+00  0.56686172780E+02  0.56686172780E+02  0.00000000000E+00 0. -1.
          1   -1    0    0  501    0 -0.00000000000E+00 -0.00000000000E+00 -0.35200813387E+04  0.35200813387E+04  0.00000000000E+00 0. -1.
         25    2    1    2    0    0 -0.38555533106E+02  0.15267872618E+03 -0.62658764920E+03  0.65805362353E+03  0.12500066699E+03 0.  0.
          2    1    1    2  501    0  0.81896282099E+02 -0.13634909993E+03 -0.28617113081E+04  0.28661279959E+04  0.00000000000E+00 0. -1.
          1    1    1    2  502    0 -0.43340748993E+02 -0.16329626243E+02  0.24903791376E+02  0.52585892038E+02  0.00000000000E+00 0. -1.
         22    1    3    3    0    0 -0.82118856648E+02  0.77581102168E+02 -0.39032258222E+03  0.40634228456E+03  0.00000000000E+00 0.  1.
         22    1    3    3    0    0  0.43563323542E+02  0.75097624009E+02 -0.23626506698E+03  0.25171133897E+03  0.00000000000E+00 0.  1.
</event>
<event>
 7    1  0.6999029E-005  0.9077958E+03  0.7818608E-02  0.1072977E+00
          2   -1    0    0  502    0  0.00000000000E+00  0.00000000000E+00  0.74305067424E+03  0.74305067424E+03  0.00000000000E+00 0. -1.
          1   -1    0    0  501    0 -0.00000000000E+00 -0.00000000000E+00 -0.18464554960E+04  0.18464554960E+04  0.00000000000E+00 0. -1.
         25    2    1    2    0    0 -0.53437213983E+03 -0.67500243851E+03 -0.15194585158E+03  0.88311592296E+03  0.12499726293E+03 0.  0.
          2    1    1    2  501    0 -0.10764523734E+03 -0.45792918792E+02 -0.69891530665E+03  0.70863749153E+03  0.00000000000E+00 0. -1.
          1    1    1    2  502    0  0.64201737717E+03  0.72079535730E+03 -0.25254366357E+03  0.99775275580E+03  0.00000000000E+00 0. -1.
         22    1    3    3    0    0 -0.82696006379E+02 -0.18736457177E+03 -0.48040914208E+02  0.21036169248E+03  0.00000000000E+00 0. -1.
         22    1    3    3    0    0 -0.45167613345E+03 -0.48763786674E+03 -0.10390493737E+03  0.67275423048E+03  0.00000000000E+00 0. -1.
</event>
<event>
 7    1  0.6999029E-005  0.2402697E+03  0.7818608E-02  0.1141933E+00
          2   -1    0    0  502    0  0.00000000000E+00  0.00000000000E+00  0.18692627710E+04  0.18692627710E+04  0.00000000000E+00 0. -1.
          1   -1    0    0  501    0 -0.00000000000E+00 -0.00000000000E+00 -0.56473078730E+03  0.56473078730E+03  0.00000000000E+00 0. -1.
         25    2    1    2    0    0 -0.14610119809E+03 -0.56461244192E+02  0.39127899906E+03  0.43961114271E+03  0.12500107804E+03 0.  0.
          2    1    1    2  501    0 -0.54258144676E+02 -0.17449435627E+03 -0.50838908661E+03  0.54023299605E+03  0.00000000000E+00 0. -1.
          1    1    1    2  502    0  0.20035934277E+03  0.23095560046E+03  0.14216420713E+04  0.14541494196E+04  0.00000000000E+00 0. -1.
         22    1    3    3    0    0  0.17165630462E+02 -0.26677803327E+02  0.93120102736E+02  0.98375391197E+02  0.00000000000E+00 0.  1.
         22    1    3    3    0    0 -0.16326682855E+03 -0.29783440865E+02  0.29815889632E+03  0.34123575151E+03  0.00000000000E+00 0.  1.
</event>
<event>
 7    1  0.6999029E-005  0.5817305E+03  0.7818608E-02  0.1250212E+00
          2   -1    0    0  502    0  0.00000000000E+00  0.00000000000E+00  0.11045288134E+04  0.11045288134E+04  0.00000000000E+00 0. -1.
          1   -1    0    0  501    0 -0.00000000000E+00 -0.00000000000E+00 -0.16736039193E+04  0.16736039193E+04  0.00000000000E+00 0. -1.
         25    2    1    2    0    0 -0.56920697840E+03 -0.13819780236E+03  0.82328799901E+03  0.10180950484E+04  0.12497672330E+03 0.  0.
          2    1    1    2  501    0  0.19504134134E+02  0.12277282022E+02 -0.11433235653E+04  0.11435558219E+04  0.00000000000E+00 0. -1.
          1    1    1    2  502    0  0.54970284426E+03  0.12592052034E+03 -0.24903953959E+03  0.61648186243E+03  0.00000000000E+00 0. -1.
         22    1    3    3    0    0 -0.25141967493E+03 -0.11821168042E+03  0.43194375989E+03  0.51357693293E+03  0.00000000000E+00 0.  1.
         22    1    3    3    0    0 -0.31778730346E+03 -0.19986121938E+02  0.39134423912E+03  0.50451811544E+03  0.00000000000E+00 0.  1.
</event>
<event>
 7    1  0.6999029E-005  0.9537836E+03  0.7818608E-02  0.1166724E+00
          2   -1    0    0  502    0  0.00000000000E+00  0.00000000000E+00  0.12837882811E+04  0.12837882811E+04  0.00000000000E+00 0. -1.
          1   -1    0    0  501    0 -0.00000000000E+00 -0.00000000000E+00 -0.16342909617E+04  0.16342909617E+04  0.00000000000E+00 0. -1.
         25    2    1    2    0    0  0.59073319711E+03  0.75502202716E+03 -0.77042673938E+02  0.96983828475E+03  0.12500701301E+03 0.  0.
          2    1    1    2  501    0  0.21592069751E+02 -0.26771339193E+02 -0.84011345040E+03  0.84081718086E+03  0.00000000000E+00 0. -1.
          1    1    1    2  502    0 -0.61232526687E+03 -0.72825068796E+03  0.56665344373E+03  0.11074237772E+04  0.00000000000E+00 0. -1.
         22    1    3    3    0    0  0.17507449484E+03  0.17797347550E+03 -0.67471162823E+02  0.25860780061E+03  0.00000000000E+00 0. -1.
         22    1    3    3    0    0  0.41565870227E+03  0.57704855166E+03 -0.95715111145E+01  0.71123048414E+03  0.00000000000E+00 0. -1.
</event>
<event>
 7    1  0.6999029E-005  0.9548457E+03  0.7818608E-02  0.1162408E+00
          2   -1    0    0  502    0  0.00000000000E+00  0.00000000000E+00  0.14918104794E+04  0.14918104794E+04  0.00000000000E+00 0. -1.
          1   -1    0    0  501    0 -0.00000000000E+00 -0.00000000000E+00 -0.17289054741E+04  0.17289054741E+04  0.00000000000E+00 0. -1.
         25    2    1    2    0    0  0.56484921789E+03 -0.77456519484E+03 -0.13563646661E+03  0.97623160571E+03  0.12500006765E+03 0.  0.
          2    1    1    2  501    0 -0.53253828117E+03  0.79068999627E+03 -0.97884520361E+03  0.13663548674E+04  0.00000000000E+00 0. -1.
          1    1    1    2  502    0 -0.32310936714E+02 -0.16124801434E+02  0.87738667558E+03  0.87812948040E+03  0.00000000000E+00 0. -1.
         22    1    3    3    0    0  0.72616635188E+02 -0.51014159173E+02  0.91840304436E+01  0.89218644674E+02  0.00000000000E+00 0. -1.
         22    1    3    3    0    0  0.49223258270E+03 -0.72355103567E+03 -0.14482049705E+03  0.88701296104E+03  0.00000000000E+00 0. -1.
</event>
<event>
 7    1  0.6999029E-005  0.6785268E+02  0.7818608E-02  0.1532073E+00
          2   -1    0    0  502    0  0.00000000000E+00  0.00000000000E+00  0.15949763760E+04  0.15949763760E+04  0.00000000000E+00 0. -1.
          1   -1    0    0  501    0 -0.00000000000E+00 -0.00000000000E+00 -0.33982963234E+03  0.33982963234E+03  0.00000000000E+00 0. -1.
         25    2    1    2    0    0  0.49241897665E+02 -0.47351484900E+02  0.61008882603E+03  0.62649610671E+03  0.12498827333E+03 0.  0.
          2    1    1    2  501    0 -0.60520857846E+02  0.30710200201E+02 -0.32804888394E+03  0.33499546397E+03  0.00000000000E+00 0. -1.
          1    1    1    2  502    0  0.11278960181E+02  0.16641284699E+02  0.97310680155E+03  0.97331443764E+03  0.00000000000E+00 0. -1.
         22    1    3    3    0    0  0.57262477083E+02 -0.57855913418E+02  0.19646545027E+03  0.21266163535E+03  0.00000000000E+00 0. -1.
         22    1    3    3    0    0 -0.80205794184E+01  0.10504428518E+02  0.41362337576E+03  0.41383447136E+03  0.00000000000E+00 0. -1.
</event>
<event>
 7    1  0.6999029E-005  0.7415424E+02  0.7818608E-02  0.1429877E+00
          2   -1    0    0  502    0  0.00000000000E+00  0.00000000000E+00  0.18341498791E+03  0.18341498791E+03  0.00000000000E+00 0. -1.
          1   -1    0    0  501    0 -0.00000000000E+00 -0.00000000000E+00 -0.15072290815E+03  0.15072290815E+03  0.00000000000E+00 0. -1.
         25    2    1    2    0    0 -0.69384736181E+02  0.80524632117E+02  0.14833470826E+02  0.16475386092E+03  0.12500137935E+03 0.  0.
          2    1    1    2  501    0  0.24312919550E+02 -0.29019790817E+02 -0.56698682659E+02  0.68176293031E+02  0.00000000000E+00 0. -1.
          1    1    1    2  502    0  0.45071816631E+02 -0.51504841300E+02  0.74557291596E+02  0.10120774210E+03  0.00000000000E+00 0. -1.
         22    1    3    3    0    0 -0.11573467537E+02 -0.66338642299E+00 -0.46368235234E+02  0.47795381274E+02  0.00000000000E+00 0.  1.
         22    1    3    3    0    0 -0.57811268644E+02  0.81188018540E+02  0.61201706060E+02  0.11695847965E+03  0.00000000000E+00 0.  1.
</event>
<event>
 7    1  0.6999029E-005  0.5451247E+03  0.7818608E-02  0.1180333E+00
          2   -1    0    0  502    0  0.00000000000E+00  0.00000000000E+00  0.10306605632E+04  0.10306605632E+04  0.00000000000E+00 0. -1.
          1   -1    0    0  501    0 -0.00000000000E+00 -0.00000000000E+00 -0.64961804449E+03  0.64961804449E+03  0.00000000000E+00 0. -1.
         25    2    1    2    0    0 -0.47002048455E+03  0.25353869927E+03  0.44061021857E+03  0.70353498706E+03  0.12499194127E+03 0.  0.
          2    1    1    2  501    0 -0.34309533425E+00  0.51551672503E+02 -0.34416225919E+03  0.34800194439E+03  0.00000000000E+00 0. -1.
          1    1    1    2  502    0  0.47036357988E+03 -0.30509037177E+03  0.28459455933E+03  0.62874167623E+03  0.00000000000E+00 0. -1.
         22    1    3    3    0    0 -0.19411291396E+03  0.17273661427E+03  0.18661529889E+03  0.31991097364E+03  0.00000000000E+00 0. -1.
         22    1    3    3    0    0 -0.27590757059E+03  0.80802085003E+02  0.25399491968E+03  0.38362401342E+03  0.00000000000E+00 0. -1.
</event>
<event>
 7    1  0.6999029E-005  0.2840468E+03  0.7818608E-02  0.1321318E+00
          2   -1    0    0  502    0  0.00000000000E+00  0.00000000000E+00  0.21891383549E+03  0.21891383549E+03  0.00000000000E+00 0. -1.
          1   -1    0    0  501    0 -0.00000000000E+00 -0.00000000000E+00 -0.10441686626E+04  0.10441686626E+04  0.00000000000E+00 0. -1.
         25    2    1    2    0    0 -0.28587075572E+03 -0.69093722724E+02 -0.23313687764E+03  0.39556798141E+03  0.12500077082E+03 0.  0.
          2    1    1    2  501    0  0.19050945451E+02 -0.14809191140E+02 -0.58727635283E+03  0.58777186498E+03  0.00000000000E+00 0. -1.
          1    1    1    2  502    0  0.26681981027E+03  0.83902913865E+02 -0.48415966169E+01  0.27974265167E+03  0.00000000000E+00 0. -1.
         22    1    3    3    0    0 -0.83052404091E+01  0.21329451252E+02 -0.38230164521E+02  0.44558590511E+02  0.00000000000E+00 0. -1.
         22    1    3    3    0    0 -0.27756551531E+03 -0.90423173977E+02 -0.19490671312E+03  0.35100939090E+03  0.00000000000E+00 0. -1.
</event>
<event>
 7    1  0.6999029E-005  0.1283361E+04  0.7818608E-02  0.1062045E+00
          2   -1    0    0  502    0  0.00000000000E+00  0.00000000000E+00  0.22928278499E+04  0.22928278499E+04  0.00000000000E+00 0. -1.
          1   -1    0    0  501    0 -0.00000000000E+00 -0.00000000000E+00 -0.25044788028E+04  0.25044788028E+04  0.00000000000E+00 0. -1.
         25    2    1    2    0    0 -0.13130009156E+04  0.28108331779E+02  0.25051329591E+03  0.13428117318E+04  0.12499981233E+03 0.  0.
          2    1    1    2  501    0  0.12710127480E+04 -0.11467661806E+03 -0.17484320953E+04  0.21646336698E+04  0.00000000000E+00 0. -1.
          1    1    1    2  502    0  0.41988167578E+02  0.86568286284E+02  0.12862678464E+04  0.12898612511E+04  0.00000000000E+00 0. -1.
         22    1    3    3    0    0 -0.89426022304E+03 -0.31925435005E+02  0.14128388377E+03  0.90591485015E+03  0.00000000000E+00 0. -1.
         22    1    3    3    0    0 -0.41874069253E+03  0.60033766784E+02  0.10922941214E+03  0.43689688167E+03  0.00000000000E+00 0. -1.
</event>
<event>
 7    1  0.6999029E-005  0.1187641E+03  0.7818608E-02  0.1300103E+00
          2   -1    0    0  502    0  0.00000000000E+00  0.00000000000E+00  0.34760583063E+03  0.34760583063E+03  0.00000000000E+00 0. -1.
          1   -1    0    0  501    0 -0.00000000000E+00 -0.00000000000E+00 -0.33323377072E+03  0.33323377072E+03  0.00000000000E+00 0. -1.
         25    2    1    2    0    0 -0.63660067015E+02 -0.11231298069E+03 -0.12429561809E+03  0.21849714541E+03  0.12499916843E+03 0.  0.
          2    1    1    2  501    0  0.69607238406E+02 -0.69018252171E+01 -0.14147940540E+03  0.15782656615E+03  0.00000000000E+00 0. -1.
          1    1    1    2  502    0 -0.59471713911E+01  0.11921480591E+03  0.28014708340E+03  0.30451588979E+03  0.00000000000E+00 0. -1.
         22    1    3    3    0    0  0.32767852897E+02 -0.18579518733E+02 -0.56475991442E+02  0.67885700329E+02  0.00000000000E+00 0. -1.
         22    1    3    3    0    0 -0.96427919911E+02 -0.93733461961E+02 -0.67819626652E+02  0.15061144508E+03  0.00000000000E+00 0. -1.
</event>
<event>
 7    1  0.6999029E-005  0.1054467E+04  0.7818608E-02  0.1173300E+00
          2   -1    0    0  502    0  0.00000000000E+00  0.00000000000E+00  0.92003377073E+03  0.92003377073E+03  0.00000000000E+00 0. -1.
          1   -1    0    0  501    0 -0.00000000000E+00 -0.00000000000E+00 -0.23935690051E+04  0.23935690051E+04  0.00000000000E+00 0. -1.
         25    2    1    2    0    0  0.54874856563E+03 -0.90772943518E+03 -0.17072603187E+04  0.20138167850E+04  0.12499012771E+03 0.  0.
          2    1    1    2  501    0 -0.52556679237E+03  0.89054604655E+03 -0.29986075361E+02  0.10345007873E+04  0.00000000000E+00 0. -1.
          1    1    1    2  502    0 -0.23181773261E+02  0.17183388636E+02  0.26371115968E+03  0.26528520350E+03  0.00000000000E+00 0. -1.
         22    1    3    3    0    0  0.47556090046E+03 -0.77113323610E+03 -0.15322719237E+04  0.17800735619E+04  0.00000000000E+00 0.  1.
         22    1    3    3    0    0  0.73187665177E+02 -0.13659619908E+03 -0.17498839503E+03  0.23374322307E+03  0.00000000000E+00 0.  1.
</event>
<event>
 7    1  0.6999029E-005  0.1330624E+03  0.7818608E-02  0.1317021E+00
          2   -1    0    0  502    0  0.00000000000E+00  0.00000000000E+00  0.30561437330E+03  0.30561437330E+03  0.00000000000E+00 0. -1.
          1   -1    0    0  501    0 -0.00000000000E+00 -0.00000000000E+00 -0.14513401186E+03  0.14513401186E+03  0.00000000000E+00 0. -1.
         25    2    1    2    0    0  0.95323214937E+02  0.80929860963E+02 -0.11296784093E+02  0.17716781001E+03  0.12499863149E+03 0.  0.
          2    1    1    2  501    0 -0.14118296586E+03 -0.53323067121E+02  0.89611045897E+02  0.17551671967E+03  0.00000000000E+00 0. -1.
          1    1    1    2  502    0  0.45859750928E+02 -0.27606793842E+02  0.82166099638E+02  0.98063855477E+02  0.00000000000E+00 0. -1.
         22    1    3    3    0    0  0.65636580844E+02  0.11322730523E+03  0.33498565227E+01  0.13091907780E+03  0.00000000000E+00 0. -1.
         22    1    3    3    0    0  0.29686634092E+02 -0.32297444265E+02 -0.14646640616E+02  0.46248732211E+02  0.00000000000E+00 0. -1.
</event>
<event>
 7    1  0.6999029E-005  0.2678605E+03  0.7818608E-02  0.1309465E+00
          2   -1    0    0  502    0  0.00000000000E+00  0.00000000000E+00  0.26502228557E+04  0.26502228557E+04  0.00000000000E+00 0. -1.
          1   -1    0    0  501    0 -0.00000000000E+00 -0.00000000000E+00 -0.24994021493E+03  0.24994021493E+03  0.00000000000E+00 0. -1.
         25    2    1    2    0    0  0.11327967840E+03 -0.25111630812E+03 -0.50825960723E+02  0.30675721290E+03  0.12500009455E+03 0.  0.
          2    1    1    2  501    0  0.20751165429E+02  0.19488767295E+02 -0.60877680482E+02  0.67205021377E+02  0.00000000000E+00 0. -1.
          1    1    1    2  502    0 -0.13403084383E+03  0.23162754083E+03  0.25119862820E+04  0.25262008363E+04  0.00000000000E+00 0. -1.
         22    1    3    3    0    0 -0.22590591785E+02 -0.50265436108E+02  0.11695927085E+02  0.56335988628E+02  0.00000000000E+00 0.  1.
         22    1    3    3    0    0  0.13587027019E+03 -0.20085087202E+03 -0.62521887808E+02  0.25042122427E+03  0.00000000000E+00 0.  1.
</event>
<event>
 7    1  0.6999029E-005  0.3283997E+03  0.7818608E-02  0.1308041E+00
          2   -1    0    0  502    0  0.00000000000E+00  0.00000000000E+00  0.15987625983E+04  0.15987625983E+04  0.00000000000E+00 0. -1.
          1   -1    0    0  501    0 -0.00000000000E+00 -0.00000000000E+00 -0.13409765133E+03  0.13409765133E+03  0.00000000000E+00 0. -1.
         25    2    1    2    0    0  0.32770287309E+03  0.17462466339E+02  0.11552144279E+04  0.12074106632E+04  0.12500409693E+03 0.  0.
          2    1    1    2  501    0 -0.67737979054E+00  0.23512900957E+02 -0.39175293225E+02  0.45694846033E+02  0.00000000000E+00 0. -1.
          1    1    1    2  502    0 -0.32702549330E+03 -0.40975367296E+02  0.34862581228E+03  0.47975474045E+03  0.00000000000E+00 0. -1.
         22    1    3    3    0    0  0.27312772609E+03  0.38414775740E+02  0.10632222198E+04  0.10984151940E+04  0.00000000000E+00 0.  1.
         22    1    3    3    0    0  0.54575147002E+02 -0.20952309400E+02  0.91992208169E+02  0.10899546919E+03  0.00000000000E+00 0.  1.
</event>
<event>
 7    1  0.6999029E-005  0.1745756E+03  0.7818608E-02  0.1251853E+00
          2   -1    0    0  502    0  0.00000000000E+00  0.00000000000E+00  0.83164044453E+03  0.83164044453E+03  0.00000000000E+00 0. -1.
          1   -1    0    0  501    0 -0.00000000000E+00 -0.00000000000E+00 -0.67881451608E+03  0.67881451608E+03  0.00000000000E+00 0. -1.
         25    2    1    2    0    0 -0.14821472719E+03 -0.18047329427E+03  0.18736997048E+03  0.32445547266E+03  0.12500253038E+03 0.  0.
          2    1    1    2  501    0  0.24659240220E+02  0.71412691122E+02 -0.59604435499E+03  0.60081338509E+03  0.00000000000E+00 0. -1.
          1    1    1    2  502    0  0.12355548697E+03  0.10906060315E+03  0.56150031297E+03  0.58518610286E+03  0.00000000000E+00 0. -1.
         22    1    3    3    0    0 -0.45829530325E+02 -0.87270263460E+02  0.94681879414E+01  0.99025710384E+02  0.00000000000E+00 0. -1.
         22    1    3    3    0    0 -0.10238519686E+03 -0.93203030809E+02  0.17790178254E+03  0.22542976228E+03  0.00000000000E+00 0. -1.
</event>
<event>
 7    1  0.6999029E-005  0.1398856E+03  0.7818608E-02  0.1345478E+00
          2   -1    0    0  502    0  0.00000000000E+00  0.00000000000E+00  0.10205218015E+04  0.10205218015E+04  0.00000000000E+00 0. -1.
          1   -1    0    0  501    0 -0.00000000000E+00 -0.00000000000E+00 -0.75964850056E+02  0.75964850056E+02  0.00000000000E+00 0. -1.
         25    2    1    2    0    0  0.94807160999E+02  0.86705259574E+02  0.22871477227E+03  0.29058799268E+03  0.12499893848E+03 0.  0.
          2    1    1    2  501    0 -0.79399310267E+02 -0.12324932967E+03  0.76577309640E+02  0.16540475231E+03  0.00000000000E+00 0. -1.
          1    1    1    2  502    0 -0.15407850731E+02  0.36544070098E+02  0.63926486954E+03  0.64049390657E+03  0.00000000000E+00 0. -1.
         22    1    3    3    0    0  0.74341910338E+02 -0.13940569539E+02  0.82738820297E+02  0.11210161237E+03  0.00000000000E+00 0.  1.
         22    1    3    3    0    0  0.20465250661E+02  0.10064582911E+03  0.14597595197E+03  0.17848638031E+03  0.00000000000E+00 0.  1.
</event>
<event>
 7    1  0.6999029E-005  0.6043443E+03  0.7818608E-02  0.1260520E+00
          2   -1    0    0  502    0  0.00000000000E+00  0.00000000000E+00  0.14442707634E+04  0.14442707634E+04  0.00000000000E+00 0. -1.
          1   -1    0    0  501    0 -0.00000000000E+00 -0.00000000000E+00 -0.78785358500E+03  0.78785358500E+03  0.00000000000E+00 0. -1.
         25    2    1    2    0    0 -0.59160394347E+03 -0.86409829354E+02 -0.32779067009E+03  0.69320570218E+03  0.12500215039E+03 0.  0.
          2    1    1    2  501    0  0.60889380504E+03  0.96525273065E+02  0.65471514539E+02  0.61996396135E+03  0.00000000000E+00 0. -1.
          1    1    1    2  502    0 -0.17289861578E+02 -0.10115443711E+02  0.91873633391E+03  0.91895468483E+03  0.00000000000E+00 0. -1.
         22    1    3    3    0    0 -0.41873507605E+03 -0.11011909081E+03 -0.26571351296E+03  0.50800487109E+03  0.00000000000E+00 0. -1.
         22    1    3    3    0    0 -0.17286886742E+03  0.23709261459E+02 -0.62077157129E+02  0.18520083109E+03  0.00000000000E+00 0. -1.
</event>
<event>
 7    1  0.6999029E-005  0.2568369E+03  0.7818608E-02  0.1201044E+00
          2   -1    0    0  502    0  0.00000000000E+00  0.00000000000E+00  0.38502435741E+03  0.38502435741E+03  0.00000000000E+00 0. -1.
          1   -1    0    0  501    0 -0.00000000000E+00 -0.00000000000E+00 -0.65472076775E+03  0.65472076775E+03  0.00000000000E+00 0. -1.
         25    2    1    2    0    0 -0.28966858171E+03 -0.16887805073E+03 -0.49073943127E+03  0.60735331394E+03  0.12500070119E+03 0.  0.
          2    1    1    2  501    0  0.80255190781E+02  0.33751503617E+02 -0.15906733086E+02  0.88504710616E+02  0.00000000000E+00 0. -1.
          1    1    1    2  502    0  0.20941339093E+03  0.13512654712E+03  0.23694975401E+03  0.34388710060E+03  0.00000000000E+00 0. -1.
         22    1    3    3    0    0 -0.51810201770E+02  0.18529933224E+02 -0.74531203196E+02  0.92642083756E+02  0.00000000000E+00 0.  1.
         22    1    3    3    0    0 -0.23785837994E+03 -0.18740798396E+03 -0.41620822807E+03  0.51471123018E+03  0.00000000000E+00 0.  1.
</event>
<event>
 7    1  0.8302758E-005  0.5436764E+02  0.7818608E-02  0.1475346E+00
          2   -1    0    0  502    0  0.00000000000E+00  0.00000000000E+00  0.23290059048E+04  0.23290059048E+04  0.00000000000E+00 0. -1.
          1   -1    0    0  501    0 -0.00000000000E+00 -0.00000000000E+00 -0.11123206713E+04  0.11123206713E+04  0.00000000000E+00 0. -1.
         25    2    1    2    0    0  0.29484808479E+02 -0.84363156182E+02 -0.34458939092E+03  0.37729529429E+03  0.12499357867E+03 0.  0.
          2    1    1    2  501    0 -0.16285388675E+02  0.49817721770E+02 -0.75031625674E+03  0.75214460339E+03  0.00000000000E+00 0. -1.
          1    1    1    2  502    0 -0.13199419804E+02  0.34545434412E+02  0.23115908812E+04  0.23118866784E+04  0.00000000000E+00 0. -1.
         22    1    3    3    0    0  0.48933613246E+02  0.11819143416E+02 -0.74332996964E+02  0.89775191975E+02  0.00000000000E+00 0. -1.
         22    1    3    3    0    0 -0.19448804768E+02 -0.96182299598E+02 -0.27025639395E+03  0.28752010232E+03  0.00000000000E+00 0. -1.
</event>
<event>
 7    1  0.6999029E-005  0.2720476E+03  0.7818608E-02  0.1164708E+00
          2   -1    0    0  502    0  0.00000000000E+00  0.00000000000E+00  0.39162875019E+04  0.39162875019E+04  0.00000000000E+00 0. -1.
          1   -1    0    0  501    0 -0.00000000000E+00 -0.00000000000E+00 -0.69400556971E+03  0.69400556971E+03  0.00000000000E+00 0. -1.
         25    2    1    2    0    0  0.31876938865E+03  0.40489354840E+01  0.20466536078E+04  0.20751014456E+04  0.12499880839E+03 0.  0.
          2    1    1    2  501    0 -0.85382736910E+02  0.89114616543E+02 -0.66557393347E+03  0.67691970540E+03  0.00000000000E+00 0. -1.
          1    1    1    2  502    0 -0.23338665174E+03 -0.93163552027E+02  0.18412022579E+04  0.18582719207E+04  0.00000000000E+00 0. -1.
         22    1    3    3    0    0  0.15327436180E+03 -0.26580710270E+02  0.13240008024E+04  0.13331082810E+04  0.00000000000E+00 0.  1.
         22    1    3    3    0    0  0.16549502685E+03  0.30629645754E+02  0.72265280541E+03  0.74199316458E+03  0.00000000000E+00 0.  1.
</event>
<event>
 7    1  0.6999029E-005  0.1147706E+03  0.7818608E-02  0.1348766E+00
          2   -1    0    0  502    0  0.00000000000E+00  0.00000000000E+00  0.51500619928E+02  0.51500619928E+02  0.00000000000E+00 0. -1.
          1   -1    0    0  501    0 -0.00000000000E+00 -0.00000000000E+00 -0.21854543839E+04  0.21854543839E+04  0.00000000000E+00 0. -1.
         25    2    1    2    0    0  0.97996290984E+02 -0.40954742015E+02 -0.17832529155E+03  0.24229159331E+03  0.12499897056E+03 0.  0.
          2    1    1    2  501    0  0.29102476523E+02  0.36899649343E+02 -0.17643293720E+04  0.17649551471E+04  0.00000000000E+00 0. -1.
          1    1    1    2  502    0 -0.12709876751E+03  0.40550926723E+01 -0.19129910045E+03  0.22970826348E+03  0.00000000000E+00 0. -1.
         22    1    3    3    0    0 -0.15252766135E+02  0.23276991335E+02 -0.10180544951E+02  0.29632898877E+02  0.00000000000E+00 0.  1.
         22    1    3    3    0    0  0.11324905712E+03 -0.64231733350E+02 -0.16814474660E+03  0.21265869443E+03  0.00000000000E+00 0.  1.
</event>
<event>
 7    1  0.6999029E-005  0.8379398E+03  0.7818608E-02  0.1096868E+00
          2   -1    0    0  502    0  0.00000000000E+00  0.00000000000E+00  0.52548366658E+03  0.52548366658E+03  0.00000000000E+00 0. -1.
          1   -1    0    0  501    0 -0.00000000000E+00 -0.00000000000E+00 -0.23456096976E+04  0.23456096976E+04  0.00000000000E+00 0. -1.
         25    2    1    2    0    0  0.48480215650E+03  0.72026167306E+03 -0.13968362058E+04  0.16494201306E+04  0.12500149177E+03 0.  0.
          2    1    1    2  501    0 -0.48333314001E+03 -0.62814118552E+03 -0.61880969943E+03  0.10055335486E+04  0.00000000000E+00 0. -1.
          1    1    1    2  502    0 -0.14690164885E+01 -0.92120487541E+02  0.19551987417E+03  0.21613968500E+03  0.00000000000E+00 0. -1.
         22    1    3    3    0    0  0.35541958402E+03  0.55575692201E+03 -0.95715462606E+03  0.11624688449E+04  0.00000000000E+00 0. -1.
         22    1    3    3    0    0  0.12938257248E+03  0.16450475105E+03 -0.43968157973E+03  0.48695128579E+03  0.00000000000E+00 0. -1.
</event>
<event>
 7    1  0.6999029E-005  0.6625346E+03  0.7818608E-02  0.1062455E+00
          2   -1    0    0  502    0  0.00000000000E+00  0.00000000000E+00  0.19815671011E+04  0.19815671011E+04  0.00000000000E+00 0. -1.
          1   -1    0    0  501    0 -0.00000000000E+00 -0.00000000000E+00 -0.35447285416E+03  0.35447285416E+03  0.00000000000E+00 0. -1.
         25    2    1    2    0    0  0.76800988561E+03 -0.56162729512E+02  0.70578953975E+03  0.10520252727E+04  0.12499945330E+03 0.  0.
          2    1    1    2  501    0 -0.58895808236E+03  0.10391108368E+03  0.37203713953E+03  0.70433001446E+03  0.00000000000E+00 0. -1.
          1    1    1    2  502    0 -0.17905180326E+03 -0.47748354169E+02  0.54926756770E+03  0.57968466816E+03  0.00000000000E+00 0. -1.
         22    1    3    3    0    0  0.14259113043E+02  0.11662551933E+02  0.40044660303E+02  0.44078478208E+02  0.00000000000E+00 0.  1.
         22    1    3    3    0    0  0.75375077257E+03 -0.67825281445E+02  0.66574487944E+03  0.10079467945E+04  0.00000000000E+00 0.  1.
</event>
<event>
 7    1  0.6999029E-005  0.1654038E+03  0.7818608E-02  0.1193081E+00
          2   -1    0    0  502    0  0.00000000000E+00  0.00000000000E+00  0.10743577838E+03  0.10743577838E+03  0.00000000000E+00 0. -1.
          1   -1    0    0  501    0 -0.00000000000E+00 -0.00000000000E+00 -0.26798134399E+04  0.26798134399E+04  0.00000000000E+00 0. -1.
         25    2    1    2    0    0  0.27979319864E+03 -0.96045782210E+02 -0.62053000440E+03  0.69870707068E+03  0.12500023189E+03 0.  0.
          2    1    1    2  501    0 -0.14179253837E+03  0.40511430742E+02 -0.19329774714E+04  0.19385943889E+04  0.00000000000E+00 0. -1.
          1    1    1    2  502    0 -0.13800066027E+03  0.55534351468E+02 -0.18870185785E+02  0.14994775870E+03  0.00000000000E+00 0. -1.
         22    1    3    3    0    0  0.60801086033E+02  0.17176648322E+02 -0.21528972848E+03  0.22436906315E+03  0.00000000000E+00 0.  1.
         22    1    3    3    0    0  0.21899211260E+03 -0.11322243053E+03 -0.40524027592E+03  0.47433800753E+03  0.00000000000E+00 0.  1.
</event>
<event>
 7    1  0.6999029E-005  0.2575538E+03  0.7818608E-02  0.1264032E+00
          2   -1    0    0  502    0  0.00000000000E+00  0.00000000000E+00  0.12210097539E+03  0.12210097539E+03  0.00000000000E+00 0. -1.
          1   -1    0    0  501    0 -0.00000000000E+00 -0.00000000000E+00 -0.29190117856E+04  0.29190117856E+04  0.00000000000E+00 0. -1.
         25    2    1    2    0    0  0.27141059526E+03  0.25859050731E+02 -0.28192582986E+03  0.41162990927E+03  0.12499842775E+03 0.  0.
          2    1    1    2  501    0 -0.31381229204E+02  0.32828732215E+02 -0.23043286924E+04  0.23047761778E+04  0.00000000000E+00 0. -1.
          1    1    1    2  502    0 -0.24002936605E+03 -0.58687782946E+02 -0.21065628801E+03  0.32470667396E+03  0.00000000000E+00 0. -1.
         22    1    3    3    0    0  0.26154472886E+03  0.43227333473E+01 -0.20859750490E+03  0.33457024713E+03  0.00000000000E+00 0. -1.
         22    1    3    3    0    0  0.98658663945E+01  0.21536317384E+02 -0.73328324961E+02  0.77059662131E+02  0.00000000000E+00 0. -1.
</event>
<event>
 7    1  0.6999029E-005  0.6049209E+03  0.7818608E-02  0.1126220E+00
          2   -1    0    0  502    0  0.00000000000E+00  0.00000000000E+00  0.16890693318E+04  0.16890693318E+04  0.00000000000E+00 0. -1.
          1   -1    0    0  501    0 -0.00000000000E+00 -0.00000000000E+00 -0.65283774049E+03  0.65283774049E+03  0.00000000000E+00 0. -1.
         25    2    1    2    0    0 -0.66353151404E+03 -0.41224979993E+02  0.19616235446E+03  0.70432769022E+03  0.12499702720E+03 0.  0.
          2    1    1    2  501    0  0.57563426143E+03  0.40079907189E+02 -0.18714003845E+03  0.60661569043E+03  0.00000000000E+00 0. -1.
          1    1    1    2  502    0  0.87897252609E+02  0.11450728032E+01  0.10272092753E+04  0.10309636916E+04  0.00000000000E+00 0. -1.
         22    1    3    3    0    0 -0.44027960585E+03 -0.84667401788E+02  0.14493176346E+03  0.47118989411E+03  0.00000000000E+00 0. -1.
         22    1    3    3    0    0 -0.22325190819E+03  0.43442421796E+02  0.51230590999E+02  0.23313779611E+03  0.00000000000E+00 0. -1.
</event>
<event>
 7    1  0.6999029E-005  0.2362763E+03  0.7818608E-02  0.1177054E+00
          2   -1    0    0  502    0  0.00000000000E+00  0.00000000000E+00  0.90475364016E+03  0.90475364016E+03  0.00000000000E+00 0. -1.
          1   -1    0    0  501    0 -0.00000000000E+00 -0.00000000000E+00 -0.37610873496E+03  0.37610873496E+03  0.00000000000E+00 0. -1.
         25    2    1    2    0    0 -0.14496760590E+03 -0.19350076081E+03  0.20565560966E+03  0.34114209218E+03  0.12500218431E+03 0.  0.
          2    1    1    2  501    0  0.22018444870E+03  0.95654718230E+02 -0.25410803772E+03  0.34957389978E+03  0.00000000000E+00 0. -1.
          1    1    1    2  502    0 -0.75216842807E+02  0.97846042576E+02  0.57709733327E+03  0.59014638316E+03  0.00000000000E+00 0. -1.
         22    1    3    3    0    0 -0.33195322444E+02 -0.73847748073E+02  0.14586577413E+03  0.16682998349E+03  0.00000000000E+00 0.  1.
         22    1    3    3    0    0 -0.11177228345E+03 -0.11965301273E+03  0.59789835520E+02  0.17431210869E+03  0.00000000000E+00 0.  1.
</event>
<event>
 7    1  0.7379494E-005  0.1986712E+03  0.7818608E-02  0.1246632E+00
          2   -1    0    0  502    0  0.00000000000E+00  0.00000000000E+00  0.11809597645E+04  0.11809597645E+04  0.00000000000E+00 0. -1.
          1   -1    0    0  501    0 -0.00000000000E+00 -0.00000000000E+00 -0.23914836393E+04  0.23914836393E+04  0.00000000000E+00 0. -1.
         25    2    1    2    0    0  0.18070574727E+03 -0.14547457810E+03 -0.32957302660E+03  0.42197118034E+03  0.12499550875E+03 0.  0.
          2    1    1    2  501    0  0.24310426244E+01  0.69903845746E+02 -0.20064502814E+04  0.20076690936E+04  0.00000000000E+00 0. -1.
          1    1    1    2  502    0 -0.18313678990E+03  0.75570732353E+02  0.11254994332E+04  0.11428031299E+04  0.00000000000E+00 0. -1.
         22    1    3    3    0    0  0.14988435821E+03 -0.16388359342E+03 -0.24835047357E+03  0.33316829193E+03  0.00000000000E+00 0.  1.
         22    1    3    3    0    0  0.30821389059E+02  0.18409015323E+02 -0.81222553032E+02  0.88802888409E+02  0.00000000000E+00 0.  1.
</event>
<event>
 7    1  0.6999029E-005  0.2621326E+03  0.7818608E-02  0.1224438E+00
          2   -1    0    0  502    0  0.00000000000E+00  0.00000000000E+00  0.45184576380E+03  0.45184576380E+03  0.00000000000E+00 0. -1.
          1   -1    0    0  501    0 -0.00000000000E+00 -0.00000000000E+00 -0.55532652047E+03  0.55532652047E+03  0.00000000000E+00 0. -1.
         25    2    1    2    0    0 -0.41839505238E+02 -0.28418837703E+03 -0.81826396033E+02  0.32378237344E+03  0.12500355366E+03 0.  0.
          2    1    1    2  501    0  0.60504069272E+02  0.27656559562E+02 -0.29831104721E+03  0.30563885318E+03  0.00000000000E+00 0. -1.
          1    1    1    2  502    0 -0.18664564034E+02  0.25653181746E+03  0.27665668658E+03  0.37775105765E+03  0.00000000000E+00 0. -1.
         22    1    3    3    0    0 -0.37561209904E+02 -0.23305408250E+03 -0.10994960472E+02  0.23631745389E+03  0.00000000000E+00 0.  1.
         22    1    3    3    0    0 -0.42782953342E+01 -0.51134294530E+02 -0.70831435561E+02  0.87464919549E+02  0.00000000000E+00 0.  1.
</event>
<event>
 7    1  0.6999029E-005  0.1462722E+03  0.7818608E-02  0.1279256E+00
          2   -1    0    0  502    0  0.00000000000E+00  0.00000000000E+00  0.10217614424E+04  0.10217614424E+04  0.00000000000E+00 0. -1.
          1   -1    0    0  501    0 -0.00000000000E+00 -0.00000000000E+00 -0.45276816140E+03  0.45276816140E+03  0.00000000000E+00 0. -1.
         25    2    1    2    0    0 -0.17160001758E+02 -0.18324601226E+03 -0.28764818989E+03  0.36364685505E+03  0.12499594942E+03 0.  0.
          2    1    1    2  501    0  0.29606540385E+02  0.11533164637E+03 -0.97714340409E+02  0.15403255568E+03  0.00000000000E+00 0. -1.
          1    1    1    2  502    0 -0.12446538627E+02  0.67914365887E+02  0.95435581133E+03  0.95685019310E+03  0.00000000000E+00 0. -1.
         22    1    3    3    0    0 -0.62944232450E+02 -0.14714159583E+03 -0.23939420219E+03  0.28796216707E+03  0.00000000000E+00 0. -1.
         22    1    3    3    0    0  0.45784230692E+02 -0.36104416425E+02 -0.48253987704E+02  0.75684687981E+02  0.00000000000E+00 0. -1.
</event>
<event>
 7    1  0.6999029E-005  0.6946520E+02  0.7818608E-02  0.1394536E+00
          2   -1    0    0  502    0  0.00000000000E+00  0.00000000000E+00  0.45256322410E+04  0.45256322410E+04  0.00000000000E+00 0. -1.
          1   -1    0    0  501    0 -0.00000000000E+00 -0.00000000000E+00 -0.15290295875E+04  0.15290295875E+04  0.00000000000E+00 0. -1.
         25    2    1    2    0    0 -0.96037969123E+02 -0.55108199493E+02  0.29223819526E+04  0.29271489861E+04  0.12499881984E+03 0.  0.
          2    1    1    2  501    0  0.50905074540E+02  0.15465743433E+02 -0.15256186943E+04  0.15265460741E+04  0.00000000000E+00 0. -1.
          1    1    1    2  502    0  0.45132894583E+02  0.39642456060E+02  0.15998393953E+04  0.16009667683E+04  0.00000000000E+00 0. -1.
         22    1    3    3    0    0  0.11557325169E+02 -0.42000346277E+02  0.15043239028E+04  0.15049544862E+04  0.00000000000E+00 0.  1.
         22    1    3    3    0    0 -0.10759529429E+03 -0.13107853216E+02  0.14180580498E+04  0.14221945000E+04  0.00000000000E+00 0.  1.
</event>
<event>
 7    1  0.6999029E-005  0.2146684E+04  0.7818608E-02  0.1081157E+00
          2   -1    0    0  502    0  0.00000000000E+00  0.00000000000E+00  0.46300551092E+04  0.46300551092E+04  0.00000000000E+00 0. -1.
          1   -1    0    0  501    0 -0.00000000000E+00 -0.00000000000E+00 -0.19348728361E+04  0.19348728361E+04  0.00000000000E+00 0. -1.
         25    2    1    2    0    0  0.56359456416E+03 -0.20699313035E+04  0.64222282075E+03  0.22428394579E+04  0.12499699330E+03 0.  0.
          2    1    1    2  501    0  0.43143931729E+02  0.99697448823E+01 -0.77216891742E+03  0.77343754220E+03  0.00000000000E+00 0. -1.
          1    1    1    2  502    0 -0.60673849589E+03  0.20599615586E+04  0.28251283698E+04  0.35486509452E+04  0.00000000000E+00 0. -1.
         22    1    3    3    0    0  0.33287633729E+03 -0.10542078600E+04  0.28460896033E+03  0.11415617059E+04  0.00000000000E+00 0. -1.
         22    1    3    3    0    0  0.23071822688E+03 -0.10157234435E+04  0.35761386042E+03  0.11012777520E+04  0.00000000000E+00 0. -1.
</event>
<event>
 7    1  0.6999029E-005  0.4016571E+03  0.7818608E-02  0.1155839E+00
          2   -1    0    0  502    0  0.00000000000E+00  0.00000000000E+00  0.12410354234E+04  0.12410354234E+04  0.00000000000E+00 0. -1.
          1   -1    0    0  501    0 -0.00000000000E+00 -0.00000000000E+00 -0.65788465960E+03  0.65788465960E+03  0.00000000000E+00 0. -1.
         25    2    1    2    0    0 -0.31536252694E+03 -0.23177399720E+03 -0.42398901372E+03  0.59039655226E+03  0.12501478310E+03 0.  0.
          2    1    1    2  501    0  0.40223840057E+03  0.19949817415E+03  0.19231782453E+03  0.48844794811E+03  0.00000000000E+00 0. -1.
          1    1    1    2  502    0 -0.86875873630E+02  0.32275823052E+02  0.81482195301E+03  0.82007558266E+03  0.00000000000E+00 0. -1.
         22    1    3    3    0    0 -0.96412185419E+02 -0.12352974655E+03 -0.23087155191E+03  0.27902792201E+03  0.00000000000E+00 0. -1.
         22    1    3    3    0    0 -0.21895034152E+03 -0.10824425064E+03 -0.19311746181E+03  0.31136863025E+03  0.00000000000E+00 0. -1.
</event>
<event>
 7    1  0.6999029E-005  0.9319701E+02  0.7818608E-02  0.1324502E+00
          2   -1    0    0  502    0  0.00000000000E+00  0.00000000000E+00  0.12080661296E+03  0.12080661296E+03  0.00000000000E+00 0. -1.
          1   -1    0    0  501    0 -0.00000000000E+00 -0.00000000000E+00 -0.14533003878E+04  0.14533003878E+04  0.00000000000E+00 0. -1.
         25    2    1    2    0    0  0.38722392631E+02  0.15081272363E+03 -0.35551046089E+03  0.40775002750E+03  0.12501398252E+03 0.  0.
          2    1    1    2  501    0 -0.29668161120E+01 -0.88907001425E+02 -0.10560343399E+04  0.10597744024E+04  0.00000000000E+00 0. -1.
          1    1    1    2  502    0 -0.35755576518E+02 -0.61905722209E+02  0.79051025991E+02  0.10658257083E+03  0.00000000000E+00 0. -1.
         22    1    3    3    0    0  0.82122741631E+02  0.10742996682E+03 -0.20927840480E+03  0.24916418920E+03  0.00000000000E+00 0.  1.
         22    1    3    3    0    0 -0.43400349000E+02  0.43382756815E+02 -0.14623205609E+03  0.15858583830E+03  0.00000000000E+00 0.  1.
</event>
<event>
 7    1  0.6999029E-005  0.3574103E+02  0.7818608E-02  0.1549732E+00
          2   -1    0    0  502    0  0.00000000000E+00  0.00000000000E+00  0.45849123345E+03  0.45849123345E+03  0.00000000000E+00 0. -1.
          1   -1    0    0  501    0 -0.00000000000E+00 -0.00000000000E+00 -0.16110068858E+04  0.16110068858E+04  0.00000000000E+00 0. -1.
         25    2    1    2    0    0  0.60822879167E+02  0.32430748631E+02 -0.76179307210E+03  0.77505130877E+03  0.12499868178E+03 0.  0.
          2    1    1    2  501    0 -0.32149034367E+02 -0.11144548259E+02 -0.84153477950E+03  0.84222238540E+03  0.00000000000E+00 0. -1.
          1    1    1    2  502    0 -0.28673844800E+02 -0.21286200373E+02  0.45081219921E+03  0.45222442511E+03  0.00000000000E+00 0. -1.
         22    1    3    3    0    0  0.60004482040E+02  0.67417595765E+01 -0.13684024990E+03  0.14957019482E+03  0.00000000000E+00 0.  1.
         22    1    3    3    0    0  0.81839712621E+00  0.25688989055E+02 -0.62495282220E+03  0.62548111395E+03  0.00000000000E+00 0.  1.
</event>
<event>
 7    1  0.6999029E-005  0.2152776E+04  0.7818608E-02  0.1010329E+00
          2   -1    0    0  502    0  0.00000000000E+00  0.00000000000E+00  0.23831568962E+04  0.23831568962E+04  0.00000000000E+00 0. -1.
          1   -1    0    0  501    0 -0.00000000000E+00 -0.00000000000E+00 -0.32468584749E+04  0.32468584749E+04  0.00000000000E+00 0. -1.
         25    2    1    2    0    0  0.28021145607E+03 -0.21650420979E+04 -0.65515110314E+03  0.22827118318E+04  0.12499837429E+03 0.  0.
          2    1    1    2  501    0  0.10590417119E+03  0.61480498820E+02 -0.10440409563E+04  0.10511979184E+04  0.00000000000E+00 0. -1.
          1    1    1    2  502    0 -0.38611562725E+03  0.21035615991E+04  0.83549048081E+03  0.22961056209E+04  0.00000000000E+00 0. -1.
         22    1    3    3    0    0  0.20597079212E+03 -0.11859456266E+04 -0.32527372198E+03  0.12468736868E+04  0.00000000000E+00 0.  1.
         22    1    3    3    0    0  0.74240663947E+02 -0.97909647125E+03 -0.32987738117E+03  0.10358381451E+04  0.00000000000E+00 0.  1.
</event>
<event>
 7    1  0.6999029E-005  0.2714522E+03  0.7818608E-02  0.1205864E+00
          2   -1    0    0  502    0  0.00000000000E+00  0.00000000000E+00  0.37190612915E+03  0.37190612915E+03  0.00000000000E+00 0. -1.
          1   -1    0    0  501    0 -0.00000000000E+00 -0.00000000000E+00 -0.58848618212E+03  0.58848618212E+03  0.00000000000E+00 0. -1.
         25    2    1    2    0    0  0.48229581742E+02 -0.30992957075E+03 -0.40984237897E+02  0.34013112489E+03  0.12500817167E+03 0.  0.
          2    1    1    2  501    0  0.37652021898E+02  0.68537843928E+02 -0.31776549242E+03  0.32724611377E+03  0.00000000000E+00 0. -1.
          1    1    1    2  502    0 -0.85881603640E+02  0.24139172682E+03  0.14216967734E+03  0.29301507261E+03  0.00000000000E+00 0. -1.
         22    1    3    3    0    0  0.85916783030E+01 -0.15809900507E+03  0.40339850172E+02  0.16339037870E+03  0.00000000000E+00 0. -1.
         22    1    3    3    0    0  0.39637903439E+02 -0.15183056568E+03 -0.81324088069E+02  0.17674074619E+03  0.00000000000E+00 0. -1.
</event>
<event>
 7    1  0.6999029E-005  0.1339429E+03  0.7818608E-02  0.1351354E+00
          2   -1    0    0  502    0  0.00000000000E+00  0.00000000000E+00  0.82698277395E+02  0.82698277395E+02  0.00000000000E+00 0. -1.
          1   -1    0    0  501    0 -0.00000000000E+00 -0.00000000000E+00 -0.21273193274E+04  0.21273193274E+04  0.00000000000E+00 0. -1.
         25    2    1    2    0    0 -0.88835543179E+02  0.82042392896E+02 -0.14589635674E+04  0.14692932986E+04  0.12500159336E+03 0.  0.
          2    1    1    2  501    0 -0.32106288493E+02 -0.22818618208E+02 -0.60358799782E+03  0.60487186595E+03  0.00000000000E+00 0. -1.
          1    1    1    2  502    0  0.12094183167E+03 -0.59223774688E+02  0.17930515249E+02  0.13585244022E+03  0.00000000000E+00 0. -1.
         22    1    3    3    0    0 -0.11836719519E+03  0.64723846001E+02 -0.12795818613E+04  0.12866738938E+04  0.00000000000E+00 0. -1.
         22    1    3    3    0    0  0.29531652013E+02  0.17318546895E+02 -0.17938170616E+03  0.18261940489E+03  0.00000000000E+00 0. -1.
</event>
<event>
 7    1  0.6999029E-005  0.6953797E+03  0.7818608E-02  0.1160360E+00
          2   -1    0    0  502    0  0.00000000000E+00  0.00000000000E+00  0.22504225123E+04  0.22504225123E+04  0.00000000000E+00 0. -1.
          1   -1    0    0  501    0 -0.00000000000E+00 -0.00000000000E+00 -0.34714559451E+03  0.34714559451E+03  0.00000000000E+00 0. -1.
         25    2    1    2    0    0 -0.75009226072E+01 -0.72128192028E+03  0.56279941561E+03  0.92340032720E+03  0.12498443788E+03 0.  0.
          2    1    1    2  501    0  0.17422734035E+02  0.67148214271E+03  0.51316611873E+03  0.84529952387E+03  0.00000000000E+00 0. -1.
          1    1    1    2  502    0 -0.99218114277E+01  0.49799777561E+02  0.82731138343E+03  0.82886825572E+03  0.00000000000E+00 0. -1.
         22    1    3    3    0    0 -0.34575513451E+02 -0.67794442275E+03  0.54015172137E+03  0.86750676571E+03  0.00000000000E+00 0. -1.
         22    1    3    3    0    0  0.27074590844E+02 -0.43337497528E+02  0.22647694245E+02  0.55893561489E+02  0.00000000000E+00 0. -1.
</event>
<event>
 7    1  0.7967598E-005  0.1293624E+03  0.7818608E-02  0.1320145E+00
          2   -1    0    0  502    0  0.00000000000E+00  0.00000000000E+00  0.11082626177E+04  0.11082626177E+04  0.00000000000E+00 0. -1.
          1   -1    0    0  501    0 -0.00000000000E+00 -0.00000000000E+00 -0.14428869849E+04  0.14428869849E+04  0.00000000000E+00 0. -1.
         25    2    1    2    0    0 -0.23730387536E+02 -0.14668559231E+03 -0.11744945346E+04  0.11904379443E+04  0.12500117289E+03 0.  0.
          2    1    1    2  501    0  0.42782793038E+02  0.96649795508E+02 -0.24901131996E+03  0.27051467210E+03  0.00000000000E+00 0. -1.
          1    1    1    2  502    0 -0.19052405502E+02  0.50035796804E+02  0.10888814873E+04  0.10901969861E+04  0.00000000000E+00 0. -1.
         22    1    3    3    0    0  0.35980080759E+02 -0.11062157533E+03 -0.55710055390E+03  0.56911574068E+03  0.00000000000E+00 0. -1.
         22    1    3    3    0    0 -0.59710468295E+02 -0.36064016986E+02 -0.61739398068E+03  0.62132220363E+03  0.00000000000E+00 0. -1.
</event>
<event>
 7    1  0.6999029E-005  0.8315065E+02  0.7818608E-02  0.1342839E+00
          2   -1    0    0  502    0  0.00000000000E+00  0.00000000000E+00  0.93302653192E+03  0.93302653192E+03  0.00000000000E+00 0. -1.
          1   -1    0    0  501    0 -0.00000000000E+00 -0.00000000000E+00 -0.82550153316E+03  0.82550153316E+03  0.00000000000E+00 0. -1.
         25    2    1    2    0    0  0.77391733433E+02  0.10090542029E+03  0.37716066512E+03  0.41718808376E+03  0.12499738264E+03 0.  0.
          2    1    1    2  501    0 -0.61007247830E+01 -0.67979238419E+02 -0.80115200596E+03  0.80405406059E+03  0.00000000000E+00 0. -1.
          1    1    1    2  502    0 -0.71291008650E+02 -0.32926181868E+02  0.53151633959E+03  0.53728592073E+03  0.00000000000E+00 0. -1.
         22    1    3    3    0    0  0.24999641525E+02 -0.81284304566E+01  0.20556791567E+03  0.20724193931E+03  0.00000000000E+00 0. -1.
         22    1    3    3    0    0  0.52392091908E+02  0.10903385074E+03  0.17159274945E+03  0.20994614445E+03  0.00000000000E+00 0. -1.
</event>
<event>
 7    1  0.6999029E-005  0.6368038E+03  0.7818608E-02  0.1098080E+00
          2   -1    0    0  502    0  0.00000000000E+00  0.00000000000E+00  0.51357721882E+04  0.51357721882E+04  0.00000000000E+00 0. -1.
          1   -1    0    0  501    0 -0.00000000000E+00 -0.00000000000E+00 -0.24369801863E+03  0.24369801863E+03  0.00000000000E+00 0. -1.
         25    2    1    2    0    0  0.24190237988E+03 -0.64600525721E+03  0.20363347322E+04  0.21536302976E+04  0.12499905388E+03 0.  0.
          2    1    1    2  501    0 -0.12758155477E+03  0.61178199811E+03  0.34807836601E+03  0.71534104818E+03  0.00000000000E+00 0. -1.
          1    1    1    2  502    0 -0.11432082511E+03  0.34223259098E+02  0.25076610714E+04  0.25104988611E+04  0.00000000000E+00 0. -1.
         22    1    3    3    0    0  0.23762029682E+03 -0.62973511719E+03  0.18888541801E+04  0.20051932169E+04  0.00000000000E+00 0. -1.
         22    1    3    3    0    0  0.42820830551E+01 -0.16270140015E+02  0.14748055205E+03  0.14843708069E+03  0.00000000000E+00 0. -1.
</event>
<event>
 7    1  0.6999029E-005  0.1922780E+03  0.7818608E-02  0.1226466E+00
          2   -1    0    0  502    0  0.00000000000E+00  0.00000000000E+00  0.37971341640E+04  0.37971341640E+04  0.00000000000E+00 0. -1.
          1   -1    0    0  501    0 -0.00000000000E+00 -0.00000000000E+00 -0.40661432039E+03  0.40661432039E+03  0.00000000000E+00 0. -1.
         25    2    1    2    0    0  0.19019852316E+03 -0.29014145860E+02  0.31646886531E+03  0.39088859504E+03  0.12499620854E+03 0.  0.
          2    1    1    2  501    0 -0.59294219759E+01  0.88602928101E+02 -0.36130079529E+03  0.37205362730E+03  0.00000000000E+00 0. -1.
          1    1    1    2  502    0 -0.18426910119E+03 -0.59588782241E+02  0.34353517736E+04  0.34408062620E+04  0.00000000000E+00 0. -1.
         22    1    3    3    0    0  0.34355130458E+02  0.33851873425E+02  0.24703341050E+02  0.54189292136E+02  0.00000000000E+00 0. -1.
         22    1    3    3    0    0  0.15584339271E+03 -0.62866019285E+02  0.29176552426E+03  0.33669930291E+03  0.00000000000E+00 0. -1.
</event>
<event>
 7    1  0.6999029E-005  0.3709194E+03  0.7818608E-02  0.1245757E+00
          2   -1    0    0  502    0  0.00000000000E+00  0.00000000000E+00  0.30298171629E+04  0.30298171629E+04  0.00000000000E+00 0. -1.
          1   -1    0    0  501    0 -0.00000000000E+00 -0.00000000000E+00 -0.11628365697E+03  0.11628365697E+03  0.00000000000E+00 0. -1.
         25    2    1    2    0    0  0.33671496665E+03 -0.15325032100E+03  0.55375388435E+03  0.67759112472E+03  0.12499495276E+03 0.  0.
          2    1    1    2  501    0 -0.32200946973E+03  0.18806752966E+03  0.58768663830E+03  0.69601370615E+03  0.00000000000E+00 0. -1.
          1    1    1    2  502    0 -0.14705496920E+02 -0.34817208666E+02  0.17720929832E+04  0.17724959890E+04  0.00000000000E+00 0. -1.
         22    1    3    3    0    0  0.21272370032E+03 -0.28586836821E+02  0.30000955471E+03  0.36888251901E+03  0.00000000000E+00 0.  1.
         22    1    3    3    0    0  0.12399126633E+03 -0.12466348418E+03  0.25374432964E+03  0.30870860571E+03  0.00000000000E+00 0.  1.
</event>
<event>
 7    1  0.6999029E-005  0.1145431E+03  0.7818608E-02  0.1387574E+00
          2   -1    0    0  502    0  0.00000000000E+00  0.00000000000E+00  0.35008575547E+02  0.35008575547E+02  0.00000000000E+00 0. -1.
          1   -1    0    0  501    0 -0.00000000000E+00 -0.00000000000E+00 -0.21991535908E+04  0.21991535908E+04  0.00000000000E+00 0. -1.
         25    2    1    2    0    0 -0.13339986487E+03 -0.13671839335E+02 -0.15499667484E+04  0.15607701726E+04  0.12499666969E+03 0.  0.
          2    1    1    2  501    0  0.99966600664E+02  0.68694499753E+01 -0.62846519613E+03  0.63640318458E+03  0.00000000000E+00 0. -1.
          1    1    1    2  502    0  0.33433264209E+02  0.68023893601E+01  0.14286929258E+02  0.36988809177E+02  0.00000000000E+00 0. -1.
         22    1    3    3    0    0 -0.10112829733E+03 -0.56259290512E+02 -0.13008527283E+04  0.13059899927E+04  0.00000000000E+00 0.  1.
         22    1    3    3    0    0 -0.32271567539E+02  0.42587451177E+02 -0.24911402010E+03  0.25478017992E+03  0.00000000000E+00 0.  1.
</event>
<event>
 7    1  0.6999029E-005  0.4276433E+03  0.7818608E-02  0.1096475E+00
          2   -1    0    0  502    0  0.00000000000E+00  0.00000000000E+00  0.32227034184E+03  0.32227034184E+03  0.00000000000E+00 0. -1.
          1   -1    0    0  501    0 -0.00000000000E+00 -0.00000000000E+00 -0.14032869428E+04  0.14032869428E+04  0.00000000000E+00 0. -1.
         25    2    1    2    0    0 -0.34621700313E+03  0.44642292058E+03 -0.34588050241E+03  0.67410142000E+03  0.12497905912E+03 0.  0.
          2    1    1    2  501    0  0.20720126608E+03 -0.32979966566E+03 -0.77346516022E+03  0.86599569180E+03  0.00000000000E+00 0. -1.
          1    1    1    2  502    0  0.13901573705E+03 -0.11662325492E+03  0.38329061677E+02  0.18546017283E+03  0.00000000000E+00 0. -1.
         22    1    3    3    0    0 -0.18846257230E+03  0.18800257297E+03 -0.10106670913E+03  0.28474126553E+03  0.00000000000E+00 0.  1.
         22    1    3    3    0    0 -0.15775443083E+03  0.25842034761E+03 -0.24481379328E+03  0.38936015447E+03  0.00000000000E+00 0.  1.
</event>
<event>
 7    1  0.6999029E-005  0.2695335E+03  0.7818608E-02  0.1249758E+00
          2   -1    0    0  502    0  0.00000000000E+00  0.00000000000E+00  0.31063307154E+04  0.31063307154E+04  0.00000000000E+00 0. -1.
          1   -1    0    0  501    0 -0.00000000000E+00 -0.00000000000E+00 -0.15065085872E+03  0.15065085872E+03  0.00000000000E+00 0. -1.
         25    2    1    2    0    0 -0.25609792153E+03 -0.16309482951E+03  0.44628857831E+03  0.55406224601E+03  0.12500163401E+03 0.  0.
          2    1    1    2  501    0  0.17456763400E+02  0.46818511032E+02 -0.83049662620E+02  0.96922433033E+02  0.00000000000E+00 0. -1.
          1    1    1    2  502    0  0.23864115813E+03  0.11627631848E+03  0.25924409410E+04  0.26059968951E+04  0.00000000000E+00 0. -1.
         22    1    3    3    0    0 -0.93533476512E+02 -0.77204343023E+02  0.83198653803E+02  0.14707493942E+03  0.00000000000E+00 0.  1.
         22    1    3    3    0    0 -0.16256444502E+03 -0.85890486489E+02  0.36308992450E+03  0.40698730660E+03  0.00000000000E+00 0.  1.
</event>
<event>
 7    1  0.6999029E-005  0.8619602E+02  0.7818608E-02  0.1409149E+00
          2   -1    0    0  502    0  0.00000000000E+00  0.00000000000E+00  0.88785634067E+03  0.88785634067E+03  0.00000000000E+00 0. -1.
          1   -1    0    0  501    0 -0.00000000000E+00 -0.00000000000E+00 -0.17968492770E+04  0.17968492770E+04  0.00000000000E+00 0. -1.
         25    2    1    2    0    0 -0.74599117587E+01  0.83860769790E+02  0.74179850338E+03  0.75695273565E+03  0.12499658158E+03 0.  0.
          2    1    1    2  501    0 -0.38201231989E+02  0.36982562586E+00 -0.17724694410E+04  0.17728810988E+04  0.00000000000E+00 0. -1.
          1    1    1    2  502    0  0.45661143748E+02 -0.84230595416E+02  0.12167800132E+03  0.15487178328E+03  0.00000000000E+00 0. -1.
         22    1    3    3    0    0 -0.11216911860E+02 -0.11531618719E+02  0.99751090004E+01  0.18928817753E+02  0.00000000000E+00 0.  1.
         22    1    3    3    0    0  0.37570001008E+01  0.95392388509E+02  0.73182339438E+03  0.73802391790E+03  0.00000000000E+00 0.  1.
</event>
<event>
 7    1  0.6999029E-005  0.5590280E+02  0.7818608E-02  0.1437463E+00
          2   -1    0    0  502    0  0.00000000000E+00  0.00000000000E+00  0.70456991755E+03  0.70456991755E+03  0.00000000000E+00 0. -1.
          1   -1    0    0  501    0 -0.00000000000E+00 -0.00000000000E+00 -0.64594841670E+03  0.64594841670E+03  0.00000000000E+00 0. -1.
         25    2    1    2    0    0 -0.29568290270E+02 -0.98134048016E+02  0.22225943605E+02  0.16316481946E+03  0.12499676224E+03 0.  0.
          2    1    1    2  501    0  0.13072304483E+02  0.53668493030E+02 -0.57323033301E+03  0.57588558496E+03  0.00000000000E+00 0. -1.
          1    1    1    2  502    0  0.16495985787E+02  0.44465554986E+02  0.60962589026E+03  0.61146792982E+03  0.00000000000E+00 0. -1.
         22    1    3    3    0    0  0.11797131847E+02 -0.13172195076E+02 -0.44234104857E+02  0.47637538511E+02  0.00000000000E+00 0.  1.
         22    1    3    3    0    0 -0.41365422117E+02 -0.84961852940E+02  0.66460048462E+02  0.11552728095E+03  0.00000000000E+00 0.  1.
</event>
<event>
 7    1  0.6999029E-005  0.3488217E+03  0.7818608E-02  0.1203080E+00
          2   -1    0    0  502    0  0.00000000000E+00  0.00000000000E+00  0.31275309387E+04  0.31275309387E+04  0.00000000000E+00 0. -1.
          1   -1    0    0  501    0 -0.00000000000E+00 -0.00000000000E+00 -0.16602764670E+03  0.16602764670E+03  0.00000000000E+00 0. -1.
         25    2    1    2    0    0  0.13396228503E+03  0.32670169745E+03  0.26738026903E+04  0.26999120417E+04  0.12499725319E+03 0.  0.
          2    1    1    2  501    0  0.42866014189E+02 -0.45768381520E+02 -0.77785418040E+02  0.99914018931E+02  0.00000000000E+00 0. -1.
          1    1    1    2  502    0 -0.17682829922E+03 -0.28093331593E+03  0.36548601978E+03  0.49373252481E+03  0.00000000000E+00 0. -1.
         22    1    3    3    0    0  0.49714997533E+02  0.23928370265E+03  0.20399193949E+04  0.20545070964E+04  0.00000000000E+00 0.  1.
         22    1    3    3    0    0  0.84247287496E+02  0.87417994797E+02  0.63388329536E+03  0.64540494528E+03  0.00000000000E+00 0.  1.
</event>
<event>
 7    1  0.6999029E-005  0.1709003E+03  0.7818608E-02  0.1373942E+00
          2   -1    0    0  502    0  0.00000000000E+00  0.00000000000E+00  0.14350134207E+03  0.14350134207E+03  0.00000000000E+00 0. -1.
          1   -1    0    0  501    0 -0.00000000000E+00 -0.00000000000E+00 -0.42331556490E+03  0.42331556490E+03  0.00000000000E+00 0. -1.
         25    2    1    2    0    0  0.35800624127E+02  0.18466520564E+03 -0.12155521011E+03  0.25648123734E+03  0.12499613251E+03 0.  0.
          2    1    1    2  501    0 -0.84312485517E+01 -0.24121888071E+02 -0.14467087402E+03  0.14691022166E+03  0.00000000000E+00 0. -1.
          1    1    1    2  502    0 -0.27369375575E+02 -0.16054331756E+03 -0.13588138697E+02  0.16342544798E+03  0.00000000000E+00 0. -1.
         22    1    3    3    0    0  0.16816639651E+02  0.87762919494E+02 -0.12958782718E+03  0.15741071870E+03  0.00000000000E+00 0. -1.
         22    1    3    3    0    0  0.18983984476E+02  0.96902286141E+02  0.80326170766E+01  0.99070518638E+02  0.00000000000E+00 0. -1.
</event>
<event>
 7    1  0.6999029E-005  0.1865618E+03  0.7818608E-02  0.1228452E+00
          2   -1    0    0  502    0  0.00000000000E+00  0.00000000000E+00  0.24631097862E+04  0.24631097862E+04  0.00000000000E+00 0. -1.
          1   -1    0    0  501    0 -0.00000000000E+00 -0.00000000000E+00 -0.20756340270E+03  0.20756340270E+03  0.00000000000E+00 0. -1.
         25    2    1    2    0    0 -0.19857449215E+03 -0.16359916750E+03  0.35722369085E+03  0.45763544202E+03  0.12499966381E+03 0.  0.
          2    1    1    2  501    0  0.11258356563E+03  0.13822585215E+03 -0.10553907993E+03  0.20717128866E+03  0.00000000000E+00 0. -1.
          1    1    1    2  502    0  0.85990926511E+02  0.25373315350E+02  0.20038617726E+04  0.20058664582E+04  0.00000000000E+00 0. -1.
         22    1    3    3    0    0 -0.93466659839E+02 -0.25011919214E+01  0.12474986478E+03  0.15589997186E+03  0.00000000000E+00 0.  1.
         22    1    3    3    0    0 -0.10510783231E+03 -0.16109797558E+03  0.23247382607E+03  0.30173547017E+03  0.00000000000E+00 0.  1.
</event>
<event>
 7    1  0.6999029E-005  0.1867010E+03  0.7818608E-02  0.1336491E+00
          2   -1    0    0  502    0  0.00000000000E+00  0.00000000000E+00  0.42904833325E+03  0.42904833325E+03  0.00000000000E+00 0. -1.
          1   -1    0    0  501    0 -0.00000000000E+00 -0.00000000000E+00 -0.38510008374E+03  0.38510008374E+03  0.00000000000E+00 0. -1.
         25    2    1    2    0    0  0.15850096161E+03 -0.61374316421E+02 -0.12965282755E+03  0.24763813648E+03  0.12500171760E+03 0.  0.
          2    1    1    2  501    0 -0.18528157237E+03  0.79102395226E+02 -0.14378159365E+03  0.24750676084E+03  0.00000000000E+00 0. -1.
          1    1    1    2  502    0  0.26780610758E+02 -0.17728078805E+02  0.31738267072E+03  0.31900351967E+03  0.00000000000E+00 0. -1.
         22    1    3    3    0    0  0.13200180671E+03  0.11198998142E+02 -0.68705482028E+02  0.14923249578E+03  0.00000000000E+00 0. -1.
         22    1    3    3    0    0  0.26499154895E+02 -0.72573314563E+02 -0.60947345517E+02  0.98405640704E+02  0.00000000000E+00 0. -1.
</event>
<event>
 7    1  0.6999029E-005  0.3371079E+03  0.7818608E-02  0.1199213E+00
          2   -1    0    0  502    0  0.00000000000E+00  0.00000000000E+00  0.56249402072E+03  0.56249402072E+03  0.00000000000E+00 0. -1.
          1   -1    0    0  501    0 -0.00000000000E+00 -0.00000000000E+00 -0.48489483245E+03  0.48489483245E+03  0.00000000000E+00 0. -1.
         25    2    1    2    0    0 -0.28763878417E+03 -0.20916863919E+03 -0.25209626011E+03  0.45350249967E+03  0.12499761225E+03 0.  0.
          2    1    1    2  501    0  0.26944754063E+03  0.14399563059E+03  0.54297940700E+02  0.31029821969E+03  0.00000000000E+00 0. -1.
          1    1    1    2  502    0  0.18191243537E+02  0.65173008600E+02  0.27539750769E+03  0.28358813380E+03  0.00000000000E+00 0. -1.
         22    1    3    3    0    0 -0.29429173673E+03 -0.17586693654E+03 -0.22524520589E+03  0.41020995655E+03  0.00000000000E+00 0. -1.
         22    1    3    3    0    0  0.66529525621E+01 -0.33301702647E+02 -0.26851054224E+02  0.43292543121E+02  0.00000000000E+00 0. -1.
</event>
<event>
 7    1  0.6999029E-005  0.1201397E+03  0.7818608E-02  0.1331993E+00
          2   -1    0    0  502    0  0.00000000000E+00  0.00000000000E+00  0.86421070133E+03  0.86421070133E+03  0.00000000000E+00 0. -1.
          1   -1    0    0  501    0 -0.00000000000E+00 -0.00000000000E+00 -0.30906785548E+03  0.30906785548E+03  0.00000000000E+00 0. -1.
         25    2    1    2    0    0  0.94520427431E+02  0.13777243089E+03 -0.12086189739E+03  0.24113918560E+03  0.12500061870E+03 0.  0.
          2    1    1    2  501    0 -0.41476141537E+02 -0.31217460606E+02 -0.11818306199E+03  0.12908151032E+03  0.00000000000E+00 0. -1.
          1    1    1    2  502    0 -0.53044285894E+02 -0.10655497029E+03  0.79418780523E+03  0.80305786089E+03  0.00000000000E+00 0. -1.
         22    1    3    3    0    0 -0.65481279301E+01  0.12514021271E+02 -0.71368163565E+02  0.72752274730E+02  0.00000000000E+00 0.  1.
         22    1    3    3    0    0  0.10106855536E+03  0.12525840962E+03 -0.49493733820E+02  0.16838691087E+03  0.00000000000E+00 0.  1.
</event>
<event>
 7    1  0.6999029E-005  0.2504978E+03  0.7818608E-02  0.1331103E+00
          2   -1    0    0  502    0  0.00000000000E+00  0.00000000000E+00  0.16408278276E+03  0.16408278276E+03  0.00000000000E+00 0. -1.
          1   -1    0    0  501    0 -0.00000000000E+00 -0.00000000000E+00 -0.10353986622E+04  0.10353986622E+04  0.00000000000E+00 0. -1.
         25    2    1    2    0    0 -0.56027325630E+02 -0.26021831808E+03 -0.43654444078E+03  0.52635415321E+03  0.12500004618E+03 0.  0.
          2    1    1    2  501    0  0.47769132548E+02  0.23652398961E+03 -0.52589542352E+03  0.57861168685E+03  0.00000000000E+00 0. -1.
          1    1    1    2  502    0  0.82581930822E+01  0.23694328468E+02  0.91123984852E+02  0.94515604901E+02  0.00000000000E+00 0. -1.
         22    1    3    3    0    0  0.73474312268E+01 -0.27111258818E+01 -0.88228044353E+02  0.88574955600E+02  0.00000000000E+00 0.  1.
         22    1    3    3    0    0 -0.63374756857E+02 -0.25750719220E+03 -0.34831639642E+03  0.43777919761E+03  0.00000000000E+00 0.  1.
</event>
<event>
 7    1  0.6999029E-005  0.7386118E+03  0.7818608E-02  0.1188296E+00
          2   -1    0    0  502    0  0.00000000000E+00  0.00000000000E+00  0.29367434386E+04  0.29367434386E+04  0.00000000000E+00 0. -1.
          1   -1    0    0  501    0 -0.00000000000E+00 -0.00000000000E+00 -0.60387297187E+03  0.60387297187E+03  0.00000000000E+00 0. -1.
         25    2    1    2    0    0 -0.75426505323E+03  0.11765028098E+03  0.10070396867E+04  0.12698469695E+04  0.12500014464E+03 0.  0.
          2    1    1    2  501    0  0.72596474689E+03 -0.97375159389E+02 -0.18826453903E+03  0.75627393982E+03  0.00000000000E+00 0. -1.
          1    1    1    2  502    0  0.28300306343E+02 -0.20275121595E+02  0.15140953190E+04  0.15144955011E+04  0.00000000000E+00 0. -1.
         22    1    3    3    0    0 -0.73166843482E+03  0.13199202230E+03  0.99012066741E+03  0.12381839639E+04  0.00000000000E+00 0. -1.
         22    1    3    3    0    0 -0.22596618410E+02 -0.14341741319E+02  0.16919019300E+02  0.31663005570E+02  0.00000000000E+00 0. -1.
</event>
<event>
 7    1  0.6999029E-005  0.7718105E+03  0.7818608E-02  0.1195196E+00
          2   -1    0    0  502    0  0.00000000000E+00  0.00000000000E+00  0.24642273929E+04  0.24642273929E+04  0.00000000000E+00 0. -1.
          1   -1    0    0  501    0 -0.00000000000E+00 -0.00000000000E+00 -0.62547801290E+03  0.62547801290E+03  0.00000000000E+00 0. -1.
         25    2    1    2    0    0  0.16169030820E+03 -0.74949177983E+03 -0.90941007485E+01  0.77691010716E+03  0.12499971252E+03 0.  0.
          2    1    1    2  501    0 -0.13743686723E+03  0.76860281019E+03  0.42375768342E+03  0.88837477821E+03  0.00000000000E+00 0. -1.
          1    1    1    2  502    0 -0.24253440975E+02 -0.19111030359E+02  0.14240857973E+04  0.14244205204E+04  0.00000000000E+00 0. -1.
         22    1    3    3    0    0  0.37071018773E+01 -0.20325483379E+02 -0.22709102826E+02  0.30701322937E+02  0.00000000000E+00 0. -1.
         22    1    3    3    0    0  0.15798320632E+03 -0.72916629646E+03  0.13615002078E+02  0.74620878422E+03  0.00000000000E+00 0. -1.
</event>
<event>
 7    1  0.6999029E-005  0.4696164E+03  0.7818608E-02  0.1099990E+00
          2   -1    0    0  502    0  0.00000000000E+00  0.00000000000E+00  0.22839186038E+04  0.22839186038E+04  0.00000000000E+00 0. -1.
          1   -1    0    0  501    0 -0.00000000000E+00 -0.00000000000E+00 -0.98387526708E+03  0.98387526708E+03  0.00000000000E+00 0. -1.
         25    2    1    2    0    0 -0.31489563435E+02  0.51072526250E+03 -0.28082367275E+03  0.59692198340E+03  0.12498813035E+03 0.  0.
          2    1    1    2  501    0 -0.13919938501E+03 -0.74429527685E+02 -0.50704325097E+03  0.53104527278E+03  0.00000000000E+00 0. -1.
          1    1    1    2  502    0  0.17068894845E+03 -0.43629573481E+03  0.20879102604E+04  0.21398266147E+04  0.00000000000E+00 0. -1.
         22    1    3    3    0    0 -0.27566536421E+02  0.44563287957E+03 -0.28800871476E+03  0.53131685185E+03  0.00000000000E+00 0. -1.
         22    1    3    3    0    0 -0.39230270144E+01  0.65092382933E+02  0.71850420140E+01  0.65605131549E+02  0.00000000000E+00 0. -1.
</event>
<event>
 7    1  0.6999029E-005  0.1970627E+03  0.7818608E-02  0.1270123E+00
          2   -1    0    0  502    0  0.00000000000E+00  0.00000000000E+00  0.23334543314E+04  0.23334543314E+04  0.00000000000E+00 0. -1.
          1   -1    0    0  501    0 -0.00000000000E+00 -0.00000000000E+00 -0.75306172271E+03  0.75306172271E+03  0.00000000000E+00 0. -1.
         25    2    1    2    0    0  0.20718489238E+01  0.19198456449E+03  0.20819383919E+04  0.20945056462E+04  0.12499627497E+03 0.  0.
          2    1    1    2  501    0 -0.36484536700E+01  0.55825687311E+02 -0.68273413350E+03  0.68502241979E+03  0.00000000000E+00 0. -1.
          1    1    1    2  502    0  0.15766047462E+01 -0.24781025180E+03  0.18118835035E+03  0.30698798818E+03  0.00000000000E+00 0. -1.
         22    1    3    3    0    0  0.44608987043E+02  0.17893553450E+02  0.55790946404E+03  0.55997599149E+03  0.00000000000E+00 0. -1.
         22    1    3    3    0    0 -0.42537138119E+02  0.17409101104E+03  0.15240289278E+04  0.15345296547E+04  0.00000000000E+00 0. -1.
</event>
<event>
 7    1  0.6999029E-005  0.5017702E+03  0.7818608E-02  0.1202768E+00
          2   -1    0    0  502    0  0.00000000000E+00  0.00000000000E+00  0.32446801437E+03  0.32446801437E+03  0.00000000000E+00 0. -1.
          1   -1    0    0  501    0 -0.00000000000E+00 -0.00000000000E+00 -0.20957357972E+04  0.20957357972E+04  0.00000000000E+00 0. -1.
         25    2    1    2    0    0 -0.52111155144E+03 -0.51068281235E+02 -0.94540883951E+03  0.10879286489E+04  0.12500261188E+03 0.  0.
          2    1    1    2  501    0  0.48444330935E+03  0.27221546612E+02 -0.10219919594E+04  0.11313239579E+04  0.00000000000E+00 0. -1.
          1    1    1    2  502    0  0.36668242091E+02  0.23846734623E+02  0.19613301603E+03  0.20095120479E+03  0.00000000000E+00 0. -1.
         22    1    3    3    0    0 -0.36833106525E+03 -0.41899510977E+02 -0.54372570916E+03  0.65807369606E+03  0.00000000000E+00 0. -1.
         22    1    3    3    0    0 -0.15278048619E+03 -0.91687702581E+01 -0.40168313035E+03  0.42985495288E+03  0.00000000000E+00 0. -1.
</event>
<event>
 7    1  0.6999029E-005  0.2248487E+03  0.7818608E-02  0.1221182E+00
          2   -1    0    0  502    0  0.00000000000E+00  0.00000000000E+00  0.55698599911E+03  0.55698599911E+03  0.00000000000E+00 0. -1.
          1   -1    0    0  501    0 -0.00000000000E+00 -0.00000000000E+00 -0.11996935711E+04  0.11996935711E+04  0.00000000000E+00 0. -1.
         25    2    1    2    0    0  0.19678605631E+02  0.26500166953E+03  0.42125993964E+02  0.29666967594E+03  0.12500065953E+03 0.  0.
          2    1    1    2  501    0 -0.60967298246E+02 -0.52168066891E+02 -0.10404380842E+04  0.10435276354E+04  0.00000000000E+00 0. -1.
          1    1    1    2  502    0  0.41288692615E+02 -0.21283360264E+03  0.35560451829E+03  0.41648225890E+03  0.00000000000E+00 0. -1.
         22    1    3    3    0    0  0.51211893252E+02  0.19595497614E+03 -0.12853366975E+02  0.20294388320E+03  0.00000000000E+00 0.  1.
         22    1    3    3    0    0 -0.31533287621E+02  0.69046693389E+02  0.54979360939E+02  0.93725792744E+02  0.00000000000E+00 0.  1.
</event>
<event>
 7    1  0.6999029E-005  0.1877792E+03  0.7818608E-02  0.1215645E+00
          2   -1    0    0  502    0  0.00000000000E+00  0.00000000000E+00  0.13653378887E+04  0.13653378887E+04  0.00000000000E+00 0. -1.
          1   -1    0    0  501    0 -0.00000000000E+00 -0.00000000000E+00 -0.30512118266E+03  0.30512118266E+03  0.00000000000E+00 0. -1.
         25    2    1    2    0    0  0.14504941083E+03  0.22491048876E+03  0.57425262024E+03  0.64576720744E+03  0.12500061930E+03 0.  0.
          2    1    1    2  501    0 -0.65312863654E+02 -0.78148534831E+02 -0.25003319520E+03  0.26998067034E+03  0.00000000000E+00 0. -1.
          1    1    1    2  502    0 -0.79736547176E+02 -0.14676195393E+03  0.73599728099E+03  0.75471119357E+03  0.00000000000E+00 0. -1.
         22    1    3    3    0    0  0.10542575562E+03  0.17525746030E+03  0.29230633253E+03  0.35675307900E+03  0.00000000000E+00 0.  1.
         22    1    3    3    0    0  0.39623655208E+02  0.49653028454E+02  0.28194628771E+03  0.28901412844E+03  0.00000000000E+00 0.  1.
</event>
<event>
 7    1  0.6999029E-005  0.6592372E+02  0.7818608E-02  0.1395442E+00
          2   -1    0    0  502    0  0.00000000000E+00  0.00000000000E+00  0.22132716361E+03  0.22132716361E+03  0.00000000000E+00 0. -1.
          1   -1    0    0  501    0 -0.00000000000E+00 -0.00000000000E+00 -0.85795249894E+03  0.85795249894E+03  0.00000000000E+00 0. -1.
         25    2    1    2    0    0  0.75481443297E+02 -0.73310534108E+02  0.14927019079E+03  0.22131030247E+03  0.12499910971E+03 0.  0.
          2    1    1    2  501    0 -0.62885704448E+02  0.19097595707E+02 -0.79825558683E+03  0.80095649813E+03  0.00000000000E+00 0. -1.
          1    1    1    2  502    0 -0.12595738850E+02  0.54212938400E+02  0.12360060718E+02  0.57012861953E+02  0.00000000000E+00 0. -1.
         22    1    3    3    0    0  0.10504623728E+03 -0.80865674416E+02  0.12647862388E+03  0.18322339251E+03  0.00000000000E+00 0. -1.
         22    1    3    3    0    0 -0.29564793979E+02  0.75551403088E+01  0.22791566904E+02  0.38086909957E+02  0.00000000000E+00 0. -1.
</event>
<event>
 7    1  0.6999029E-005  0.6574844E+02  0.7818608E-02  0.1537500E+00
          2   -1    0    0  502    0  0.00000000000E+00  0.00000000000E+00  0.17278035037E+04  0.17278035037E+04  0.00000000000E+00 0. -1.
          1   -1    0    0  501    0 -0.00000000000E+00 -0.00000000000E+00 -0.28903751829E+03  0.28903751829E+03  0.00000000000E+00 0. -1.
         25    2    1    2    0    0  0.55419121850E+02  0.64005425241E+02 -0.74532744524E+02  0.16836860090E+03  0.12499952894E+03 0.  0.
          2    1    1    2  501    0 -0.16770396909E+02 -0.10937383415E+02 -0.16634528999E+03  0.16754589840E+03  0.00000000000E+00 0. -1.
          1    1    1    2  502    0 -0.38648724941E+02 -0.53068041826E+02  0.16796440199E+04  0.16809265227E+04  0.00000000000E+00 0. -1.
         22    1    3    3    0    0  0.66637368227E+02  0.78413279910E+02 -0.95621447969E+02  0.14047292487E+03  0.00000000000E+00 0.  1.
         22    1    3    3    0    0 -0.11218246377E+02 -0.14407854669E+02  0.21088703445E+02  0.27895676026E+02  0.00000000000E+00 0.  1.
</event>
<event>
 7    1  0.6999029E-005  0.7612084E+02  0.7818608E-02  0.1429604E+00
          2   -1    0    0  502    0  0.00000000000E+00  0.00000000000E+00  0.28895321360E+04  0.28895321360E+04  0.00000000000E+00 0. -1.
          1   -1    0    0  501    0 -0.00000000000E+00 -0.00000000000E+00 -0.61649745546E+02  0.61649745546E+02  0.00000000000E+00 0. -1.
         25    2    1    2    0    0 -0.72000591322E+02  0.61406234790E+02  0.55700762380E+03  0.57865139969E+03  0.12500055426E+03 0.  0.
          2    1    1    2  501    0  0.35423116850E+02 -0.66689501020E+02 -0.22549536630E+02  0.78808428204E+02  0.00000000000E+00 0. -1.
          1    1    1    2  502    0  0.36577474472E+02  0.52832662300E+01  0.22934243033E+04  0.22937220537E+04  0.00000000000E+00 0. -1.
         22    1    3    3    0    0  0.30042055948E+02 -0.27811336469E+01  0.59073205317E+02  0.66331767776E+02  0.00000000000E+00 0.  1.
         22    1    3    3    0    0 -0.10204264727E+03  0.64187368437E+02  0.49793441849E+03  0.51231963191E+03  0.00000000000E+00 0.  1.
</event>
<event>
 7    1  0.6999029E-005  0.4927522E+03  0.7818608E-02  0.1165087E+00
          2   -1    0    0  502    0  0.00000000000E+00  0.00000000000E+00  0.48393319251E+03  0.48393319251E+03  0.00000000000E+00 0. -1.
          1   -1    0    0  501    0 -0.00000000000E+00 -0.00000000000E+00 -0.14842691973E+04  0.14842691973E+04  0.00000000000E+00 0. -1.
         25    2    1    2    0    0  0.47314149387E+03  0.20449832884E+03 -0.56829741871E+03  0.77734849095E+03  0.12500512212E+03 0.  0.
          2    1    1    2  501    0 -0.52405527555E+02  0.43081560765E+02 -0.65192350990E+03  0.65544383661E+03  0.00000000000E+00 0. -1.
          1    1    1    2  502    0 -0.42073596632E+03 -0.24757988960E+03  0.21988492379E+03  0.53541006228E+03  0.00000000000E+00 0. -1.
         22    1    3    3    0    0  0.66408096790E+02  0.23017307389E+02 -0.15305098722E+03  0.16841744698E+03  0.00000000000E+00 0.  1.
         22    1    3    3    0    0  0.40673339708E+03  0.18148102145E+03 -0.41524643149E+03  0.60893104397E+03  0.00000000000E+00 0.  1.
</event>
<event>
 7    1  0.6999029E-005  0.4172438E+03  0.7818608E-02  0.1083325E+00
          2   -1    0    0  502    0  0.00000000000E+00  0.00000000000E+00  0.17658198672E+04  0.17658198672E+04  0.00000000000E+00 0. -1.
          1   -1    0    0  501    0 -0.00000000000E+00 -0.00000000000E+00 -0.25935996528E+04  0.25935996528E+04  0.00000000000E+00 0. -1.
         25    2    1    2    0    0 -0.26053175288E+03 -0.52543005566E+03 -0.10277326456E+04  0.11898794706E+04  0.12500090385E+03 0.  0.
          2    1    1    2  501    0  0.19440033920E+03  0.31424988421E+03 -0.14543206817E+04  0.15005309483E+04  0.00000000000E+00 0. -1.
          1    1    1    2  502    0  0.66131413678E+02  0.21118017145E+03  0.16542735418E+04  0.16690091011E+04  0.00000000000E+00 0. -1.
         22    1    3    3    0    0 -0.12410628427E+03 -0.30412883355E+03 -0.68516860900E+03  0.75983731150E+03  0.00000000000E+00 0.  1.
         22    1    3    3    0    0 -0.13642546861E+03 -0.22130122210E+03 -0.34256403664E+03  0.43004215909E+03  0.00000000000E+00 0.  1.
</event>
<event>
 7    1  0.6999029E-005  0.1768145E+03  0.7818608E-02  0.1255399E+00
          2   -1    0    0  502    0  0.00000000000E+00  0.00000000000E+00  0.13622857631E+04  0.13622857631E+04  0.00000000000E+00 0. -1.
          1   -1    0    0  501    0 -0.00000000000E+00 -0.00000000000E+00 -0.14116247703E+04  0.14116247703E+04  0.00000000000E+00 0. -1.
         25    2    1    2    0    0 -0.22084882461E+03 -0.35238540234E+02 -0.42104405283E+02  0.25964292097E+03  0.12500282963E+03 0.  0.
          2    1    1    2  501    0  0.17357713630E+03 -0.19086877917E+02 -0.12536601785E+04  0.12657634748E+04  0.00000000000E+00 0. -1.
          1    1    1    2  502    0  0.47271688312E+02  0.54325418151E+02  0.12464255766E+04  0.12485041376E+04  0.00000000000E+00 0. -1.
         22    1    3    3    0    0  0.14398422067E+02 -0.93101207439E+01 -0.12300221392E+02  0.21101856614E+02  0.00000000000E+00 0.  1.
         22    1    3    3    0    0 -0.23524724668E+03 -0.25928419491E+02 -0.29804183891E+02  0.23854106436E+03  0.00000000000E+00 0.  1.
</event>
<event>
 7    1  0.6999029E-005  0.4083276E+03  0.7818608E-02  0.1189995E+00
          2   -1    0    0  502    0  0.00000000000E+00  0.00000000000E+00  0.13226860671E+04  0.13226860671E+04  0.00000000000E+00 0. -1.
          1   -1    0    0  501    0 -0.00000000000E+00 -0.00000000000E+00 -0.10861071995E+04  0.10861071995E+04  0.00000000000E+00 0. -1.
         25    2    1    2    0    0 -0.17913410182E+03 -0.31147298491E+03  0.28980165217E+03  0.47824111566E+03  0.12500048139E+03 0.  0.
          2    1    1    2  501    0  0.17894472117E+03  0.37327337862E+03 -0.94758571941E+03  0.10340565381E+04  0.00000000000E+00 0. -1.
          1    1    1    2  502    0  0.18938064377E+00 -0.61800393712E+02  0.89436293486E+03  0.89649561280E+03  0.00000000000E+00 0. -1.
         22    1    3    3    0    0 -0.13434411613E+03 -0.14111343745E+03  0.20473682457E+03  0.28262786682E+03  0.00000000000E+00 0. -1.
         22    1    3    3    0    0 -0.44789985687E+02 -0.17035954745E+03  0.85064827594E+02  0.19561324884E+03  0.00000000000E+00 0. -1.
</event>
<event>
 7    1  0.6999029E-005  0.3510987E+03  0.7818608E-02  0.1148938E+00
          2   -1    0    0  502    0  0.00000000000E+00  0.00000000000E+00  0.23893879988E+03  0.23893879988E+03  0.00000000000E+00 0. -1.
          1   -1    0    0  501    0 -0.00000000000E+00 -0.00000000000E+00 -0.20066003963E+04  0.20066003963E+04  0.00000000000E+00 0. -1.
         25    2    1    2    0    0 -0.41618303869E+03 -0.95003216789E+02 -0.12827212571E+04  0.13576574572E+04  0.12500405905E+03 0.  0.
          2    1    1    2  501    0  0.10427644176E+03 -0.48529096059E+02 -0.52932592485E+03  0.54167756478E+03  0.00000000000E+00 0. -1.
          1    1    1    2  502    0  0.31190659692E+03  0.14353231285E+03  0.44385585523E+02  0.34620417421E+03  0.00000000000E+00 0. -1.
         22    1    3    3    0    0 -0.21868761029E+03  0.13372262550E+02 -0.66269273166E+03  0.69797187973E+03  0.00000000000E+00 0. -1.
         22    1    3    3    0    0 -0.19749542839E+03 -0.10837547934E+03 -0.62002852544E+03  0.65968557747E+03  0.00000000000E+00 0. -1.
</event>
<event>
 7    1  0.6999029E-005  0.5909667E+03  0.7818608E-02  0.1241929E+00
          2   -1    0    0  502    0  0.00000000000E+00  0.00000000000E+00  0.17326633667E+04  0.17326633667E+04  0.00000000000E+00 0. -1.
          1   -1    0    0  501    0 -0.00000000000E+00 -0.00000000000E+00 -0.75955865579E+03  0.75955865579E+03  0.00000000000E+00 0. -1.
         25    2    1    2    0    0 -0.13984587410E+03 -0.58693250011E+03 -0.62109399164E+02  0.61929819839E+03  0.12500421145E+03 0.  0.
          2    1    1    2  501    0  0.14666819043E+03  0.56323888683E+03 -0.21648688522E+03  0.62098001030E+03  0.00000000000E+00 0. -1.
          1    1    1    2  502    0 -0.68223163326E+01  0.23693613275E+02  0.12517009953E+04  0.12519438138E+04  0.00000000000E+00 0. -1.
         22    1    3    3    0    0 -0.12859884793E+03 -0.27586044281E+03 -0.43640837881E+02  0.30747547923E+03  0.00000000000E+00 0.  1.
         22    1    3    3    0    0 -0.11247026171E+02 -0.31107205729E+03 -0.18468561282E+02  0.31182271916E+03  0.00000000000E+00 0.  1.
</event>
<event>
 7    1  0.6999029E-005  0.1103041E+03  0.7818608E-02  0.1380793E+00
          2   -1    0    0  502    0  0.00000000000E+00  0.00000000000E+00  0.21019832911E+03  0.21019832911E+03  0.00000000000E+00 0. -1.
          1   -1    0    0  501    0 -0.00000000000E+00 -0.00000000000E+00 -0.29772977572E+03  0.29772977572E+03  0.00000000000E+00 0. -1.
         25    2    1    2    0    0 -0.84145999652E+02 -0.10041525044E+03 -0.28541938676E+02  0.18331424364E+03  0.12500279148E+03 0.  0.
          2    1    1    2  501    0  0.86284652408E+02  0.63045202417E+02 -0.17370608196E+03  0.20394494772E+03  0.00000000000E+00 0. -1.
          1    1    1    2  502    0 -0.21386527562E+01  0.37370048026E+02  0.11471657402E+03  0.12066891348E+03  0.00000000000E+00 0. -1.
         22    1    3    3    0    0 -0.30519668151E+02  0.15303260542E+02  0.27659966198E+02  0.43939886861E+02  0.00000000000E+00 0. -1.
         22    1    3    3    0    0 -0.53626331501E+02 -0.11571851099E+03 -0.56201904874E+02  0.13937435677E+03  0.00000000000E+00 0. -1.
</event>
<event>
 7    1  0.6999029E-005  0.1525550E+03  0.7818608E-02  0.1291310E+00
          2   -1    0    0  502    0  0.00000000000E+00  0.00000000000E+00  0.56411881882E+03  0.56411881882E+03  0.00000000000E+00 0. -1.
          1   -1    0    0  501    0 -0.00000000000E+00 -0.00000000000E+00 -0.12417757051E+03  0.12417757051E+03  0.00000000000E+00 0. -1.
         25    2    1    2    0    0  0.15206281705E+03  0.29055803723E+02  0.33164447179E+03  0.38675673089E+03  0.12500149263E+03 0.  0.
          2    1    1    2  501    0 -0.20812776201E+02  0.55297712367E+02 -0.51375292550E+02  0.78297058251E+02  0.00000000000E+00 0. -1.
          1    1    1    2  502    0 -0.13125004085E+03 -0.84353516090E+02  0.15967206906E+03  0.22324260018E+03  0.00000000000E+00 0. -1.
         22    1    3    3    0    0  0.15218718024E+03  0.61133918318E+02  0.24956893150E+03  0.29863513753E+03  0.00000000000E+00 0.  1.
         22    1    3    3    0    0 -0.12436318532E+00 -0.32078114595E+02  0.82075540295E+02  0.88121593363E+02  0.00000000000E+00 0.  1.
</event>
<event>
 7    1  0.6999029E-005  0.6196127E+03  0.7818608E-02  0.1156508E+00
          2   -1    0    0  502    0  0.00000000000E+00  0.00000000000E+00  0.20111849160E+04  0.20111849160E+04  0.00000000000E+00 0. -1.
          1   -1    0    0  501    0 -0.00000000000E+00 -0.00000000000E+00 -0.20798506604E+04  0.20798506604E+04  0.00000000000E+00 0. -1.
         25    2    1    2    0    0 -0.56959537703E+03  0.30801593636E+03  0.61202443352E+03  0.89972859319E+03  0.12499969432E+03 0.  0.
          2    1    1    2  501    0  0.18246078497E+02 -0.56747049372E+02 -0.18623800299E+04  0.18633337121E+04  0.00000000000E+00 0. -1.
          1    1    1    2  502    0  0.55134929853E+03 -0.25126888699E+03  0.11816898520E+04  0.13279732711E+04  0.00000000000E+00 0. -1.
         22    1    3    3    0    0 -0.25712645857E+03  0.19569054200E+03  0.35335863118E+03  0.47882264583E+03  0.00000000000E+00 0. -1.
         22    1    3    3    0    0 -0.31246891846E+03  0.11232539436E+03  0.25866580234E+03  0.42090594736E+03  0.00000000000E+00 0. -1.
</event>
<event>
 7    1  0.6999029E-005  0.4421679E+03  0.7818608E-02  0.1151353E+00
          2   -1    0    0  502    0  0.00000000000E+00  0.00000000000E+00  0.15752683537E+04  0.15752683537E+04  0.00000000000E+00 0. -1.
          1   -1    0    0  501    0 -0.00000000000E+00 -0.00000000000E+00 -0.11673650020E+04  0.11673650020E+04  0.00000000000E+00 0. -1.
         25    2    1    2    0    0 -0.31151547788E+03 -0.39360617997E+03  0.57257756445E+03  0.77164797595E+03  0.12501125388E+03 0.  0.
          2    1    1    2  501    0  0.61312604879E+02  0.64168469026E+02 -0.10184282273E+04  0.10222880622E+04  0.00000000000E+00 0. -1.
          1    1    1    2  502    0  0.25020287300E+03  0.32943771095E+03  0.85375401453E+03  0.94869731758E+03  0.00000000000E+00 0. -1.
         22    1    3    3    0    0 -0.21227203053E+03 -0.30131971083E+03  0.48927694578E+03  0.61257237348E+03  0.00000000000E+00 0.  1.
         22    1    3    3    0    0 -0.99243447355E+02 -0.92286469144E+02  0.83300618678E+02  0.15907560247E+03  0.00000000000E+00 0.  1.
</event>
<event>
 7    1  0.6999029E-005  0.6813265E+03  0.7818608E-02  0.1020319E+00
          2   -1    0    0  502    0  0.00000000000E+00  0.00000000000E+00  0.94021384849E+03  0.94021384849E+03  0.00000000000E+00 0. -1.
          1   -1    0    0  501    0 -0.00000000000E+00 -0.00000000000E+00 -0.42650896614E+04  0.42650896614E+04  0.00000000000E+00 0. -1.
         25    2    1    2    0    0  0.60370573310E+02  0.86350470897E+03 -0.40026246028E+03  0.96183074976E+03  0.12499346202E+03 0.  0.
          2    1    1    2  501    0 -0.27228451337E+03 -0.60773403506E+03 -0.35088132044E+04  0.35714492320E+04  0.00000000000E+00 0. -1.
          1    1    1    2  502    0  0.21191394006E+03 -0.25577067390E+03  0.58419985173E+03  0.67202352815E+03  0.00000000000E+00 0. -1.
         22    1    3    3    0    0  0.15698371698E+02  0.57304665749E+03 -0.32289532796E+03  0.65794399712E+03  0.00000000000E+00 0.  1.
         22    1    3    3    0    0  0.44672201612E+02  0.29045805148E+03 -0.77367132324E+02  0.30388675264E+03  0.00000000000E+00 0.  1.
</event>
<event>
 7    1  0.6999029E-005  0.3880905E+03  0.7818608E-02  0.1113721E+00
          2   -1    0    0  502    0  0.00000000000E+00  0.00000000000E+00  0.12621415077E+04  0.12621415077E+04  0.00000000000E+00 0. -1.
          1   -1    0    0  501    0 -0.00000000000E+00 -0.00000000000E+00 -0.27307934470E+04  0.27307934470E+04  0.00000000000E+00 0. -1.
         25    2    1    2    0    0  0.52591854860E+03 -0.10502729079E+03 -0.74728303441E+03  0.92826602850E+03  0.12499933829E+03 0.  0.
          2    1    1    2  501    0 -0.16004601914E+03 -0.70111937113E+01 -0.18582391581E+04  0.18651318060E+04  0.00000000000E+00 0. -1.
          1    1    1    2  502    0 -0.36587252946E+03  0.11203848450E+03  0.11368702533E+04  0.11995371201E+04  0.00000000000E+00 0. -1.
         22    1    3    3    0    0  0.36109163784E+01 -0.19279859001E+02 -0.14871255028E+02  0.24615156029E+02  0.00000000000E+00 0.  1.
         22    1    3    3    0    0  0.52230763222E+03 -0.85747431787E+02 -0.73241177938E+03  0.90365087247E+03  0.00000000000E+00 0.  1.
</event>
<event>
 7    1  0.6999029E-005  0.4589994E+03  0.7818608E-02  0.1178526E+00
          2   -1    0    0  502    0  0.00000000000E+00  0.00000000000E+00  0.10356159929E+04  0.10356159929E+04  0.00000000000E+00 0. -1.
          1   -1    0    0  501    0 -0.00000000000E+00 -0.00000000000E+00 -0.23036263241E+04  0.23036263241E+04  0.00000000000E+00 0. -1.
         25    2    1    2    0    0 -0.44885351804E+03 -0.85884839066E+02 -0.16179432419E+04  0.16858863095E+04  0.12500651364E+03 0.  0.
          2    1    1    2  501    0  0.46616877617E+03  0.25848174573E+02 -0.56689267863E+03  0.73440367993E+03  0.00000000000E+00 0. -1.
          1    1    1    2  502    0 -0.17315258131E+02  0.60036664493E+02  0.91682558930E+03  0.91895232762E+03  0.00000000000E+00 0. -1.
         22    1    3    3    0    0 -0.44255346309E+03 -0.93338529688E+02 -0.14792573272E+04  0.15468574236E+04  0.00000000000E+00 0. -1.
         22    1    3    3    0    0 -0.63000549580E+01  0.74536906219E+01 -0.13868591462E+03  0.13902888589E+03  0.00000000000E+00 0. -1.
</event>
<event>
 7    1  0.6999029E-005  0.1316373E+03  0.7818608E-02  0.1316284E+00
          2   -1    0    0  502    0  0.00000000000E+00  0.00000000000E+00  0.30605395217E+03  0.30605395217E+03  0.00000000000E+00 0. -1.
          1   -1    0    0  501    0 -0.00000000000E+00 -0.00000000000E+00 -0.29323236446E+03  0.29323236446E+03  0.00000000000E+00 0. -1.
         25    2    1    2    0    0  0.12765919040E+03 -0.29489852175E+02 -0.11020744937E+02  0.18142369962E+03  0.12500632660E+03 0.  0.
          2    1    1    2  501    0 -0.20457976688E+02 -0.50478783415E+02 -0.17216421093E+03  0.18057450515E+03  0.00000000000E+00 0. -1.
          1    1    1    2  502    0 -0.10720121371E+03  0.79968635590E+02  0.19600654358E+03  0.23728811185E+03  0.00000000000E+00 0. -1.
         22    1    3    3    0    0  0.12982824085E+03 -0.58681488963E+02 -0.31225235399E+02  0.14585576641E+03  0.00000000000E+00 0. -1.
         22    1    3    3    0    0 -0.21690504480E+01  0.29191636788E+02  0.20204490462E+02  0.35567933213E+02  0.00000000000E+00 0. -1.
</event>
<event>
 7    1  0.6999029E-005  0.8020548E+02  0.7818608E-02  0.1432046E+00
          2   -1    0    0  502    0  0.00000000000E+00  0.00000000000E+00  0.23955017207E+03  0.23955017207E+03  0.00000000000E+00 0. -1.
          1   -1    0    0  501    0 -0.00000000000E+00 -0.00000000000E+00 -0.90770633930E+03  0.90770633930E+03  0.00000000000E+00 0. -1.
         25    2    1    2    0    0  0.49843182794E+02 -0.28831540667E+02  0.21221260845E+03  0.25292834020E+03  0.12499181366E+03 0.  0.
          2    1    1    2  501    0 -0.49665798114E+02  0.63263447913E+02 -0.82644033447E+03  0.83034485715E+03  0.00000000000E+00 0. -1.
          1    1    1    2  502    0 -0.17738468002E+00 -0.34431907247E+02 -0.53928441207E+02  0.63983314020E+02  0.00000000000E+00 0. -1.
         22    1    3    3    0    0 -0.68480422616E+01 -0.38422371422E+02  0.67940570596E+01  0.39614814398E+02  0.00000000000E+00 0. -1.
         22    1    3    3    0    0  0.56691225056E+02  0.95908307551E+01  0.20541855139E+03  0.21331352580E+03  0.00000000000E+00 0. -1.
</event>
<event>
 7    1  0.6999029E-005  0.4492912E+03  0.7818608E-02  0.1179491E+00
          2   -1    0    0  502    0  0.00000000000E+00  0.00000000000E+00  0.10897958946E+04  0.10897958946E+04  0.00000000000E+00 0. -1.
          1   -1    0    0  501    0 -0.00000000000E+00 -0.00000000000E+00 -0.65435152048E+03  0.65435152048E+03  0.00000000000E+00 0. -1.
         25    2    1    2    0    0  0.38291434103E+03  0.93526606740E+02 -0.50529153148E+03  0.65292751443E+03  0.12499675428E+03 0.  0.
          2    1    1    2  501    0  0.63110987326E+02  0.20257103006E+01  0.28834611114E+03  0.29517889497E+03  0.00000000000E+00 0. -1.
          1    1    1    2  502    0 -0.44602532835E+03 -0.95552317040E+02  0.65238979446E+03  0.79604100569E+03  0.00000000000E+00 0. -1.
         22    1    3    3    0    0 -0.97721237203E+01  0.48010786705E+01 -0.11861006158E+02  0.16100565999E+02  0.00000000000E+00 0.  1.
         22    1    3    3    0    0  0.39268646475E+03  0.88725528069E+02 -0.49343052532E+03  0.63682694843E+03  0.00000000000E+00 0.  1.
</event>
<event>
 7    1  0.6999029E-005  0.1879071E+03  0.7818608E-02  0.1241227E+00
          2   -1    0    0  502    0  0.00000000000E+00  0.00000000000E+00  0.93399724700E+03  0.93399724700E+03  0.00000000000E+00 0. -1.
          1   -1    0    0  501    0 -0.00000000000E+00 -0.00000000000E+00 -0.19501128784E+03  0.19501128784E+03  0.00000000000E+00 0. -1.
         25    2    1    2    0    0  0.10637838267E+03  0.17097716433E+03 -0.93239705433E+02  0.25469345423E+03  0.12500224774E+03 0.  0.
          2    1    1    2  501    0 -0.33929721766E+02 -0.14181487915E+03  0.27152930813E+03  0.30820585838E+03  0.00000000000E+00 0. -1.
          1    1    1    2  502    0 -0.72448660899E+02 -0.29162285178E+02  0.56069635646E+03  0.56610922223E+03  0.00000000000E+00 0. -1.
         22    1    3    3    0    0  0.86520595049E+02  0.19045924303E+03 -0.82767798947E+02  0.22496898712E+03  0.00000000000E+00 0. -1.
         22    1    3    3    0    0  0.19857787616E+02 -0.19482078704E+02 -0.10471906485E+02  0.29724467112E+02  0.00000000000E+00 0. -1.
</event>
<event>
 7    1  0.6999029E-005  0.2845865E+03  0.7818608E-02  0.1332455E+00
          2   -1    0    0  502    0  0.00000000000E+00  0.00000000000E+00  0.38378149121E+03  0.38378149121E+03  0.00000000000E+00 0. -1.
          1   -1    0    0  501    0 -0.00000000000E+00 -0.00000000000E+00 -0.25207193669E+04  0.25207193669E+04  0.00000000000E+00 0. -1.
         25    2    1    2    0    0  0.32018034643E+02  0.29197518502E+03 -0.77964774754E+03  0.84246659561E+03  0.12499876507E+03 0.  0.
          2    1    1    2  501    0 -0.13114425569E+02 -0.28106476215E+03 -0.16977336023E+04  0.17208918540E+04  0.00000000000E+00 0. -1.
          1    1    1    2  502    0 -0.18903609074E+02 -0.10910422866E+02  0.34044347418E+03  0.34114240849E+03  0.00000000000E+00 0. -1.
         22    1    3    3    0    0  0.73564474905E+02  0.21309670639E+03 -0.48921148528E+03  0.53865556302E+03  0.00000000000E+00 0.  1.
         22    1    3    3    0    0 -0.41546440262E+02  0.78878478624E+02 -0.29043626226E+03  0.30381103259E+03  0.00000000000E+00 0.  1.
</event>
<event>
 7    1  0.6999029E-005  0.1952807E+03  0.7818608E-02  0.1213146E+00
          2   -1    0    0  502    0  0.00000000000E+00  0.00000000000E+00  0.11803365709E+04  0.11803365709E+04  0.00000000000E+00 0. -1.
          1   -1    0    0  501    0 -0.00000000000E+00 -0.00000000000E+00 -0.16875136304E+03  0.16875136304E+03  0.00000000000E+00 0. -1.
         25    2    1    2    0    0  0.23356737415E+03 -0.54617352766E+02  0.93834913636E+03  0.97655385035E+03  0.12498618893E+03 0.  0.
          2    1    1    2  501    0 -0.97153676612E+02  0.25964692442E+02 -0.10557941708E+03  0.14580814601E+03  0.00000000000E+00 0. -1.
          1    1    1    2  502    0 -0.13641369753E+03  0.28652660324E+02  0.17881548853E+03  0.22672593755E+03  0.00000000000E+00 0. -1.
         22    1    3    3    0    0  0.22589095257E+03 -0.29983365468E+02  0.91052971731E+03  0.93861072376E+03  0.00000000000E+00 0. -1.
         22    1    3    3    0    0  0.76764215770E+01 -0.24633987298E+02  0.27819419053E+02  0.37943126583E+02  0.00000000000E+00 0. -1.
</event>
<event>
 7    1  0.6999029E-005  0.3783269E+03  0.7818608E-02  0.1180480E+00
          2   -1    0    0  502    0  0.00000000000E+00  0.00000000000E+00  0.14864236369E+04  0.14864236369E+04  0.00000000000E+00 0. -1.
          1   -1    0    0  501    0 -0.00000000000E+00 -0.00000000000E+00 -0.17310881310E+04  0.17310881310E+04  0.00000000000E+00 0. -1.
         25    2    1    2    0    0  0.14889627146E+03  0.33941945505E+03 -0.14754803728E+04  0.15264478348E+04  0.12499998278E+03 0.  0.
          2    1    1    2  501    0 -0.19295655701E+03 -0.39907096322E+03 -0.14532029358E+02  0.44350991698E+03  0.00000000000E+00 0. -1.
          1    1    1    2  502    0  0.44060285553E+02  0.59651508168E+02  0.12453479081E+04  0.12475540162E+04  0.00000000000E+00 0. -1.
         22    1    3    3    0    0  0.69439395253E+02  0.28693100691E+03 -0.10747154349E+04  0.11145243373E+04  0.00000000000E+00 0. -1.
         22    1    3    3    0    0  0.79456876204E+02  0.52488448140E+02 -0.40076493787E+03  0.41192349750E+03  0.00000000000E+00 0. -1.
</event>
<event>
 7    1  0.6999029E-005  0.1300816E+04  0.7818608E-02  0.1179288E+00
          2   -1    0    0  502    0  0.00000000000E+00  0.00000000000E+00  0.16879813628E+04  0.16879813628E+04  0.00000000000E+00 0. -1.
          1   -1    0    0  501    0 -0.00000000000E+00 -0.00000000000E+00 -0.28025366812E+04  0.28025366812E+04  0.00000000000E+00 0. -1.
         25    2    1    2    0    0  0.12278453262E+03 -0.12950263463E+04  0.11583697444E+04  0.17463144967E+04  0.12499831053E+03 0.  0.
          2    1    1    2  501    0  0.21746451516E+02  0.22183980588E+01 -0.71174383681E+03  0.71207943284E+03  0.00000000000E+00 0. -1.
          1    1    1    2  502    0 -0.14453098414E+03  0.12928079482E+04 -0.15611812259E+04  0.20321241144E+04  0.00000000000E+00 0. -1.
         22    1    3    3    0    0  0.11129344441E+03 -0.12890763446E+04  0.11476874915E+04  0.17295348020E+04  0.00000000000E+00 0.  1.
         22    1    3    3    0    0  0.11491088211E+02 -0.59500016085E+01  0.10682252860E+02  0.16779694680E+02  0.00000000000E+00 0.  1.
</event>
<event>
 7    1  0.6999029E-005  0.9493382E+02  0.7818608E-02  0.1386299E+00
          2   -1    0    0  502    0  0.00000000000E+00  0.00000000000E+00  0.66592946068E+02  0.66592946068E+02  0.00000000000E+00 0. -1.
          1   -1    0    0  501    0 -0.00000000000E+00 -0.00000000000E+00 -0.18924894395E+04  0.18924894395E+04  0.00000000000E+00 0. -1.
         25    2    1    2    0    0  0.84971220149E+02 -0.64487526467E+01 -0.84117015973E+03  0.85466577771E+03  0.12499863720E+03 0.  0.
          2    1    1    2  501    0 -0.94583202375E+02 -0.34016869145E+02 -0.10346029342E+04  0.10394740791E+04  0.00000000000E+00 0. -1.
          1    1    1    2  502    0  0.96119822263E+01  0.40465621792E+02  0.49876600592E+02  0.64942528716E+02  0.00000000000E+00 0. -1.
         22    1    3    3    0    0  0.51776616642E+02 -0.63362030248E+02 -0.37208563772E+03  0.38097675350E+03  0.00000000000E+00 0.  1.
         22    1    3    3    0    0  0.33194603507E+02  0.56913277601E+02 -0.46908452201E+03  0.47368902421E+03  0.00000000000E+00 0.  1.
</event>
<event>
 7    1  0.6999029E-005  0.3705897E+03  0.7818608E-02  0.1226423E+00
          2   -1    0    0  502    0  0.00000000000E+00  0.00000000000E+00  0.13012155027E+04  0.13012155027E+04  0.00000000000E+00 0. -1.
          1   -1    0    0  501    0 -0.00000000000E+00 -0.00000000000E+00 -0.83985305228E+03  0.83985305228E+03  0.00000000000E+00 0. -1.
         25    2    1    2    0    0  0.17834105903E+03 -0.37355911483E+03  0.93164952507E+03  0.10271064241E+04  0.12499929302E+03 0.  0.
          2    1    1    2  501    0 -0.15135379738E+03  0.33619121834E+03 -0.74721497349E+03  0.83322429386E+03  0.00000000000E+00 0. -1.
          1    1    1    2  502    0 -0.26987261647E+02  0.37367896490E+02  0.27692789883E+03  0.28073783701E+03  0.00000000000E+00 0. -1.
         22    1    3    3    0    0 -0.33352916899E+01 -0.45708360886E+02  0.43862793763E+02  0.63437552776E+02  0.00000000000E+00 0.  1.
         22    1    3    3    0    0  0.18167635072E+03 -0.32785075394E+03  0.88778673131E+03  0.96366887132E+03  0.00000000000E+00 0.  1.
</event>
<event>
 7    1  0.6999029E-005  0.6987545E+03  0.7818608E-02  0.1229047E+00
          2   -1    0    0  502    0  0.00000000000E+00  0.00000000000E+00  0.61019041904E+03  0.61019041904E+03  0.00000000000E+00 0. -1.
          1   -1    0    0  501    0 -0.00000000000E+00 -0.00000000000E+00 -0.15844111146E+04  0.15844111146E+04  0.00000000000E+00 0. -1.
         25    2    1    2    0    0  0.17257830832E+03 -0.67710285401E+03 -0.76414328456E+03  0.10429686763E+04  0.12496860808E+03 0.  0.
          2    1    1    2  501    0 -0.19559020785E+03  0.67106560001E+03 -0.50084011824E+03  0.85989847829E+03  0.00000000000E+00 0. -1.
          1    1    1    2  502    0  0.23011899532E+02  0.60372539987E+01  0.29076270727E+03  0.29173437900E+03  0.00000000000E+00 0. -1.
         22    1    3    3    0    0  0.35182322844E+01 -0.24843706178E+03 -0.24782831170E+03  0.35093051122E+03  0.00000000000E+00 0. -1.
         22    1    3    3    0    0  0.16906007604E+03 -0.42866579223E+03 -0.51631497286E+03  0.69203816509E+03  0.00000000000E+00 0. -1.
</event>
<event>
 7    1  0.6999029E-005  0.2670363E+03  0.7818608E-02  0.1174780E+00
          2   -1    0    0  502    0  0.00000000000E+00  0.00000000000E+00  0.22723579874E+04  0.22723579874E+04  0.00000000000E+00 0. -1.
          1   -1    0    0  501    0 -0.00000000000E+00 -0.00000000000E+00 -0.47925465913E+03  0.47925465913E+03  0.00000000000E+00 0. -1.
         25    2    1    2    0    0  0.21077220724E+03  0.72681358878E+02  0.81035084850E+03  0.84970649606E+03  0.12500051400E+03 0.  0.
          2    1    1    2  501    0  0.42555991370E+02  0.10365079656E+03 -0.43589719622E+03  0.45006762348E+03  0.00000000000E+00 0. -1.
          1    1    1    2  502    0 -0.25332819861E+03 -0.17633215543E+03  0.14186496760E+04  0.14518385270E+04  0.00000000000E+00 0. -1.
         22    1    3    3    0    0  0.77788549485E+01  0.16971742444E+02  0.81910010802E+01  0.20387327549E+02  0.00000000000E+00 0.  1.
         22    1    3    3    0    0  0.20299335229E+03  0.55709616434E+02  0.80215984742E+03  0.82931916851E+03  0.00000000000E+00 0.  1.
</event>
<event>
 7    1  0.6999029E-005  0.1150074E+03  0.7818608E-02  0.1426045E+00
          2   -1    0    0  502    0  0.00000000000E+00  0.00000000000E+00  0.25535971351E+04  0.25535971351E+04  0.00000000000E+00 0. -1.
          1   -1    0    0  501    0 -0.00000000000E+00 -0.00000000000E+00 -0.56583250386E+03  0.56583250386E+03  0.00000000000E+00 0. -1.
         25    2    1    2    0    0 -0.64908167353E+02  0.10730458037E+03  0.17140520611E+02  0.17790496442E+03  0.12501614200E+03 0.  0.
          2    1    1    2  501    0 -0.12071202249E+02 -0.22043338403E+02 -0.48378079488E+03  0.48443315348E+03  0.00000000000E+00 0. -1.
          1    1    1    2  502    0  0.76979369602E+02 -0.85261241965E+02  0.24544049055E+04  0.24570915211E+04  0.00000000000E+00 0. -1.
         22    1    3    3    0    0 -0.65436754755E+01  0.10057951688E+03 -0.27086299035E+02  0.10436822553E+03  0.00000000000E+00 0. -1.
         22    1    3    3    0    0 -0.58364491877E+02  0.67250634913E+01  0.44226819646E+02  0.73536738893E+02  0.00000000000E+00 0. -1.
</event>
<event>
 7    1  0.6999029E-005  0.7502447E+02  0.7818608E-02  0.1494927E+00
          2   -1    0    0  502    0  0.00000000000E+00  0.00000000000E+00  0.35197904631E+03  0.35197904631E+03  0.00000000000E+00 0. -1.
          1   -1    0    0  501    0 -0.00000000000E+00 -0.00000000000E+00 -0.20314161198E+03  0.20314161198E+03  0.00000000000E+00 0. -1.
         25    2    1    2    0    0 -0.54454571317E+02  0.47750277921E+02 -0.15710361484E+03  0.21342952243E+03  0.12500090347E+03 0.  0.
          2    1    1    2  501    0 -0.14660796774E+02 -0.18186609788E+02 -0.31669167074E+01  0.23573737485E+02  0.00000000000E+00 0. -1.
          1    1    1    2  502    0  0.69115368091E+02 -0.29563668133E+02  0.30910796588E+03  0.31811739837E+03  0.00000000000E+00 0. -1.
         22    1    3    3    0    0 -0.86837705493E+02  0.61514808543E+02 -0.98129632660E+02  0.14475594486E+03  0.00000000000E+00 0. -1.
         22    1    3    3    0    0  0.32383134176E+02 -0.13764530622E+02 -0.58973982180E+02  0.68673577571E+02  0.00000000000E+00 0. -1.
</event>
<event>
 7    1  0.6999029E-005  0.2717747E+02  0.7818608E-02  0.1648829E+00
          2   -1    0    0  502    0  0.00000000000E+00  0.00000000000E+00  0.10275568792E+04  0.10275568792E+04  0.00000000000E+00 0. -1.
          1   -1    0    0  501    0 -0.00000000000E+00 -0.00000000000E+00 -0.40212066645E+02  0.40212066645E+02  0.00000000000E+00 0. -1.
         25    2    1    2    0    0 -0.15774752956E+02 -0.99072027841E+01  0.17999192130E+03  0.21992774942E+03  0.12499651090E+03 0.  0.
          2    1    1    2  501    0 -0.81484004572E+01  0.23235578605E+02 -0.12442778820E+02  0.27588245466E+02  0.00000000000E+00 0. -1.
          1    1    1    2  502    0  0.23923153413E+02 -0.13328375821E+02  0.81979567011E+03  0.82025295099E+03  0.00000000000E+00 0. -1.
         22    1    3    3    0    0 -0.40659169565E+02 -0.44792370236E+02  0.37598069717E+02  0.71225973826E+02  0.00000000000E+00 0. -1.
         22    1    3    3    0    0  0.24884416608E+02  0.34885167451E+02  0.14239385158E+03  0.14870177560E+03  0.00000000000E+00 0. -1.
</event>
<event>
 7    1  0.6999029E-005  0.5357047E+03  0.7818608E-02  0.1185222E+00
          2   -1    0    0  502    0  0.00000000000E+00  0.00000000000E+00  0.15595394573E+04  0.15595394573E+04  0.00000000000E+00 0. -1.
          1   -1    0    0  501    0 -0.00000000000E+00 -0.00000000000E+00 -0.57562125001E+03  0.57562125001E+03  0.00000000000E+00 0. -1.
         25    2    1    2    0    0  0.47308811453E+03 -0.22466775910E+03 -0.12110320338E+03  0.55188661879E+03  0.12499955213E+03 0.  0.
          2    1    1    2  501    0 -0.51675938659E+03  0.20101014702E+03  0.83716040049E+02  0.56076173032E+03  0.00000000000E+00 0. -1.
          1    1    1    2  502    0  0.43671272053E+02  0.23657612085E+02  0.10213053706E+04  0.10225123582E+04  0.00000000000E+00 0. -1.
         22    1    3    3    0    0  0.37028900067E+03 -0.18687561514E+03 -0.14572503624E+03  0.43962737146E+03  0.00000000000E+00 0.  1.
         22    1    3    3    0    0  0.10279911386E+03 -0.37792143967E+02  0.24621832861E+02  0.11225924732E+03  0.00000000000E+00 0.  1.
</event>
<event>
 7    1  0.6999029E-005  0.2714521E+03  0.7818608E-02  0.1151784E+00
          2   -1    0    0  502    0  0.00000000000E+00  0.00000000000E+00  0.28683199681E+04  0.28683199681E+04  0.00000000000E+00 0. -1.
          1   -1    0    0  501    0 -0.00000000000E+00 -0.00000000000E+00 -0.23904351744E+04  0.23904351744E+04  0.00000000000E+00 0. -1.
         25    2    1    2    0    0 -0.22991445141E+03 -0.21284649784E+03  0.19823543619E+04  0.20108501568E+04  0.12500100251E+03 0.  0.
          2    1    1    2  501    0  0.19919585454E+01  0.14381961219E+03 -0.23576898072E+04  0.23620730885E+04  0.00000000000E+00 0. -1.
          1    1    1    2  502    0  0.22792249287E+03  0.69026885654E+02  0.85322023898E+03  0.88583189709E+03  0.00000000000E+00 0. -1.
         22    1    3    3    0    0 -0.17741908234E+03 -0.21889036149E+03  0.15647774214E+04  0.15899430492E+04  0.00000000000E+00 0.  1.
         22    1    3    3    0    0 -0.52495369076E+02  0.60438636480E+01  0.41757694046E+03  0.42090710765E+03  0.00000000000E+00 0.  1.
</event>
<event>
 7    1  0.6999029E-005  0.3189925E+03  0.7818608E-02  0.1260906E+00
          2   -1    0    0  502    0  0.00000000000E+00  0.00000000000E+00  0.20528021881E+04  0.20528021881E+04  0.00000000000E+00 0. -1.
          1   -1    0    0  501    0 -0.00000000000E+00 -0.00000000000E+00 -0.19090620910E+04  0.19090620910E+04  0.00000000000E+00 0. -1.
         25    2    1    2    0    0  0.23433501075E+03  0.23565826031E+03 -0.95242741490E+03  0.10164597806E+04  0.12499916798E+03 0.  0.
          2    1    1    2  501    0 -0.23707870052E+03 -0.19795097892E+03 -0.89864241409E+03  0.95023633307E+03  0.00000000000E+00 0. -1.
          1    1    1    2  502    0  0.27436897771E+01 -0.37707281399E+02  0.19948099262E+04  0.19951681655E+04  0.00000000000E+00 0. -1.
         22    1    3    3    0    0  0.11803155095E+03  0.88395734123E+02 -0.25844844480E+03  0.29755814802E+03  0.00000000000E+00 0.  1.
         22    1    3    3    0    0  0.11630345979E+03  0.14726252619E+03 -0.69397897010E+03  0.71890163258E+03  0.00000000000E+00 0.  1.
</event>
<event>
 7    1  0.6999029E-005  0.5027366E+02  0.7818608E-02  0.1515483E+00
          2   -1    0    0  502    0  0.00000000000E+00  0.00000000000E+00  0.23406503573E+04  0.23406503573E+04  0.00000000000E+00 0. -1.
          1   -1    0    0  501    0 -0.00000000000E+00 -0.00000000000E+00 -0.62206169175E+01  0.62206169175E+01  0.00000000000E+00 0. -1.
         25    2    1    2    0    0  0.55874024897E+02 -0.40009219093E+02  0.10023033365E+04  0.10124028390E+04  0.12499954354E+03 0.  0.
          2    1    1    2  501    0 -0.26515192244E+02  0.32519752351E+02  0.48880369294E+03  0.49060130446E+03  0.00000000000E+00 0. -1.
          1    1    1    2  502    0 -0.29358832653E+02  0.74894667422E+01  0.84332271100E+03  0.84386683076E+03  0.00000000000E+00 0. -1.
         22    1    3    3    0    0  0.28372531749E+02  0.15619727695E+02  0.80320518760E+03  0.80385791645E+03  0.00000000000E+00 0. -1.
         22    1    3    3    0    0  0.27501493149E+02 -0.55628946788E+02  0.19909814887E+03  0.20854492257E+03  0.00000000000E+00 0. -1.
</event>
<event>
 7    1  0.6999029E-005  0.9041004E+02  0.7818608E-02  0.1455363E+00
          2   -1    0    0  502    0  0.00000000000E+00  0.00000000000E+00  0.10980999095E+04  0.10980999095E+04  0.00000000000E+00 0. -1.
          1   -1    0    0  501    0 -0.00000000000E+00 -0.00000000000E+00 -0.26552590360E+03  0.26552590360E+03  0.00000000000E+00 0. -1.
         25    2    1    2    0    0 -0.92884062394E+02 -0.67292490830E+02  0.21962089106E+03  0.27751473152E+03  0.12500144820E+03 0.  0.
          2    1    1    2  501    0  0.69650410665E+02  0.56342391978E+02 -0.22789491412E+03  0.24487085723E+03  0.00000000000E+00 0. -1.
          1    1    1    2  502    0  0.23233651730E+02  0.10950098851E+02  0.84084802901E+03  0.84124022438E+03  0.00000000000E+00 0. -1.
         22    1    3    3    0    0  0.24050390824E+02 -0.26392736906E+02  0.96340807208E+02  0.10274506798E+03  0.00000000000E+00 0. -1.
         22    1    3    3    0    0 -0.11693445322E+03 -0.40899753924E+02  0.12328008385E+03  0.17476966354E+03  0.00000000000E+00 0. -1.
</event>
<event>
 7    1  0.6999029E-005  0.3371801E+03  0.7818608E-02  0.1292572E+00
          2   -1    0    0  502    0  0.00000000000E+00  0.00000000000E+00  0.84781284498E+03  0.84781284498E+03  0.00000000000E+00 0. -1.
          1   -1    0    0  501    0 -0.00000000000E+00 -0.00000000000E+00 -0.23264835059E+04  0.23264835059E+04  0.00000000000E+00 0. -1.
         25    2    1    2    0    0 -0.33476979444E+03 -0.25269939280E+02  0.51477688907E+02  0.36191934578E+03  0.12500510107E+03 0.  0.
          2    1    1    2  501    0  0.33335614042E+03  0.51651621083E+02 -0.21578808346E+04  0.21840888037E+04  0.00000000000E+00 0. -1.
          1    1    1    2  502    0  0.14136540157E+01 -0.26381681803E+02  0.62773248476E+03  0.62828820136E+03  0.00000000000E+00 0. -1.
         22    1    3    3    0    0 -0.58549543413E+02 -0.54014541548E+02  0.10506357412E+01  0.79666326437E+02  0.00000000000E+00 0.  1.
         22    1    3    3    0    0 -0.27622025103E+03  0.28744602269E+02  0.50427053166E+02  0.28225301934E+03  0.00000000000E+00 0.  1.
</event>
<event>
 7    1  0.6999029E-005  0.2691730E+03  0.7818608E-02  0.1178767E+00
          2   -1    0    0  502    0  0.00000000000E+00  0.00000000000E+00  0.16568619772E+04  0.16568619772E+04  0.00000000000E+00 0. -1.
          1   -1    0    0  501    0 -0.00000000000E+00 -0.00000000000E+00 -0.37861229065E+03  0.37861229065E+03  0.00000000000E+00 0. -1.
         25    2    1    2    0    0  0.21723015723E+03  0.56440871344E+02 -0.74165941182E+02  0.26739710980E+03  0.12500445723E+03 0.  0.
          2    1    1    2  501    0 -0.32095040741E+03 -0.79530601341E+02 -0.73071513423E+02  0.33863509363E+03  0.00000000000E+00 0. -1.
          1    1    1    2  502    0  0.10372025017E+03  0.23089729996E+02  0.14254871411E+04  0.14294420644E+04  0.00000000000E+00 0. -1.
         22    1    3    3    0    0  0.88269955188E+02  0.84507800836E+02 -0.55095708070E+02  0.13404734402E+03  0.00000000000E+00 0. -1.
         22    1    3    3    0    0  0.12896020205E+03 -0.28066929492E+02 -0.19070233112E+02  0.13334976578E+03  0.00000000000E+00 0. -1.
</event>
<event>
 7    1  0.6999029E-005  0.1234462E+03  0.7818608E-02  0.1341625E+00
          2   -1    0    0  502    0  0.00000000000E+00  0.00000000000E+00  0.29040394105E+03  0.29040394105E+03  0.00000000000E+00 0. -1.
          1   -1    0    0  501    0 -0.00000000000E+00 -0.00000000000E+00 -0.10312328628E+04  0.10312328628E+04  0.00000000000E+00 0. -1.
         25    2    1    2    0    0  0.20626726768E+02  0.80030316376E+02 -0.39349748791E+03  0.42106468931E+03  0.12499954479E+03 0.  0.
          2    1    1    2  501    0  0.32837156019E+02  0.32863953707E+02 -0.60891976869E+03  0.61068944887E+03  0.00000000000E+00 0. -1.
          1    1    1    2  502    0 -0.53463882787E+02 -0.11289427008E+03  0.26158833480E+03  0.28988266572E+03  0.00000000000E+00 0. -1.
         22    1    3    3    0    0  0.18498744462E+02  0.78855668578E+02 -0.10525536578E+03  0.13281231885E+03  0.00000000000E+00 0.  1.
         22    1    3    3    0    0  0.21279823067E+01  0.11746477980E+01 -0.28824212213E+03  0.28825237046E+03  0.00000000000E+00 0.  1.
</event>
<event>
 7    1  0.6999029E-005  0.8071840E+02  0.7818608E-02  0.1388213E+00
          2   -1    0    0  502    0  0.00000000000E+00  0.00000000000E+00  0.25073310175E+04  0.25073310175E+04  0.00000000000E+00 0. -1.
          1   -1    0    0  501    0 -0.00000000000E+00 -0.00000000000E+00 -0.11549370343E+03  0.11549370343E+03  0.00000000000E+00 0. -1.
         25    2    1    2    0    0 -0.22990474366E+02 -0.11566675606E+03  0.91659655006E+02  0.19476314972E+03  0.12499532697E+03 0.  0.
          2    1    1    2  501    0 -0.32566265595E+01  0.75279644234E+02 -0.41409590142E+02  0.85978977711E+02  0.00000000000E+00 0. -1.
          1    1    1    2  502    0  0.26247100926E+02  0.40387111822E+02  0.23415872492E+04  0.23420825935E+04  0.00000000000E+00 0. -1.
         22    1    3    3    0    0  0.41680646057E+02 -0.59570372545E+02  0.48888826380E+01  0.72868420556E+02  0.00000000000E+00 0. -1.
         22    1    3    3    0    0 -0.64671120424E+02 -0.56096383511E+02  0.86770772368E+02  0.12189472916E+03  0.00000000000E+00 0. -1.
</event>
<event>
 7    1  0.6999029E-005  0.2045377E+03  0.7818608E-02  0.1223573E+00
          2   -1    0    0  502    0  0.00000000000E+00  0.00000000000E+00  0.61212043283E+03  0.61212043283E+03  0.00000000000E+00 0. -1.
          1   -1    0    0  501    0 -0.00000000000E+00 -0.00000000000E+00 -0.11422626933E+04  0.11422626933E+04  0.00000000000E+00 0. -1.
         25    2    1    2    0    0  0.82624394512E+02 -0.13524792626E+03 -0.48105311181E+03  0.52168555352E+03  0.12499971294E+03 0.  0.
          2    1    1    2  501    0  0.84849678632E+02  0.14207391179E+02 -0.61979382071E+03  0.62573612499E+03  0.00000000000E+00 0. -1.
          1    1    1    2  502    0 -0.16747407314E+03  0.12104053508E+03  0.57070467201E+03  0.60696144767E+03  0.00000000000E+00 0. -1.
         22    1    3    3    0    0  0.50679838594E+02 -0.49347092313E+02 -0.37458225044E+03  0.38120262841E+03  0.00000000000E+00 0. -1.
         22    1    3    3    0    0  0.31944555917E+02 -0.85900833945E+02 -0.10647086137E+03  0.14048292511E+03  0.00000000000E+00 0. -1.
</event>
<event>
 7    1  0.6999029E-005  0.1151729E+03  0.7818608E-02  0.1258134E+00
          2   -1    0    0  502    0  0.00000000000E+00  0.00000000000E+00  0.17607136428E+04  0.17607136428E+04  0.00000000000E+00 0. -1.
          1   -1    0    0  501    0 -0.00000000000E+00 -0.00000000000E+00 -0.80527844957E+02  0.80527844957E+02  0.00000000000E+00 0. -1.
         25    2    1    2    0    0  0.12238905346E+03 -0.12594308289E+03  0.45851880744E+03  0.50666083653E+03  0.12499986388E+03 0.  0.
          2    1    1    2  501    0 -0.15934040177E+02  0.11023709083E+03  0.32593414726E+01  0.11143039593E+03  0.00000000000E+00 0. -1.
          1    1    1    2  502    0 -0.10645501328E+03  0.15705992067E+02  0.12184076489E+04  0.12231502553E+04  0.00000000000E+00 0. -1.
         22    1    3    3    0    0  0.14728415834E+03 -0.97470164895E+02  0.35635662187E+03  0.39772238847E+03  0.00000000000E+00 0. -1.
         22    1    3    3    0    0 -0.24895104880E+02 -0.28472917998E+02  0.10216218557E+03  0.10893844806E+03  0.00000000000E+00 0. -1.
</event>
<event>
 7    1  0.6999029E-005  0.7161929E+03  0.7818608E-02  0.1157083E+00
          2   -1    0    0  502    0  0.00000000000E+00  0.00000000000E+00  0.34542639518E+04  0.34542639518E+04  0.00000000000E+00 0. -1.
          1   -1    0    0  501    0 -0.00000000000E+00 -0.00000000000E+00 -0.18601240833E+04  0.18601240833E+04  0.00000000000E+00 0. -1.
         25    2    1    2    0    0  0.38146756829E+03  0.65298814658E+03  0.41444653946E+03  0.87137847450E+03  0.12499394594E+03 0.  0.
          2    1    1    2  501    0 -0.37937936543E+03 -0.60180669484E+03 -0.15538629420E+04  0.17089733887E+04  0.00000000000E+00 0. -1.
          1    1    1    2  502    0 -0.20882028573E+01 -0.51181451745E+02  0.27335562711E+04  0.27340361719E+04  0.00000000000E+00 0. -1.
         22    1    3    3    0    0  0.73631918019E+02  0.20817090376E+03  0.16521482650E+03  0.27577658243E+03  0.00000000000E+00 0. -1.
         22    1    3    3    0    0  0.30783565027E+03  0.44481724282E+03  0.24923171296E+03  0.59560189207E+03  0.00000000000E+00 0. -1.
</event>
<event>
 7    1  0.6999029E-005  0.7812080E+03  0.7818608E-02  0.1179107E+00
          2   -1    0    0  502    0  0.00000000000E+00  0.00000000000E+00  0.10459690791E+04  0.10459690791E+04  0.00000000000E+00 0. -1.
          1   -1    0    0  501    0 -0.00000000000E+00 -0.00000000000E+00 -0.22373749704E+04  0.22373749704E+04  0.00000000000E+00 0. -1.
         25    2    1    2    0    0  0.77944806170E+03 -0.10182975706E+03  0.17083318028E+03  0.81407305036E+03  0.12498950163E+03 0.  0.
          2    1    1    2  501    0 -0.47794779201E+01  0.36158190497E+02 -0.16424595877E+04  0.16428644969E+04  0.00000000000E+00 0. -1.
          1    1    1    2  502    0 -0.77466858378E+03  0.65671566567E+02  0.28022051607E+03  0.82640650226E+03  0.00000000000E+00 0. -1.
         22    1    3    3    0    0  0.78018345734E+03 -0.99952694189E+02  0.15950897074E+03  0.80257079434E+03  0.00000000000E+00 0. -1.
         22    1    3    3    0    0 -0.73539563335E+00 -0.18770628745E+01  0.11324209543E+02  0.11502256020E+02  0.00000000000E+00 0. -1.
</event>
<event>
 7    1  0.6999029E-005  0.1715911E+03  0.7818608E-02  0.1211308E+00
          2   -1    0    0  502    0  0.00000000000E+00  0.00000000000E+00  0.33412501584E+03  0.33412501584E+03  0.00000000000E+00 0. -1.
          1   -1    0    0  501    0 -0.00000000000E+00 -0.00000000000E+00 -0.14659208619E+04  0.14659208619E+04  0.00000000000E+00 0. -1.
         25    2    1    2    0    0 -0.24059728011E+03  0.13414021117E+03 -0.12049036872E+03  0.32561237868E+03  0.12499937897E+03 0.  0.
          2    1    1    2  501    0  0.10149087147E+03 -0.57620375128E+02 -0.12125217207E+04  0.12181253744E+04  0.00000000000E+00 0. -1.
          1    1    1    2  502    0  0.13910640865E+03 -0.76519836045E+02  0.20121624328E+03  0.25630812472E+03  0.00000000000E+00 0. -1.
         22    1    3    3    0    0 -0.18550456787E+03  0.54348443304E+02 -0.12210024811E+03  0.22863544908E+03  0.00000000000E+00 0.  1.
         22    1    3    3    0    0 -0.55092712247E+02  0.79791767870E+02  0.16098793888E+01  0.96976929598E+02  0.00000000000E+00 0.  1.
</event>
<event>
 7    1  0.6999029E-005  0.2081035E+03  0.7818608E-02  0.1235019E+00
          2   -1    0    0  502    0  0.00000000000E+00  0.00000000000E+00  0.68688610600E+03  0.68688610600E+03  0.00000000000E+00 0. -1.
          1   -1    0    0  501    0 -0.00000000000E+00 -0.00000000000E+00 -0.35806678336E+03  0.35806678336E+03  0.00000000000E+00 0. -1.
         25    2    1    2    0    0 -0.26783796478E+03 -0.39699386439E+01 -0.31328959053E+02  0.29725157040E+03  0.12499622650E+03 0.  0.
          2    1    1    2  501    0  0.69023088651E+02 -0.29648127381E+02 -0.16710147822E+03  0.18321054077E+03  0.00000000000E+00 0. -1.
          1    1    1    2  502    0  0.19881487613E+03  0.33618066025E+02  0.52724975991E+03  0.56449077819E+03  0.00000000000E+00 0. -1.
         22    1    3    3    0    0 -0.79793953153E+02 -0.58649013449E+02 -0.65487201468E+00  0.99031361677E+02  0.00000000000E+00 0.  1.
         22    1    3    3    0    0 -0.18804401163E+03  0.54679074805E+02 -0.30674087038E+02  0.19822020872E+03  0.00000000000E+00 0.  1.
</event>
<event>
 7    1  0.6999029E-005  0.2811199E+03  0.7818608E-02  0.1285846E+00
          2   -1    0    0  502    0  0.00000000000E+00  0.00000000000E+00  0.90998839789E+03  0.90998839789E+03  0.00000000000E+00 0. -1.
          1   -1    0    0  501    0 -0.00000000000E+00 -0.00000000000E+00 -0.25911149175E+03  0.25911149175E+03  0.00000000000E+00 0. -1.
         25    2    1    2    0    0  0.14561459125E+03 -0.21865549992E+03  0.31806271678E+03  0.43104747559E+03  0.12499679027E+03 0.  0.
          2    1    1    2  501    0  0.27541763085E+02 -0.19508397188E+02 -0.16024423012E+03  0.16376000599E+03  0.00000000000E+00 0. -1.
          1    1    1    2  502    0 -0.17315635434E+03  0.23816389711E+03  0.49305841948E+03  0.57429240806E+03  0.00000000000E+00 0. -1.
         22    1    3    3    0    0  0.86407619145E+02 -0.15167961070E+03  0.28792496561E+03  0.33671021186E+03  0.00000000000E+00 0. -1.
         22    1    3    3    0    0  0.59206972108E+02 -0.66975889221E+02  0.30137751169E+02  0.94337263734E+02  0.00000000000E+00 0. -1.
</event>
<event>
 7    1  0.6999029E-005  0.2300709E+03  0.7818608E-02  0.1131977E+00
          2   -1    0    0  502    0  0.00000000000E+00  0.00000000000E+00  0.16479692897E+04  0.16479692897E+04  0.00000000000E+00 0. -1.
          1   -1    0    0  501    0 -0.00000000000E+00 -0.00000000000E+00 -0.10592952646E+04  0.10592952646E+04  0.00000000000E+00 0. -1.
         25    2    1    2    0    0  0.22576790564E+03  0.36361290391E+03  0.74105923329E+02  0.45199795578E+03  0.12499989219E+03 0.  0.
          2    1    1    2  501    0 -0.75124885894E+02 -0.20179502453E+03 -0.84798367661E+03  0.87489502011E+03  0.00000000000E+00 0. -1.
          1    1    1    2  502    0 -0.15064301975E+03 -0.16181787938E+03  0.13625517784E+04  0.13803715784E+04  0.00000000000E+00 0. -1.
         22    1    3    3    0    0 -0.11156513329E+02  0.12941026124E+01 -0.43411459707E+01  0.12041097939E+02  0.00000000000E+00 0.  1.
         22    1    3    3    0    0  0.23692441897E+03  0.36231880130E+03  0.78447069299E+02  0.43995685784E+03  0.00000000000E+00 0.  1.
</event>
<event>
 7    1  0.6999029E-005  0.2367483E+03  0.7818608E-02  0.1163898E+00
          2   -1    0    0  502    0  0.00000000000E+00  0.00000000000E+00  0.64619878562E+03  0.64619878562E+03  0.00000000000E+00 0. -1.
          1   -1    0    0  501    0 -0.00000000000E+00 -0.00000000000E+00 -0.52133265681E+03  0.52133265681E+03  0.00000000000E+00 0. -1.
         25    2    1    2    0    0 -0.74775223581E+01  0.28053244224E+03  0.23561526386E+03  0.38716817957E+03  0.12502112708E+03 0.  0.
          2    1    1    2  501    0 -0.11240740908E+03 -0.88639880774E+02 -0.39320726422E+03  0.41845478455E+03  0.00000000000E+00 0. -1.
          1    1    1    2  502    0  0.11988493144E+03 -0.19189256147E+03  0.28245812917E+03  0.36190847830E+03  0.00000000000E+00 0. -1.
         22    1    3    3    0    0 -0.19303851945E+02  0.14765959222E+03  0.47019263439E+02  0.15616275167E+03  0.00000000000E+00 0.  1.
         22    1    3    3    0    0  0.11826329587E+02  0.13287285002E+03  0.18859600042E+03  0.23100542790E+03  0.00000000000E+00 0.  1.
</event>
<event>
 7    1  0.6999029E-005  0.1168982E+03  0.7818608E-02  0.1318414E+00
          2   -1    0    0  502    0  0.00000000000E+00  0.00000000000E+00  0.84335889707E+03  0.84335889707E+03  0.00000000000E+00 0. -1.
          1   -1    0    0  501    0 -0.00000000000E+00 -0.00000000000E+00 -0.55231365686E+02  0.55231365686E+02  0.00000000000E+00 0. -1.
         25    2    1    2    0    0 -0.85987648694E+02 -0.13510673778E+03  0.41819914163E+03  0.46493185585E+03  0.12499360862E+03 0.  0.
          2    1    1    2  501    0  0.76712658915E+02  0.75652217299E+02  0.71695071333E+02  0.12941511996E+03  0.00000000000E+00 0. -1.
          1    1    1    2  502    0  0.92749897791E+01  0.59454520483E+02  0.29823331842E+03  0.30424328695E+03  0.00000000000E+00 0. -1.
         22    1    3    3    0    0 -0.18290006056E+02 -0.34034143220E+02  0.11327615692E+02  0.40263657354E+02  0.00000000000E+00 0.  1.
         22    1    3    3    0    0 -0.67697642638E+02 -0.10107259456E+03  0.40687152594E+03  0.42466819849E+03  0.00000000000E+00 0.  1.
</event>
<event>
 7    1  0.6999029E-005  0.7758620E+02  0.7818608E-02  0.1343561E+00
          2   -1    0    0  502    0  0.00000000000E+00  0.00000000000E+00  0.43773017302E+03  0.43773017302E+03  0.00000000000E+00 0. -1.
          1   -1    0    0  501    0 -0.00000000000E+00 -0.00000000000E+00 -0.18538114255E+03  0.18538114255E+03  0.00000000000E+00 0. -1.
         25    2    1    2    0    0  0.35302574777E+02 -0.90070523942E+02 -0.10850555024E+03  0.19172061832E+03  0.12499747992E+03 0.  0.
          2    1    1    2  501    0  0.32913066375E+02  0.64951158317E+02  0.10492027842E+02  0.73566334374E+02  0.00000000000E+00 0. -1.
          1    1    1    2  502    0 -0.68215641152E+02  0.25119365625E+02  0.35036255286E+03  0.35782436289E+03  0.00000000000E+00 0. -1.
         22    1    3    3    0    0  0.58604804963E+02 -0.57993302001E+02 -0.69980940937E+01  0.82744906566E+02  0.00000000000E+00 0.  1.
         22    1    3    3    0    0 -0.23302230186E+02 -0.32077221941E+02 -0.10150745614E+03  0.10897571175E+03  0.00000000000E+00 0.  1.
</event>
<event>
 7    1  0.6999029E-005  0.1903801E+03  0.7818608E-02  0.1310004E+00
          2   -1    0    0  502    0  0.00000000000E+00  0.00000000000E+00  0.35805902316E+02  0.35805902316E+02  0.00000000000E+00 0. -1.
          1   -1    0    0  501    0 -0.00000000000E+00 -0.00000000000E+00 -0.25223002763E+04  0.25223002763E+04  0.00000000000E+00 0. -1.
         25    2    1    2    0    0 -0.19254376352E+03 -0.32240560288E+02 -0.14186803310E+04  0.14374946889E+04  0.12499817706E+03 0.  0.
          2    1    1    2  501    0  0.18787244344E+03 -0.73428855048E+01 -0.10640978500E+04  0.10805804955E+04  0.00000000000E+00 0. -1.
          1    1    1    2  502    0  0.46713200809E+01  0.39583445793E+02 -0.37161930219E+01  0.40030994276E+02  0.00000000000E+00 0. -1.
         22    1    3    3    0    0 -0.17826826208E+03 -0.45304207328E+02 -0.13942441959E+04  0.14063246148E+04  0.00000000000E+00 0.  1.
         22    1    3    3    0    0 -0.14275501440E+02  0.13063647040E+02 -0.24436135117E+02  0.31170074026E+02  0.00000000000E+00 0.  1.
</event>
<event>
 7    1  0.6999029E-005  0.2833627E+03  0.7818608E-02  0.1216931E+00
          2   -1    0    0  502    0  0.00000000000E+00  0.00000000000E+00  0.59591900678E+03  0.59591900678E+03  0.00000000000E+00 0. -1.
          1   -1    0    0  501    0 -0.00000000000E+00 -0.00000000000E+00 -0.99373748011E+03  0.99373748011E+03  0.00000000000E+00 0. -1.
         25    2    1    2    0    0  0.21591673952E+02  0.32347465269E+03  0.72252934487E+02  0.35489016241E+03  0.12499795807E+03 0.  0.
          2    1    1    2  501    0  0.27104556875E+02 -0.27806758270E+03 -0.82635923135E+03  0.87231061945E+03  0.00000000000E+00 0. -1.
          1    1    1    2  502    0 -0.48696230827E+02 -0.45407069987E+02  0.35628782354E+03  0.36245570502E+03  0.00000000000E+00 0. -1.
         22    1    3    3    0    0  0.53389488730E+02  0.30704672513E+03  0.63887790210E+02  0.31813484352E+03  0.00000000000E+00 0. -1.
         22    1    3    3    0    0 -0.31797814778E+02  0.16427927554E+02  0.83651442774E+01  0.36755318896E+02  0.00000000000E+00 0. -1.
</event>
<event>
 7    1  0.6999029E-005  0.2652629E+03  0.7818608E-02  0.1139423E+00
          2   -1    0    0  502    0  0.00000000000E+00  0.00000000000E+00  0.10592799588E+04  0.10592799588E+04  0.00000000000E+00 0. -1.
          1   -1    0    0  501    0 -0.00000000000E+00 -0.00000000000E+00 -0.14301226974E+04  0.14301226974E+04  0.00000000000E+00 0. -1.
         25    2    1    2    0    0  0.10855196887E+03  0.37799198469E+03 -0.15208610076E+03  0.43978992734E+03  0.12499411067E+03 0.  0.
          2    1    1    2  501    0 -0.12145869670E+03 -0.11979864799E+03 -0.11092817622E+04  0.11223234645E+04  0.00000000000E+00 0. -1.
          1    1    1    2  502    0  0.12906727828E+02 -0.25819333670E+03  0.89052512438E+03  0.92728926442E+03  0.00000000000E+00 0. -1.
         22    1    3    3    0    0  0.24162125002E+02  0.73833096690E+02  0.20082350257E+02  0.80239860688E+02  0.00000000000E+00 0.  1.
         22    1    3    3    0    0  0.84389843867E+02  0.30415888800E+03 -0.17216845102E+03  0.35955006665E+03  0.00000000000E+00 0.  1.
</event>
<event>
 7    1  0.6999029E-005  0.3514574E+03  0.7818608E-02  0.1181939E+00
          2   -1    0    0  502    0  0.00000000000E+00  0.00000000000E+00  0.95670530527E+03  0.95670530527E+03  0.00000000000E+00 0. -1.
          1   -1    0    0  501    0 -0.00000000000E+00 -0.00000000000E+00 -0.81533956930E+03  0.81533956930E+03  0.00000000000E+00 0. -1.
         25    2    1    2    0    0  0.22677022490E+03 -0.30451215827E+03 -0.44410573726E+03  0.59750102458E+03  0.12500071629E+03 0.  0.
          2    1    1    2  501    0 -0.15114869605E+03  0.28332654791E+03 -0.20447936164E+03  0.38069892357E+03  0.00000000000E+00 0. -1.
          1    1    1    2  502    0 -0.75621528845E+02  0.21185610364E+02  0.78995083487E+03  0.79384492643E+03  0.00000000000E+00 0. -1.
         22    1    3    3    0    0  0.52572277151E+02 -0.15848316670E+03 -0.14044573318E+03  0.21818744789E+03  0.00000000000E+00 0.  1.
         22    1    3    3    0    0  0.17419794775E+03 -0.14602899158E+03 -0.30366000408E+03  0.37931357669E+03  0.00000000000E+00 0.  1.
</event>
<event>
 7    1  0.6999029E-005  0.9742363E+02  0.7818608E-02  0.1298874E+00
          2   -1    0    0  502    0  0.00000000000E+00  0.00000000000E+00  0.14095672344E+04  0.14095672344E+04  0.00000000000E+00 0. -1.
          1   -1    0    0  501    0 -0.00000000000E+00 -0.00000000000E+00 -0.35938303271E+02  0.35938303271E+02  0.00000000000E+00 0. -1.
         25    2    1    2    0    0 -0.14140291483E+03  0.99712490268E+02  0.78723850620E+03  0.81566333325E+03  0.12499937013E+03 0.  0.
          2    1    1    2  501    0  0.75698335367E+02 -0.43849048021E+02  0.88143455327E+02  0.12418633462E+03  0.00000000000E+00 0. -1.
          1    1    1    2  502    0  0.65704579462E+02 -0.55863442247E+02  0.49824696959E+03  0.50565586979E+03  0.00000000000E+00 0. -1.
         22    1    3    3    0    0 -0.52825175471E+02  0.10002193351E+03  0.30375538080E+03  0.32413302472E+03  0.00000000000E+00 0.  1.
         22    1    3    3    0    0 -0.88577739358E+02 -0.30944324088E+00  0.48348312539E+03  0.49153030853E+03  0.00000000000E+00 0.  1.
</event>
<event>
 7    1  0.6999029E-005  0.5456951E+03  0.7818608E-02  0.1043344E+00
          2   -1    0    0  502    0  0.00000000000E+00  0.00000000000E+00  0.12165389376E+04  0.12165389376E+04  0.00000000000E+00 0. -1.
          1   -1    0    0  501    0 -0.00000000000E+00 -0.00000000000E+00 -0.13272727412E+04  0.13272727412E+04  0.00000000000E+00 0. -1.
         25    2    1    2    0    0  0.13732734298E+03  0.66109370475E+03 -0.59982484325E+03  0.91176748541E+03  0.12500567701E+03 0.  0.
          2    1    1    2  501    0 -0.26625915196E+03 -0.39570053414E+03 -0.44509729099E+03  0.65236833703E+03  0.00000000000E+00 0. -1.
          1    1    1    2  502    0  0.12893180898E+03 -0.26539317061E+03  0.93418833065E+03  0.97967585634E+03  0.00000000000E+00 0. -1.
         22    1    3    3    0    0  0.10013486171E+03  0.30726285811E+03 -0.21768412786E+03  0.38964578020E+03  0.00000000000E+00 0. -1.
         22    1    3    3    0    0  0.37192481269E+02  0.35383084664E+03 -0.38214071539E+03  0.52212170521E+03  0.00000000000E+00 0. -1.
</event>
<event>
 7    1  0.6999029E-005  0.2346786E+03  0.7818608E-02  0.1220133E+00
          2   -1    0    0  502    0  0.00000000000E+00  0.00000000000E+00  0.42843210437E+03  0.42843210437E+03  0.00000000000E+00 0. -1.
          1   -1    0    0  501    0 -0.00000000000E+00 -0.00000000000E+00 -0.45278379544E+03  0.45278379544E+03  0.00000000000E+00 0. -1.
         25    2    1    2    0    0 -0.20997560081E+03  0.57477707060E+02 -0.17552095822E+03  0.30631013604E+03  0.12499941169E+03 0.  0.
          2    1    1    2  501    0  0.22404795131E+03 -0.13392304858E+03 -0.12399253801E+03  0.28897580679E+03  0.00000000000E+00 0. -1.
          1    1    1    2  502    0 -0.14072350498E+02  0.76445341522E+02  0.27516180515E+03  0.28592995698E+03  0.00000000000E+00 0. -1.
         22    1    3    3    0    0 -0.86495561971E+02 -0.38200929599E+02 -0.73089882909E+02  0.11951118879E+03  0.00000000000E+00 0.  1.
         22    1    3    3    0    0 -0.12348003884E+03  0.95678636658E+02 -0.10243107531E+03  0.18679894725E+03  0.00000000000E+00 0.  1.
</event>
<event>
 7    1  0.6999029E-005  0.1386648E+03  0.7818608E-02  0.1346267E+00
          2   -1    0    0  502    0  0.00000000000E+00  0.00000000000E+00  0.11061336426E+03  0.11061336426E+03  0.00000000000E+00 0. -1.
          1   -1    0    0  501    0 -0.00000000000E+00 -0.00000000000E+00 -0.42261034945E+04  0.42261034945E+04  0.00000000000E+00 0. -1.
         25    2    1    2    0    0  0.97709681897E+02  0.43152624821E+02 -0.18212120496E+04  0.18286192831E+04  0.12500328770E+03 0.  0.
          2    1    1    2  501    0  0.17331738784E+02  0.35759774550E+02 -0.23554391419E+04  0.23557743316E+04  0.00000000000E+00 0. -1.
          1    1    1    2  502    0 -0.11504142068E+03 -0.78912399371E+02  0.61161061246E+02  0.15232324399E+03  0.00000000000E+00 0. -1.
         22    1    3    3    0    0  0.44406164907E+02  0.57317417576E+02 -0.15582290528E+04  0.15599150538E+04  0.00000000000E+00 0. -1.
         22    1    3    3    0    0  0.53303516990E+02 -0.14164792755E+02 -0.26298299680E+03  0.26870422937E+03  0.00000000000E+00 0. -1.
</event>
<event>
 7    1  0.6999029E-005  0.1410133E+03  0.7818608E-02  0.1224052E+00
          2   -1    0    0  502    0  0.00000000000E+00  0.00000000000E+00  0.24960801501E+03  0.24960801501E+03  0.00000000000E+00 0. -1.
          1   -1    0    0  501    0 -0.00000000000E+00 -0.00000000000E+00 -0.14640774632E+04  0.14640774632E+04  0.00000000000E+00 0. -1.
         25    2    1    2    0    0  0.24907114555E+02 -0.24533433888E+03 -0.14742354956E+03  0.31331962738E+03  0.12500473489E+03 0.  0.
          2    1    1    2  501    0 -0.42432724296E+02  0.11668927854E+03 -0.12047354655E+04  0.12111170322E+04  0.00000000000E+00 0. -1.
          1    1    1    2  502    0  0.17525609741E+02  0.12864506035E+03  0.13768956685E+03  0.18924881867E+03  0.00000000000E+00 0. -1.
         22    1    3    3    0    0  0.65910634485E+01 -0.12920478730E+02  0.21134659953E+02  0.25633079005E+02  0.00000000000E+00 0. -1.
         22    1    3    3    0    0  0.18316051106E+02 -0.23241386015E+03 -0.16855820952E+03  0.28768654837E+03  0.00000000000E+00 0. -1.
</event>
<event>
 7    1  0.6999029E-005  0.4999688E+03  0.7818608E-02  0.1024565E+00
          2   -1    0    0  502    0  0.00000000000E+00  0.00000000000E+00  0.14656581991E+04  0.14656581991E+04  0.00000000000E+00 0. -1.
          1   -1    0    0  501    0 -0.00000000000E+00 -0.00000000000E+00 -0.19573223255E+04  0.19573223255E+04  0.00000000000E+00 0. -1.
         25    2    1    2    0    0  0.16378501766E+03 -0.68283524811E+03 -0.26881158222E+03  0.76221639260E+03  0.12499861740E+03 0.  0.
          2    1    1    2  501    0  0.18885082985E+03  0.44633481885E+03 -0.13616813698E+04  0.14453565509E+04  0.00000000000E+00 0. -1.
          1    1    1    2  502    0 -0.35263584751E+03  0.23650042926E+03  0.11388288257E+04  0.12154075811E+04  0.00000000000E+00 0. -1.
         22    1    3    3    0    0  0.10266677765E+03 -0.28045417668E+03 -0.59398227443E+02  0.30450478137E+03  0.00000000000E+00 0.  1.
         22    1    3    3    0    0  0.61118240010E+02 -0.40238107142E+03 -0.20941335477E+03  0.45771161124E+03  0.00000000000E+00 0.  1.
</event>
<event>
 7    1  0.6999029E-005  0.1160401E+04  0.7818608E-02  0.1071678E+00
          2   -1    0    0  502    0  0.00000000000E+00  0.00000000000E+00  0.28076722919E+04  0.28076722919E+04  0.00000000000E+00 0. -1.
          1   -1    0    0  501    0 -0.00000000000E+00 -0.00000000000E+00 -0.55847065438E+04  0.55847065438E+04  0.00000000000E+00 0. -1.
         25    2    1    2    0    0 -0.11381116576E+04  0.10296508186E+03  0.18766204684E+04  0.22007337607E+04  0.12499899886E+03 0.  0.
          2    1    1    2  501    0 -0.74701361600E+02 -0.55654801760E+02 -0.49430159542E+04  0.49438936552E+04  0.00000000000E+00 0. -1.
          1    1    1    2  502    0  0.12128130192E+04 -0.47310280103E+02  0.28936123390E+03  0.12477514199E+04  0.00000000000E+00 0. -1.
         22    1    3    3    0    0 -0.32320036363E+03 -0.86017543760E+01  0.45220544432E+03  0.55589767862E+03  0.00000000000E+00 0. -1.
         22    1    3    3    0    0 -0.81491129394E+03  0.11156683624E+03  0.14244150241E+04  0.16448360821E+04  0.00000000000E+00 0. -1.
</event>
<event>
 7    1  0.6999029E-005  0.1322118E+03  0.7818608E-02  0.1330563E+00
          2   -1    0    0  502    0  0.00000000000E+00  0.00000000000E+00  0.19523817492E+03  0.19523817492E+03  0.00000000000E+00 0. -1.
          1   -1    0    0  501    0 -0.00000000000E+00 -0.00000000000E+00 -0.61565388173E+03  0.61565388173E+03  0.00000000000E+00 0. -1.
         25    2    1    2    0    0 -0.95484375961E+02 -0.13494051334E+03 -0.51792615073E+03  0.55785267898E+03  0.12500362253E+03 0.  0.
          2    1    1    2  501    0  0.45670904812E+02  0.13997368475E+02 -0.40694679120E+02  0.62752010161E+02  0.00000000000E+00 0. -1.
          1    1    1    2  502    0  0.49813471148E+02  0.12094314486E+03  0.13820512304E+03  0.19028736750E+03  0.00000000000E+00 0. -1.
         22    1    3    3    0    0 -0.73046545335E+02 -0.15835640621E+03 -0.42295778855E+03  0.45749955199E+03  0.00000000000E+00 0.  1.
         22    1    3    3    0    0 -0.22437830626E+02  0.23415892878E+02 -0.94968362178E+02  0.10035312699E+03  0.00000000000E+00 0.  1.
</event>
<event>
 7    1  0.6999029E-005  0.1646886E+03  0.7818608E-02  0.1218136E+00
          2   -1    0    0  502    0  0.00000000000E+00  0.00000000000E+00  0.16629973788E+04  0.16629973788E+04  0.00000000000E+00 0. -1.
          1   -1    0    0  501    0 -0.00000000000E+00 -0.00000000000E+00 -0.38546173894E+03  0.38546173894E+03  0.00000000000E+00 0. -1.
         25    2    1    2    0    0 -0.10391193549E+03 -0.13764282781E+03  0.12658827034E+03  0.24776631420E+03  0.12498127012E+03 0.  0.
          2    1    1    2  501    0 -0.51338995341E+01  0.16770790784E+03 -0.30086097852E+03  0.34448458263E+03  0.00000000000E+00 0. -1.
          1    1    1    2  502    0  0.10904583503E+03 -0.30065080032E+02  0.14518083481E+04  0.14562082209E+04  0.00000000000E+00 0. -1.
         22    1    3    3    0    0  0.14207699513E+02 -0.30296496842E+02  0.71454675467E+02  0.78901882692E+02  0.00000000000E+00 0.  1.
         22    1    3    3    0    0 -0.11811963501E+03 -0.10734633097E+03  0.55133594871E+02  0.16886443151E+03  0.00000000000E+00 0.  1.
</event>
<event>
 7    1  0.6999029E-005  0.7865045E+03  0.7818608E-02  0.1162053E+00
          2   -1    0    0  502    0  0.00000000000E+00  0.00000000000E+00  0.28122239679E+04  0.28122239679E+04  0.00000000000E+00 0. -1.
          1   -1    0    0  501    0 -0.00000000000E+00 -0.00000000000E+00 -0.10848744560E+04  0.10848744560E+04  0.00000000000E+00 0. -1.
         25    2    1    2    0    0  0.67946255920E+03  0.35054993262E+03  0.23651453272E+04  0.24887935489E+04  0.12500514386E+03 0.  0.
          2    1    1    2  501    0 -0.71678091467E+03 -0.32720107216E+03 -0.86895271917E+03  0.11729937124E+04  0.00000000000E+00 0. -1.
          1    1    1    2  502    0  0.37318355469E+02 -0.23348860460E+02  0.23115690396E+03  0.23531116248E+03  0.00000000000E+00 0. -1.
         22    1    3    3    0    0  0.22835117622E+03  0.79287335413E+02  0.90249812841E+03  0.93430916351E+03  0.00000000000E+00 0.  1.
         22    1    3    3    0    0  0.45111138298E+03  0.27126259721E+03  0.14626471988E+04  0.15544843854E+04  0.00000000000E+00 0.  1.
</event>
<event>
 7    1  0.6999029E-005  0.7959692E+02  0.7818608E-02  0.1368982E+00
          2   -1    0    0  502    0  0.00000000000E+00  0.00000000000E+00  0.25834393003E+03  0.25834393003E+03  0.00000000000E+00 0. -1.
          1   -1    0    0  501    0 -0.00000000000E+00 -0.00000000000E+00 -0.11167484624E+04  0.11167484624E+04  0.00000000000E+00 0. -1.
         25    2    1    2    0    0  0.45471582341E+02  0.12210214957E+03  0.74654901322E+01  0.18071172760E+03  0.12499758085E+03 0.  0.
          2    1    1    2  501    0 -0.29043932755E+02 -0.49229660159E+02 -0.10207910023E+04  0.10223900332E+04  0.00000000000E+00 0. -1.
          1    1    1    2  502    0 -0.16427649586E+02 -0.72872489410E+02  0.15492097983E+03  0.17199063165E+03  0.00000000000E+00 0. -1.
         22    1    3    3    0    0  0.55435024641E+02  0.11941478172E+03  0.47046107906E+02  0.13980796944E+03  0.00000000000E+00 0. -1.
         22    1    3    3    0    0 -0.99634423008E+01  0.26873678543E+01 -0.39580617774E+02  0.40903758163E+02  0.00000000000E+00 0. -1.
</event>
<event>
 7    1  0.6999029E-005  0.5880072E+02  0.7818608E-02  0.1409828E+00
          2   -1    0    0  502    0  0.00000000000E+00  0.00000000000E+00  0.32137630800E+03  0.32137630800E+03  0.00000000000E+00 0. -1.
          1   -1    0    0  501    0 -0.00000000000E+00 -0.00000000000E+00 -0.10023678038E+04  0.10023678038E+04  0.00000000000E+00 0. -1.
         25    2    1    2    0    0 -0.17917095881E+02 -0.89338269778E+02  0.11170223399E+03  0.19079991406E+03  0.12499947742E+03 0.  0.
          2    1    1    2  501    0  0.41068375108E+02  0.37636311607E+02 -0.95727094004E+03  0.95889037749E+03  0.00000000000E+00 0. -1.
          1    1    1    2  502    0 -0.23151279227E+02  0.51701958171E+02  0.16457721026E+03  0.17405382025E+03  0.00000000000E+00 0. -1.
         22    1    3    3    0    0 -0.68606134600E+02 -0.58344549055E+02  0.90608466947E+02  0.12775281755E+03  0.00000000000E+00 0. -1.
         22    1    3    3    0    0  0.50689038719E+02 -0.30993720723E+02  0.21093767046E+02  0.63047096512E+02  0.00000000000E+00 0. -1.
</event>
<event>
 7    1  0.6999029E-005  0.7467111E+03  0.7818608E-02  0.1168827E+00
          2   -1    0    0  502    0  0.00000000000E+00  0.00000000000E+00  0.24143264014E+04  0.24143264014E+04  0.00000000000E+00 0. -1.
          1   -1    0    0  501    0 -0.00000000000E+00 -0.00000000000E+00 -0.13300485530E+04  0.13300485530E+04  0.00000000000E+00 0. -1.
         25    2    1    2    0    0 -0.64374466674E+03 -0.43356387556E+03  0.27646016203E+03  0.83332941563E+03  0.12499145422E+03 0.  0.
          2    1    1    2  501    0  0.62587742588E+03  0.39457975320E+03 -0.92117810283E+03  0.11815180198E+04  0.00000000000E+00 0. -1.
          1    1    1    2  502    0  0.17867240857E+02  0.38984122357E+02  0.17289957892E+04  0.17295275191E+04  0.00000000000E+00 0. -1.
         22    1    3    3    0    0 -0.63389561664E+03 -0.41123672153E+03  0.24673282036E+03  0.79486878072E+03  0.00000000000E+00 0. -1.
         22    1    3    3    0    0 -0.98490501006E+01 -0.22327154030E+02  0.29727341671E+02  0.38460634912E+02  0.00000000000E+00 0. -1.
</event>
<event>
 7    1  0.6999029E-005  0.3800463E+03  0.7818608E-02  0.1237883E+00
          2   -1    0    0  502    0  0.00000000000E+00  0.00000000000E+00  0.44709631325E+03  0.44709631325E+03  0.00000000000E+00 0. -1.
          1   -1    0    0  501    0 -0.00000000000E+00 -0.00000000000E+00 -0.12282430554E+04  0.12282430554E+04  0.00000000000E+00 0. -1.
         25    2    1    2    0    0  0.26748454038E+03 -0.27732319728E+03 -0.67408806264E+03  0.78643222818E+03  0.12499919295E+03 0.  0.
          2    1    1    2  501    0 -0.23140930875E+03  0.29448304050E+03 -0.42614148808E+03  0.56733332106E+03  0.00000000000E+00 0. -1.
          1    1    1    2  502    0 -0.36075231627E+02 -0.17159843222E+02  0.31908280861E+03  0.32157381938E+03  0.00000000000E+00 0. -1.
         22    1    3    3    0    0  0.12657071025E+03 -0.11149320619E+03 -0.18073492186E+03  0.24721648752E+03  0.00000000000E+00 0. -1.
         22    1    3    3    0    0  0.14091383013E+03 -0.16582999109E+03 -0.49335314078E+03  0.53921574067E+03  0.00000000000E+00 0. -1.
</event>
<event>
 7    1  0.6999029E-005  0.2123788E+03  0.7818608E-02  0.1245029E+00
          2   -1    0    0  502    0  0.00000000000E+00  0.00000000000E+00  0.30782322708E+04  0.30782322708E+04  0.00000000000E+00 0. -1.
          1   -1    0    0  501    0 -0.00000000000E+00 -0.00000000000E+00 -0.17296642592E+03  0.17296642592E+03  0.00000000000E+00 0. -1.
         25    2    1    2    0    0  0.40137865542E+02  0.14464135987E+03  0.92771553918E+02  0.21624848610E+03  0.12499870115E+03 0.  0.
          2    1    1    2  501    0  0.23145046982E+02  0.62336957611E+02 -0.96897456130E+02  0.11751896225E+03  0.00000000000E+00 0. -1.
          1    1    1    2  502    0 -0.63282912524E+02 -0.20697831748E+03  0.29093917471E+04  0.29174312484E+04  0.00000000000E+00 0. -1.
         22    1    3    3    0    0  0.58911174113E+02  0.55008580751E+02 -0.68979433130E+01  0.80895315152E+02  0.00000000000E+00 0.  1.
         22    1    3    3    0    0 -0.18773308571E+02  0.89632779122E+02  0.99669497231E+02  0.13535317095E+03  0.00000000000E+00 0.  1.
</event>
<event>
 7    1  0.7779592E-005  0.1819700E+04  0.7818608E-02  0.1123536E+00
          2   -1    0    0  502    0  0.00000000000E+00  0.00000000000E+00  0.22346346518E+04  0.22346346518E+04  0.00000000000E+00 0. -1.
          1   -1    0    0  501    0 -0.00000000000E+00 -0.00000000000E+00 -0.24098922173E+04  0.24098922173E+04  0.00000000000E+00 0. -1.
         25    2    1    2    0    0 -0.72826971114E+03  0.16594967464E+04 -0.38440858701E+03  0.18567989902E+04  0.12500521839E+03 0.  0.
          2    1    1    2  501    0  0.70926059629E+03 -0.16829770455E+04 -0.64212185291E+03  0.19359191107E+04  0.00000000000E+00 0. -1.
          1    1    1    2  502    0  0.19009114850E+02  0.23480299061E+02  0.85127287446E+03  0.85180876826E+03  0.00000000000E+00 0. -1.
         22    1    3    3    0    0 -0.28371052968E+03  0.71672378323E+03 -0.10733677543E+03  0.77827105141E+03  0.00000000000E+00 0.  1.
         22    1    3    3    0    0 -0.44455918146E+03  0.94277296321E+03 -0.27707181158E+03  0.10785279388E+04  0.00000000000E+00 0.  1.
</event>
<event>
 7    1  0.6999029E-005  0.8128808E+02  0.7818608E-02  0.1335903E+00
          2   -1    0    0  502    0  0.00000000000E+00  0.00000000000E+00  0.10897334236E+03  0.10897334236E+03  0.00000000000E+00 0. -1.
          1   -1    0    0  501    0 -0.00000000000E+00 -0.00000000000E+00 -0.20656722900E+04  0.20656722900E+04  0.00000000000E+00 0. -1.
         25    2    1    2    0    0 -0.60741094840E+02 -0.75293893661E+02 -0.92399693523E+03  0.93741875619E+03  0.12499974850E+03 0.  0.
          2    1    1    2  501    0  0.73961334754E+02 -0.52037962846E+01 -0.11172692880E+04  0.11197267616E+04  0.00000000000E+00 0. -1.
          1    1    1    2  502    0 -0.13220239914E+02  0.80497689946E+02  0.84567275629E+02  0.11750011463E+03  0.00000000000E+00 0. -1.
         22    1    3    3    0    0 -0.71472973178E+02 -0.10204343788E+03 -0.82349369807E+03  0.83286440665E+03  0.00000000000E+00 0.  1.
         22    1    3    3    0    0  0.10731878338E+02  0.26749544214E+02 -0.10050323716E+03  0.10455434954E+03  0.00000000000E+00 0.  1.
</event>
<event>
 7    1  0.6999029E-005  0.3198023E+03  0.7818608E-02  0.1202441E+00
          2   -1    0    0  502    0  0.00000000000E+00  0.00000000000E+00  0.99845947854E+03  0.99845947854E+03  0.00000000000E+00 0. -1.
          1   -1    0    0  501    0 -0.00000000000E+00 -0.00000000000E+00 -0.59637601133E+03  0.59637601133E+03  0.00000000000E+00 0. -1.
         25    2    1    2    0    0 -0.35369357308E+03  0.70658603317E+02  0.33885973316E+03  0.51043389894E+03  0.12500025827E+03 0.  0.
          2    1    1    2  501    0  0.53464041377E+02 -0.43416017042E+02 -0.46830092418E+03  0.47333826154E+03  0.00000000000E+00 0. -1.
          1    1    1    2  502    0  0.30022953170E+03 -0.27242586275E+02  0.53152465823E+03  0.61106332939E+03  0.00000000000E+00 0. -1.
         22    1    3    3    0    0 -0.26736748102E+03  0.35966284704E+02  0.17365944698E+03  0.32083725948E+03  0.00000000000E+00 0.  1.
         22    1    3    3    0    0 -0.86326092054E+02  0.34692318613E+02  0.16520028618E+03  0.18959663946E+03  0.00000000000E+00 0.  1.
</event>
<event>
 7    1  0.6999029E-005  0.6244523E+02  0.7818608E-02  0.1391267E+00
          2   -1    0    0  502    0  0.00000000000E+00  0.00000000000E+00  0.65325064814E+03  0.65325064814E+03  0.00000000000E+00 0. -1.
          1   -1    0    0  501    0 -0.00000000000E+00 -0.00000000000E+00 -0.16303215198E+03  0.16303215198E+03  0.00000000000E+00 0. -1.
         25    2    1    2    0    0 -0.43337384441E+02 -0.94840376731E+01  0.36257952146E+03  0.38607353618E+03  0.12498315924E+03 0.  0.
          2    1    1    2  501    0 -0.10886854967E+02  0.61488889334E+02 -0.13942931325E+03  0.15277414872E+03  0.00000000000E+00 0. -1.
          1    1    1    2  502    0  0.54224239407E+02 -0.52004851661E+02  0.26706828795E+03  0.27743511523E+03  0.00000000000E+00 0. -1.
         22    1    3    3    0    0 -0.80016974172E+02  0.23201664132E+02  0.23767389353E+03  0.25185295917E+03  0.00000000000E+00 0. -1.
         22    1    3    3    0    0  0.36679589731E+02 -0.32685701805E+02  0.12490562792E+03  0.13422057701E+03  0.00000000000E+00 0. -1.
</event>
<event>
 7    1  0.6999029E-005  0.1356855E+03  0.7818608E-02  0.1335299E+00
          2   -1    0    0  502    0  0.00000000000E+00  0.00000000000E+00  0.15725563277E+04  0.15725563277E+04  0.00000000000E+00 0. -1.
          1   -1    0    0  501    0 -0.00000000000E+00 -0.00000000000E+00 -0.72375458582E+02  0.72375458582E+02  0.00000000000E+00 0. -1.
         25    2    1    2    0    0 -0.15659933063E+03  0.77966358574E+02  0.14324043067E+03  0.25835162934E+03  0.12500255990E+03 0.  0.
          2    1    1    2  501    0  0.31404113187E+02 -0.31745172580E+02  0.32001358893E+02  0.54936884496E+02  0.00000000000E+00 0. -1.
          1    1    1    2  502    0  0.12519521745E+03 -0.46221185995E+02  0.13249390796E+04  0.13316432725E+04  0.00000000000E+00 0. -1.
         22    1    3    3    0    0  0.65781556057E+01  0.17144207891E+02  0.64808971120E+02  0.67360216248E+02  0.00000000000E+00 0.  1.
         22    1    3    3    0    0 -0.16317748624E+03  0.60822150684E+02  0.78431459546E+02  0.19099141309E+03  0.00000000000E+00 0.  1.
</event>
<event>
 7    1  0.6999029E-005  0.1009852E+03  0.7818608E-02  0.1386785E+00
          2   -1    0    0  502    0  0.00000000000E+00  0.00000000000E+00  0.28877537728E+02  0.28877537728E+02  0.00000000000E+00 0. -1.
          1   -1    0    0  501    0 -0.00000000000E+00 -0.00000000000E+00 -0.17547498035E+04  0.17547498035E+04  0.00000000000E+00 0. -1.
         25    2    1    2    0    0 -0.10809875775E+03 -0.69974142896E+02 -0.54308055630E+03  0.57196430389E+03  0.12499980876E+03 0.  0.
          2    1    1    2  501    0  0.38138409869E+02  0.78895752997E+01 -0.10414280747E+04  0.10421560433E+04  0.00000000000E+00 0. -1.
          1    1    1    2  502    0  0.69960347881E+02  0.62084567596E+02 -0.14136363477E+03  0.16950699408E+03  0.00000000000E+00 0. -1.
         22    1    3    3    0    0 -0.15290563556E+02 -0.52695334226E+01 -0.33269178607E+03  0.33308466467E+03  0.00000000000E+00 0. -1.
         22    1    3    3    0    0 -0.92808194194E+02 -0.64704609473E+02 -0.21038877023E+03  0.23887963922E+03  0.00000000000E+00 0. -1.
</event>
<event>
 7    1  0.6999029E-005  0.7689081E+03  0.7818608E-02  0.1090275E+00
          2   -1    0    0  502    0  0.00000000000E+00  0.00000000000E+00  0.64491923465E+03  0.64491923465E+03  0.00000000000E+00 0. -1.
          1   -1    0    0  501    0 -0.00000000000E+00 -0.00000000000E+00 -0.40369133420E+04  0.40369133420E+04  0.00000000000E+00 0. -1.
         25    2    1    2    0    0  0.48543971151E+03  0.71434457733E+03 -0.16113742654E+04  0.18325097112E+04  0.12499971853E+03 0.  0.
          2    1    1    2  501    0 -0.59657920308E+02 -0.91802096954E+02 -0.20466374546E+04  0.20495637494E+04  0.00000000000E+00 0. -1.
          1    1    1    2  502    0 -0.42578179120E+03 -0.62254248037E+03  0.26601761259E+03  0.79975911610E+03  0.00000000000E+00 0. -1.
         22    1    3    3    0    0  0.65807722449E+02  0.38049293151E+02 -0.12009415493E+03  0.14213026100E+03  0.00000000000E+00 0. -1.
         22    1    3    3    0    0  0.41963198906E+03  0.67629528418E+03 -0.14912801105E+04  0.16903794502E+04  0.00000000000E+00 0. -1.
</event>
<event>
 7    1  0.6999029E-005  0.1041055E+03  0.7818608E-02  0.1348979E+00
          2   -1    0    0  502    0  0.00000000000E+00  0.00000000000E+00  0.42553026609E+03  0.42553026609E+03  0.00000000000E+00 0. -1.
          1   -1    0    0  501    0 -0.00000000000E+00 -0.00000000000E+00 -0.55150854801E+03  0.55150854801E+03  0.00000000000E+00 0. -1.
         25    2    1    2    0    0  0.12638841171E+03  0.58400617834E+02  0.20973690714E+03  0.28106708925E+03  0.12499790264E+03 0.  0.
          2    1    1    2  501    0 -0.51607717896E+02 -0.33374163507E+01 -0.50245801199E+03  0.50511241195E+03  0.00000000000E+00 0. -1.
          1    1    1    2  502    0 -0.74780693812E+02 -0.55063201483E+02  0.16674282293E+03  0.19085931290E+03  0.00000000000E+00 0. -1.
         22    1    3    3    0    0  0.12690531910E+03  0.11020951559E+02  0.19212409435E+03  0.23051700375E+03  0.00000000000E+00 0.  1.
         22    1    3    3    0    0 -0.51690738902E+00  0.47379666275E+02  0.17612812792E+02  0.50550085499E+02  0.00000000000E+00 0.  1.
</event>
<event>
 7    1  0.6999029E-005  0.8632316E+02  0.7818608E-02  0.1346361E+00
          2   -1    0    0  502    0  0.00000000000E+00  0.00000000000E+00  0.16626981447E+04  0.16626981447E+04  0.00000000000E+00 0. -1.
          1   -1    0    0  501    0 -0.00000000000E+00 -0.00000000000E+00 -0.14252319335E+03  0.14252319335E+03  0.00000000000E+00 0. -1.
         25    2    1    2    0    0 -0.24854528634E+02 -0.14038650665E+02  0.82122542323E+03  0.83117435460E+03  0.12499912268E+03 0.  0.
          2    1    1    2  501    0  0.46205553196E+02  0.74141398066E+02 -0.12231509524E+03  0.15030928972E+03  0.00000000000E+00 0. -1.
          1    1    1    2  502    0 -0.21351024562E+02 -0.60102747401E+02  0.82126462341E+03  0.82373769378E+03  0.00000000000E+00 0. -1.
         22    1    3    3    0    0 -0.40886555173E+01  0.43998657699E+02  0.13203819739E+03  0.13923607490E+03  0.00000000000E+00 0. -1.
         22    1    3    3    0    0 -0.20765873116E+02 -0.58037308364E+02  0.68918722584E+03  0.69193827970E+03  0.00000000000E+00 0. -1.
</event>
<event>
 7    1  0.6999029E-005  0.2570606E+03  0.7818608E-02  0.1143625E+00
          2   -1    0    0  502    0  0.00000000000E+00  0.00000000000E+00  0.66816061882E+03  0.66816061882E+03  0.00000000000E+00 0. -1.
          1   -1    0    0  501    0 -0.00000000000E+00 -0.00000000000E+00 -0.48703365880E+03  0.48703365880E+03  0.00000000000E+00 0. -1.
         25    2    1    2    0    0 -0.51172976944E+02  0.28836446078E+03 -0.10017315238E+01  0.31842972658E+03  0.12499500588E+03 0.  0.
          2    1    1    2  501    0 -0.10729383560E+03 -0.23451448569E+03 -0.25866737829E+03  0.36526404661E+03  0.00000000000E+00 0. -1.
          1    1    1    2  502    0  0.15846681254E+03 -0.53849975086E+02  0.44079606983E+03  0.47150050443E+03  0.00000000000E+00 0. -1.
         22    1    3    3    0    0  0.35676153222E+02  0.37698037499E+02 -0.10583739941E+02  0.52971176041E+02  0.00000000000E+00 0.  1.
         22    1    3    3    0    0 -0.86849130166E+02  0.25066642328E+03  0.95820084175E+01  0.26545855054E+03  0.00000000000E+00 0.  1.
</event>
<event>
 7    1  0.6999029E-005  0.9636993E+02  0.7818608E-02  0.1400613E+00
          2   -1    0    0  502    0  0.00000000000E+00  0.00000000000E+00  0.24009245025E+03  0.24009245025E+03  0.00000000000E+00 0. -1.
          1   -1    0    0  501    0 -0.00000000000E+00 -0.00000000000E+00 -0.76897842059E+03  0.76897842059E+03  0.00000000000E+00 0. -1.
         25    2    1    2    0    0 -0.41383579257E+01 -0.78447208267E+02 -0.23089255166E+03  0.27405756929E+03  0.12500036152E+03 0.  0.
          2    1    1    2  501    0  0.37092536149E+02  0.94236675429E+02 -0.50996059947E+03  0.51991943630E+03  0.00000000000E+00 0. -1.
          1    1    1    2  502    0 -0.32954178223E+02 -0.15789467162E+02  0.21196718079E+03  0.21509386525E+03  0.00000000000E+00 0. -1.
         22    1    3    3    0    0 -0.32035062478E+01 -0.20301501752E+02  0.12338096944E+02  0.23971692929E+02  0.00000000000E+00 0. -1.
         22    1    3    3    0    0 -0.93485167789E+00 -0.58145706515E+02 -0.24323064860E+03  0.25008587636E+03  0.00000000000E+00 0. -1.
</event>
<event>
 7    1  0.6999029E-005  0.9607005E+02  0.7818608E-02  0.1348937E+00
          2   -1    0    0  502    0  0.00000000000E+00  0.00000000000E+00  0.10246252710E+04  0.10246252710E+04  0.00000000000E+00 0. -1.
          1   -1    0    0  501    0 -0.00000000000E+00 -0.00000000000E+00 -0.18007459929E+03  0.18007459929E+03  0.00000000000E+00 0. -1.
         25    2    1    2    0    0 -0.32990787253E+01  0.14875984788E+03  0.17834154877E+03  0.26376357745E+03  0.12500056205E+03 0.  0.
          2    1    1    2  501    0  0.19709706183E+01 -0.56026619437E+02 -0.12883361582E+03  0.14050255292E+03  0.00000000000E+00 0. -1.
          1    1    1    2  502    0  0.13281081070E+01 -0.92733228440E+02  0.79504273875E+03  0.80043373990E+03  0.00000000000E+00 0. -1.
         22    1    3    3    0    0  0.48021085815E+02  0.85786394867E+02  0.14666992113E+03  0.17657122074E+03  0.00000000000E+00 0.  1.
         22    1    3    3    0    0 -0.51320164541E+02  0.62973453011E+02  0.31671627631E+02  0.87192356714E+02  0.00000000000E+00 0.  1.
</event>
<event>
 7    1  0.6999029E-005  0.8781522E+03  0.7818608E-02  0.1170424E+00
          2   -1    0    0  502    0  0.00000000000E+00  0.00000000000E+00  0.39472897385E+03  0.39472897385E+03  0.00000000000E+00 0. -1.
          1   -1    0    0  501    0 -0.00000000000E+00 -0.00000000000E+00 -0.38130697469E+04  0.38130697469E+04  0.00000000000E+00 0. -1.
         25    2    1    2    0    0  0.15694256109E+03 -0.88588047781E+03 -0.20768397043E+04  0.22667822622E+04  0.12499391389E+03 0.  0.
          2    1    1    2  501    0 -0.26823349645E+02  0.23716288428E+02 -0.10062055828E+04  0.10068424054E+04  0.00000000000E+00 0. -1.
          1    1    1    2  502    0 -0.13011921145E+03  0.86216418938E+03 -0.33529548594E+03  0.93417405313E+03  0.00000000000E+00 0. -1.
         22    1    3    3    0    0  0.89028882526E+01 -0.38971199227E+03 -0.84756736719E+03  0.93291218251E+03  0.00000000000E+00 0.  1.
         22    1    3    3    0    0  0.14803967284E+03 -0.49616848554E+03 -0.12292723371E+04  0.13338700797E+04  0.00000000000E+00 0.  1.
</event>
<event>
 7    1  0.6999029E-005  0.3977812E+03  0.7818608E-02  0.1180311E+00
          2   -1    0    0  502    0  0.00000000000E+00  0.00000000000E+00  0.33450906523E+03  0.33450906523E+03  0.00000000000E+00 0. -1.
          1   -1    0    0  501    0 -0.00000000000E+00 -0.00000000000E+00 -0.14221093639E+04  0.14221093639E+04  0.00000000000E+00 0. -1.
         25    2    1    2    0    0  0.17569374071E+03 -0.35358323552E+03 -0.69079971769E+03  0.80543059869E+03  0.12499921752E+03 0.  0.
          2    1    1    2  501    0 -0.24028138436E+03  0.32490942744E+03 -0.60712111507E+03  0.72931291506E+03  0.00000000000E+00 0. -1.
          1    1    1    2  502    0  0.64587643655E+02  0.28673808080E+02  0.21032053413E+03  0.22187491534E+03  0.00000000000E+00 0. -1.
         22    1    3    3    0    0  0.14981259872E+03 -0.25697403325E+03 -0.40400568495E+03  0.50169718155E+03  0.00000000000E+00 0.  1.
         22    1    3    3    0    0  0.25881141989E+02 -0.96609202266E+02 -0.28679403275E+03  0.30373341715E+03  0.00000000000E+00 0.  1.
</event>
<event>
 7    1  0.6999029E-005  0.1091328E+03  0.7818608E-02  0.1353900E+00
          2   -1    0    0  502    0  0.00000000000E+00  0.00000000000E+00  0.28028037905E+03  0.28028037905E+03  0.00000000000E+00 0. -1.
          1   -1    0    0  501    0 -0.00000000000E+00 -0.00000000000E+00 -0.41437232018E+03  0.41437232018E+03  0.00000000000E+00 0. -1.
         25    2    1    2    0    0  0.85286691834E+02 -0.39490787134E+02 -0.14466155530E+02  0.15705871610E+03  0.12499931430E+03 0.  0.
          2    1    1    2  501    0 -0.73052631961E+02  0.85190751664E+02 -0.31613870136E+03  0.33546658508E+03  0.00000000000E+00 0. -1.
          1    1    1    2  502    0 -0.12234059873E+02 -0.45699964530E+02  0.19651291576E+03  0.20212739805E+03  0.00000000000E+00 0. -1.
         22    1    3    3    0    0  0.79059355563E+02 -0.67330375504E+02 -0.46830700246E+02  0.11391609040E+03  0.00000000000E+00 0. -1.
         22    1    3    3    0    0  0.62273362711E+01  0.27839588370E+02  0.32364544716E+02  0.43142625700E+02  0.00000000000E+00 0. -1.
</event>
<event>
 7    1  0.6999029E-005  0.1477803E+03  0.7818608E-02  0.1298245E+00
          2   -1    0    0  502    0  0.00000000000E+00  0.00000000000E+00  0.48865826475E+03  0.48865826475E+03  0.00000000000E+00 0. -1.
          1   -1    0    0  501    0 -0.00000000000E+00 -0.00000000000E+00 -0.11493644062E+04  0.11493644062E+04  0.00000000000E+00 0. -1.
         25    2    1    2    0    0  0.62398907903E+01  0.16712982561E+03 -0.21185439610E+03  0.29745169671E+03  0.12499564747E+03 0.  0.
          2    1    1    2  501    0 -0.54111509029E+02 -0.13584716172E+03 -0.88686556624E+03  0.89883982963E+03  0.00000000000E+00 0. -1.
          1    1    1    2  502    0  0.47871618238E+02 -0.31282663891E+02  0.43801382085E+03  0.44173114464E+03  0.00000000000E+00 0. -1.
         22    1    3    3    0    0  0.63791212370E+01  0.16951922527E+03 -0.22629195143E+03  0.28281709320E+03  0.00000000000E+00 0.  1.
         22    1    3    3    0    0 -0.13923044665E+00 -0.23893996615E+01  0.14437555336E+02  0.14634603512E+02  0.00000000000E+00 0.  1.
</event>
<event>
 7    1  0.6999029E-005  0.5598863E+03  0.7818608E-02  0.1188440E+00
          2   -1    0    0  502    0  0.00000000000E+00  0.00000000000E+00  0.25575073318E+04  0.25575073318E+04  0.00000000000E+00 0. -1.
          1   -1    0    0  501    0 -0.00000000000E+00 -0.00000000000E+00 -0.73583941759E+03  0.73583941759E+03  0.00000000000E+00 0. -1.
         25    2    1    2    0    0  0.54707073081E+03  0.11990232470E+03  0.15759968945E+04  0.16772160423E+04  0.12499795668E+03 0.  0.
          2    1    1    2  501    0 -0.10943416581E+02  0.44528860106E+02 -0.59982215588E+03  0.60157227033E+03  0.00000000000E+00 0. -1.
          1    1    1    2  502    0 -0.53612731422E+03 -0.16443118480E+03  0.84549317560E+03  0.10145584367E+04  0.00000000000E+00 0. -1.
         22    1    3    3    0    0  0.21464300225E+03  0.66596921132E+02  0.46738645667E+03  0.51861051686E+03  0.00000000000E+00 0. -1.
         22    1    3    3    0    0  0.33242772856E+03  0.53305403564E+02  0.11086104379E+04  0.11586055255E+04  0.00000000000E+00 0. -1.
</event>
<event>
 7    1  0.6999029E-005  0.9058181E+02  0.7818608E-02  0.1313339E+00
          2   -1    0    0  502    0  0.00000000000E+00  0.00000000000E+00  0.59117012122E+03  0.59117012122E+03  0.00000000000E+00 0. -1.
          1   -1    0    0  501    0 -0.00000000000E+00 -0.00000000000E+00 -0.85199776236E+03  0.85199776236E+03  0.00000000000E+00 0. -1.
         25    2    1    2    0    0 -0.54299401339E+02 -0.14394102703E+03 -0.65606582915E+02  0.20880694924E+03  0.12501469546E+03 0.  0.
          2    1    1    2  501    0  0.59898966715E+02  0.54943269905E+02 -0.70862440657E+03  0.71327077516E+03  0.00000000000E+00 0. -1.
          1    1    1    2  502    0 -0.55995653759E+01  0.88997757124E+02  0.51340334834E+03  0.52109015918E+03  0.00000000000E+00 0. -1.
         22    1    3    3    0    0 -0.65158933469E+02 -0.16191553460E+03 -0.47006346948E+02  0.18075376513E+03  0.00000000000E+00 0.  1.
         22    1    3    3    0    0  0.10859532130E+02  0.17974507571E+02 -0.18600235966E+02  0.28053184106E+02  0.00000000000E+00 0.  1.
</event>
<event>
 7    1  0.6999029E-005  0.1908414E+03  0.7818608E-02  0.1172619E+00
          2   -1    0    0  502    0  0.00000000000E+00  0.00000000000E+00  0.28477700573E+04  0.28477700573E+04  0.00000000000E+00 0. -1.
          1   -1    0    0  501    0 -0.00000000000E+00 -0.00000000000E+00 -0.13188309747E+03  0.13188309747E+03  0.00000000000E+00 0. -1.
         25    2    1    2    0    0 -0.29799784133E+02 -0.30803650755E+03  0.57167912314E+03  0.66197923273E+03  0.12499987044E+03 0.  0.
          2    1    1    2  501    0 -0.49943211278E+02  0.16854180473E+03  0.85642132537E+01  0.17599434662E+03  0.00000000000E+00 0. -1.
          1    1    1    2  502    0  0.79742995411E+02  0.13949470282E+03  0.21356436235E+04  0.21416795755E+04  0.00000000000E+00 0. -1.
         22    1    3    3    0    0  0.40113560906E+02 -0.12674375583E+03  0.17032238024E+03  0.21606200642E+03  0.00000000000E+00 0. -1.
         22    1    3    3    0    0 -0.69913345039E+02 -0.18129275172E+03  0.40135674290E+03  0.44591722630E+03  0.00000000000E+00 0. -1.
</event>
<event>
 7    1  0.6999029E-005  0.5443862E+03  0.7818608E-02  0.1041166E+00
          2   -1    0    0  502    0  0.00000000000E+00  0.00000000000E+00  0.36580381977E+04  0.36580381977E+04  0.00000000000E+00 0. -1.
          1   -1    0    0  501    0 -0.00000000000E+00 -0.00000000000E+00 -0.43691374309E+03  0.43691374309E+03  0.00000000000E+00 0. -1.
         25    2    1    2    0    0 -0.37650792895E+03 -0.34798974180E+03  0.22122420085E+04  0.22743115650E+04  0.12499323909E+03 0.  0.
          2    1    1    2  501    0  0.12437937635E+03 -0.27875077779E+03 -0.24827951780E+03  0.39346530258E+03  0.00000000000E+00 0. -1.
          1    1    1    2  502    0  0.25212855260E+03  0.62674051959E+03  0.12571619639E+04  0.14271750732E+04  0.00000000000E+00 0. -1.
         22    1    3    3    0    0 -0.55926256611E+02 -0.58122529486E+01  0.17522361377E+03  0.18402402910E+03  0.00000000000E+00 0. -1.
         22    1    3    3    0    0 -0.32058167234E+03 -0.34217748885E+03  0.20370183947E+04  0.20902875359E+04  0.00000000000E+00 0. -1.
</event>
<event>
 7    1  0.6999029E-005  0.4587339E+02  0.7818608E-02  0.1571061E+00
          2   -1    0    0  502    0  0.00000000000E+00  0.00000000000E+00  0.24287296906E+03  0.24287296906E+03  0.00000000000E+00 0. -1.
          1   -1    0    0  501    0 -0.00000000000E+00 -0.00000000000E+00 -0.14154910647E+04  0.14154910647E+04  0.00000000000E+00 0. -1.
         25    2    1    2    0    0  0.16550780874E+02 -0.45792485795E+02  0.95542514605E+02  0.16469603549E+03  0.12500212760E+03 0.  0.
          2    1    1    2  501    0  0.66055071199E+01  0.45403984419E+02 -0.13793395822E+04  0.13801024735E+04  0.00000000000E+00 0. -1.
          1    1    1    2  502    0 -0.23156287993E+02  0.38850137631E+00  0.11117897193E+03  0.11356552473E+03  0.00000000000E+00 0. -1.
         22    1    3    3    0    0  0.62630007567E+01 -0.44657845677E+02  0.12531179400E+03  0.13317880490E+03  0.00000000000E+00 0. -1.
         22    1    3    3    0    0  0.10287780117E+02 -0.11346401187E+01 -0.29769279396E+02  0.31517230584E+02  0.00000000000E+00 0. -1.
</event>
<event>
 7    1  0.6999029E-005  0.4033639E+02  0.7818608E-02  0.1558428E+00
          2   -1    0    0  502    0  0.00000000000E+00  0.00000000000E+00  0.20370541915E+04  0.20370541915E+04  0.00000000000E+00 0. -1.
          1   -1    0    0  501    0 -0.00000000000E+00 -0.00000000000E+00 -0.73376289749E+02  0.73376289749E+02  0.00000000000E+00 0. -1.
         25    2    1    2    0    0  0.14136110388E+02  0.22523502923E+01  0.45829031837E+03  0.47524681170E+03  0.12499845365E+03 0.  0.
          2    1    1    2  501    0 -0.38977559545E+02  0.11758612841E+02 -0.58370121459E+02  0.71165906185E+02  0.00000000000E+00 0. -1.
          1    1    1    2  502    0  0.24841449157E+02 -0.14010963134E+02  0.15637577048E+04  0.15640177634E+04  0.00000000000E+00 0. -1.
         22    1    3    3    0    0 -0.15460773620E+02  0.57649716868E+02  0.27782611539E+03  0.28416522618E+03  0.00000000000E+00 0.  1.
         22    1    3    3    0    0  0.29596884008E+02 -0.55397366576E+02  0.18046420298E+03  0.19108158552E+03  0.00000000000E+00 0.  1.
</event>
<event>
 7    1  0.6999029E-005  0.2291265E+03  0.7818608E-02  0.1330656E+00
          2   -1    0    0  502    0  0.00000000000E+00  0.00000000000E+00  0.18557264818E+03  0.18557264818E+03  0.00000000000E+00 0. -1.
          1   -1    0    0  501    0 -0.00000000000E+00 -0.00000000000E+00 -0.64554384252E+03  0.64554384252E+03  0.00000000000E+00 0. -1.
         25    2    1    2    0    0  0.50697733400E+02  0.21210258562E+03 -0.26926324542E+03  0.36835723899E+03  0.12500637255E+03 0.  0.
          2    1    1    2  501    0 -0.73360194020E+02 -0.22775175624E+03 -0.28058612091E+03  0.36875622271E+03  0.00000000000E+00 0. -1.
          1    1    1    2  502    0  0.22662460619E+02  0.15649170619E+02  0.89878171994E+02  0.94003029012E+02  0.00000000000E+00 0. -1.
         22    1    3    3    0    0  0.32397852014E+02  0.17862243995E+03 -0.12824001227E+03  0.22226357690E+03  0.00000000000E+00 0.  1.
         22    1    3    3    0    0  0.18299881386E+02  0.33480145672E+02 -0.14102323315E+03  0.14609366208E+03  0.00000000000E+00 0.  1.
</event>
<event>
 7    1  0.6999029E-005  0.5292426E+03  0.7818608E-02  0.1127838E+00
          2   -1    0    0  502    0  0.00000000000E+00  0.00000000000E+00  0.13624270098E+04  0.13624270098E+04  0.00000000000E+00 0. -1.
          1   -1    0    0  501    0 -0.00000000000E+00 -0.00000000000E+00 -0.12367147110E+04  0.12367147110E+04  0.00000000000E+00 0. -1.
         25    2    1    2    0    0  0.23739256816E+03  0.45946310851E+03  0.10822379952E+04  0.12059546864E+04  0.12500419233E+03 0.  0.
          2    1    1    2  501    0  0.35989990411E+02  0.91676045765E+02 -0.73151143078E+03  0.73811161089E+03  0.00000000000E+00 0. -1.
          1    1    1    2  502    0 -0.27338255857E+03 -0.55113915427E+03 -0.22501426561E+03  0.65507542347E+03  0.00000000000E+00 0. -1.
         22    1    3    3    0    0 -0.11371168107E+02  0.23462884024E+02  0.27717319975E+02  0.38053386412E+02  0.00000000000E+00 0. -1.
         22    1    3    3    0    0  0.24876373627E+03  0.43600022448E+03  0.10545206752E+04  0.11679013000E+04  0.00000000000E+00 0. -1.
</event>
<event>
 7    1  0.6999029E-005  0.1410593E+03  0.7818608E-02  0.1328916E+00
          2   -1    0    0  502    0  0.00000000000E+00  0.00000000000E+00  0.71561107227E+03  0.71561107227E+03  0.00000000000E+00 0. -1.
          1   -1    0    0  501    0 -0.00000000000E+00 -0.00000000000E+00 -0.38173621345E+03  0.38173621345E+03  0.00000000000E+00 0. -1.
         25    2    1    2    0    0 -0.38953864211E+01 -0.14399320970E+03  0.41676491198E+03  0.45833065768E+03  0.12499912575E+03 0.  0.
          2    1    1    2  501    0  0.44686763338E+02  0.81562115845E+01 -0.34126447870E+03  0.34427441820E+03  0.00000000000E+00 0. -1.
          1    1    1    2  502    0 -0.40791376917E+02  0.13583699812E+03  0.25837442554E+03  0.29474220984E+03  0.00000000000E+00 0. -1.
         22    1    3    3    0    0 -0.88766887010E+01 -0.11587998521E+03  0.41358392699E+03  0.42960287620E+03  0.00000000000E+00 0. -1.
         22    1    3    3    0    0  0.49813022799E+01 -0.28113224491E+02  0.31809849974E+01  0.28727781489E+02  0.00000000000E+00 0. -1.
</event>
<event>
 7    1  0.6999029E-005  0.1560767E+03  0.7818608E-02  0.1232653E+00
          2   -1    0    0  502    0  0.00000000000E+00  0.00000000000E+00  0.11548665022E+03  0.11548665022E+03  0.00000000000E+00 0. -1.
          1   -1    0    0  501    0 -0.00000000000E+00 -0.00000000000E+00 -0.33946142940E+04  0.33946142940E+04  0.00000000000E+00 0. -1.
         25    2    1    2    0    0  0.47440126259E+02  0.16193477016E+03 -0.11417092190E+03  0.23902669457E+03  0.12500130377E+03 0.  0.
          2    1    1    2  501    0 -0.12489319225E+03 -0.94610020883E+02 -0.31645735484E+04  0.31684499537E+04  0.00000000000E+00 0. -1.
          1    1    1    2  502    0  0.77453065995E+02 -0.67324749274E+02 -0.38317342355E+00  0.10262429595E+03  0.00000000000E+00 0. -1.
         22    1    3    3    0    0  0.38636870293E+02  0.18291507730E+03 -0.97720948931E+02  0.21095050868E+03  0.00000000000E+00 0.  1.
         22    1    3    3    0    0  0.88032559665E+01 -0.20980307146E+02 -0.16449972974E+02  0.28076185895E+02  0.00000000000E+00 0.  1.
</event>
<event>
 7    1  0.6999029E-005  0.4624515E+03  0.7818608E-02  0.1203639E+00
          2   -1    0    0  502    0  0.00000000000E+00  0.00000000000E+00  0.50686494369E+03  0.50686494369E+03  0.00000000000E+00 0. -1.
          1   -1    0    0  501    0 -0.00000000000E+00 -0.00000000000E+00 -0.12485791563E+04  0.12485791563E+04  0.00000000000E+00 0. -1.
         25    2    1    2    0    0 -0.22251747364E+03 -0.44074573461E+03 -0.71236918726E+03  0.87570937665E+03  0.12500489886E+03 0.  0.
          2    1    1    2  501    0  0.42608462228E+02  0.19872964329E+02 -0.32920450492E+03  0.33254476665E+03  0.00000000000E+00 0. -1.
          1    1    1    2  502    0  0.17990901141E+03  0.42087277028E+03  0.29985947961E+03  0.54718995666E+03  0.00000000000E+00 0. -1.
         22    1    3    3    0    0 -0.20114555722E+03 -0.43084637093E+03 -0.70621016343E+03  0.85136415561E+03  0.00000000000E+00 0.  1.
         22    1    3    3    0    0 -0.21371916421E+02 -0.98993636825E+01 -0.61590238347E+01  0.24345221039E+02  0.00000000000E+00 0.  1.
</event>
<event>
 7    1  0.6999029E-005  0.1228974E+03  0.7818608E-02  0.1263973E+00
          2   -1    0    0  502    0  0.00000000000E+00  0.00000000000E+00  0.16113162536E+04  0.16113162536E+04  0.00000000000E+00 0. -1.
          1   -1    0    0  501    0 -0.00000000000E+00 -0.00000000000E+00 -0.61809782427E+02  0.61809782427E+02  0.00000000000E+00 0. -1.
         25    2    1    2    0    0 -0.37783693842E+02 -0.84778286084E+02  0.29557486948E+03  0.33407148434E+03  0.12499715144E+03 0.  0.
          2    1    1    2  501    0  0.12946028183E+03  0.59008164989E+02  0.83932920749E+02  0.16518675277E+03  0.00000000000E+00 0. -1.
          1    1    1    2  502    0 -0.91676587985E+02  0.25770121095E+02  0.11699986809E+04  0.11738677989E+04  0.00000000000E+00 0. -1.
         22    1    3    3    0    0 -0.18556241563E+02 -0.11670705241E+03  0.21645280475E+03  0.24661039489E+03  0.00000000000E+00 0. -1.
         22    1    3    3    0    0 -0.19227452279E+02  0.31928766326E+02  0.79122064733E+02  0.87461089451E+02  0.00000000000E+00 0. -1.
</event>
<event>
 7    1  0.6999029E-005  0.3704833E+03  0.7818608E-02  0.1190386E+00
          2   -1    0    0  502    0  0.00000000000E+00  0.00000000000E+00  0.53488499934E+03  0.53488499934E+03  0.00000000000E+00 0. -1.
          1   -1    0    0  501    0 -0.00000000000E+00 -0.00000000000E+00 -0.15979840529E+04  0.15979840529E+04  0.00000000000E+00 0. -1.
         25    2    1    2    0    0 -0.13203722973E+03  0.40868919525E+03  0.14052300360E+03  0.46886288754E+03  0.12500001770E+03 0.  0.
          2    1    1    2  501    0  0.91379911538E+02 -0.35440628414E+03 -0.14048049111E+04  0.14516993286E+04  0.00000000000E+00 0. -1.
          1    1    1    2  502    0  0.40657318188E+02 -0.54282911113E+02  0.20118285389E+03  0.21230683612E+03  0.00000000000E+00 0. -1.
         22    1    3    3    0    0 -0.81581628102E+02  0.82215418905E+02  0.51307276668E+02  0.12667822934E+03  0.00000000000E+00 0. -1.
         22    1    3    3    0    0 -0.50455601624E+02  0.32647377635E+03  0.89215726932E+02  0.34218465820E+03  0.00000000000E+00 0. -1.
</event>
<event>
 7    1  0.6999029E-005  0.2849753E+03  0.7818608E-02  0.1252661E+00
          2   -1    0    0  502    0  0.00000000000E+00  0.00000000000E+00  0.32217169768E+04  0.32217169768E+04  0.00000000000E+00 0. -1.
          1   -1    0    0  501    0 -0.00000000000E+00 -0.00000000000E+00 -0.40394760926E+02  0.40394760926E+02  0.00000000000E+00 0. -1.
         25    2    1    2    0    0  0.29134386363E+03 -0.43537378997E+02  0.92729683622E+03  0.98095568318E+03  0.12497151538E+03 0.  0.
          2    1    1    2  501    0 -0.26087169985E+03  0.77878436704E+02  0.14196817747E+04  0.14455502192E+04  0.00000000000E+00 0. -1.
          1    1    1    2  502    0 -0.30472163782E+02 -0.34341057708E+02  0.83434360494E+03  0.83560583538E+03  0.00000000000E+00 0. -1.
         22    1    3    3    0    0  0.13855511218E+03 -0.34017375931E+01  0.62148910593E+03  0.63675568291E+03  0.00000000000E+00 0.  1.
         22    1    3    3    0    0  0.15278875145E+03 -0.40135641404E+02  0.30580773030E+03  0.34420000028E+03  0.00000000000E+00 0.  1.
</event>
<event>
 7    1  0.6999029E-005  0.2777697E+03  0.7818608E-02  0.1299148E+00
          2   -1    0    0  502    0  0.00000000000E+00  0.00000000000E+00  0.54081762728E+03  0.54081762728E+03  0.00000000000E+00 0. -1.
          1   -1    0    0  501    0 -0.00000000000E+00 -0.00000000000E+00 -0.82194515189E+03  0.82194515189E+03  0.00000000000E+00 0. -1.
         25    2    1    2    0    0  0.25604504467E+03  0.14773903119E+02  0.58365192270E+02  0.29122047524E+03  0.12500214563E+03 0.  0.
          2    1    1    2  501    0 -0.27918280821E+03 -0.34138510909E+02 -0.67678525485E+03  0.73290296732E+03  0.00000000000E+00 0. -1.
          1    1    1    2  502    0  0.23137763538E+02  0.19364607790E+02  0.33729253796E+03  0.33863933661E+03  0.00000000000E+00 0. -1.
         22    1    3    3    0    0  0.23112011304E+03  0.50407172849E+02  0.28048429656E+02  0.23821020997E+03  0.00000000000E+00 0.  1.
         22    1    3    3    0    0  0.24924931633E+02 -0.35633269730E+02  0.30316762614E+02  0.53010265270E+02  0.00000000000E+00 0.  1.
</event>
<event>
 7    1  0.6999029E-005  0.7667901E+03  0.7818608E-02  0.1226916E+00
          2   -1    0    0  502    0  0.00000000000E+00  0.00000000000E+00  0.25438360946E+04  0.25438360946E+04  0.00000000000E+00 0. -1.
          1   -1    0    0  501    0 -0.00000000000E+00 -0.00000000000E+00 -0.50056403158E+03  0.50056403158E+03  0.00000000000E+00 0. -1.
         25    2    1    2    0    0 -0.30151198277E+03  0.72011929390E+03  0.66216868444E+03  0.10312972061E+04  0.12500114955E+03 0.  0.
          2    1    1    2  501    0  0.15950718041E+02 -0.15388507032E+02 -0.23026777659E+03  0.23133197031E+03  0.00000000000E+00 0. -1.
          1    1    1    2  502    0  0.28556126473E+03 -0.70473078687E+03  0.16113711552E+04  0.17817709498E+04  0.00000000000E+00 0. -1.
         22    1    3    3    0    0 -0.53936825739E+02  0.23104516024E+03  0.25609858069E+03  0.34910962501E+03  0.00000000000E+00 0. -1.
         22    1    3    3    0    0 -0.24757515703E+03  0.48907413365E+03  0.40607010375E+03  0.68218758106E+03  0.00000000000E+00 0. -1.
</event>
<event>
 7    1  0.6999029E-005  0.1071424E+03  0.7818608E-02  0.1339812E+00
          2   -1    0    0  502    0  0.00000000000E+00  0.00000000000E+00  0.18152366893E+04  0.18152366893E+04  0.00000000000E+00 0. -1.
          1   -1    0    0  501    0 -0.00000000000E+00 -0.00000000000E+00 -0.23172580134E+02  0.23172580134E+02  0.00000000000E+00 0. -1.
         25    2    1    2    0    0 -0.22173842831E+02 -0.14220763600E+03  0.49092180841E+03  0.52663498866E+03  0.12500199305E+03 0.  0.
          2    1    1    2  501    0  0.36253391094E+02  0.40524112222E+02  0.26255389531E+03  0.26812508271E+03  0.00000000000E+00 0. -1.
          1    1    1    2  502    0 -0.14079548264E+02  0.10168352377E+03  0.10385884055E+04  0.10436491981E+04  0.00000000000E+00 0. -1.
         22    1    3    3    0    0  0.23684358734E+02 -0.10655896381E+03  0.42490692173E+03  0.43870451759E+03  0.00000000000E+00 0.  1.
         22    1    3    3    0    0 -0.45858201565E+02 -0.35648672189E+02  0.66014886672E+02  0.87930471067E+02  0.00000000000E+00 0.  1.
</event>
<event>
 7    1  0.6999029E-005  0.1720770E+03  0.7818608E-02  0.1211358E+00
          2   -1    0    0  502    0  0.00000000000E+00  0.00000000000E+00  0.25272768931E+04  0.25272768931E+04  0.00000000000E+00 0. -1.
          1   -1    0    0  501    0 -0.00000000000E+00 -0.00000000000E+00 -0.59339354954E+03  0.59339354954E+03  0.00000000000E+00 0. -1.
         25    2    1    2    0    0  0.89233740361E+02 -0.51594847605E+02  0.26970994240E+03  0.31463427208E+03  0.12500633352E+03 0.  0.
          2    1    1    2  501    0 -0.62686792276E+02  0.16484026020E+03 -0.55575344599E+03  0.58306418004E+03  0.00000000000E+00 0. -1.
          1    1    1    2  502    0 -0.26546948085E+02 -0.11324541259E+03  0.22199268471E+04  0.22229719905E+04  0.00000000000E+00 0. -1.
         22    1    3    3    0    0  0.82841344045E+02 -0.22475711562E+02  0.27152207843E+03  0.28476672026E+03  0.00000000000E+00 0.  1.
         22    1    3    3    0    0  0.63923963162E+01 -0.29119136043E+02 -0.18121360309E+01  0.29867551817E+02  0.00000000000E+00 0.  1.
</event>
<event>
 7    1  0.6999029E-005  0.7755853E+03  0.7818608E-02  0.1116510E+00
          2   -1    0    0  502    0  0.00000000000E+00  0.00000000000E+00  0.41973250618E+03  0.41973250618E+03  0.00000000000E+00 0. -1.
          1   -1    0    0  501    0 -0.00000000000E+00 -0.00000000000E+00 -0.25299038010E+04  0.25299038010E+04  0.00000000000E+00 0. -1.
         25    2    1    2    0    0  0.76541016787E+03 -0.17791239735E+02 -0.13142176532E+04  0.15260938792E+04  0.12500093982E+03 0.  0.
          2    1    1    2  501    0 -0.78894459131E+03 -0.55932932026E+02 -0.95899032463E+03  0.12430705948E+04  0.00000000000E+00 0. -1.
          1    1    1    2  502    0  0.23534423439E+02  0.73724171761E+02  0.16303668293E+03  0.18047183317E+03  0.00000000000E+00 0. -1.
         22    1    3    3    0    0  0.19742562449E+03  0.29398380143E+02 -0.43058987761E+03  0.47460381863E+03  0.00000000000E+00 0.  1.
         22    1    3    3    0    0  0.56798454338E+03 -0.47189619878E+02 -0.88362777556E+03  0.10514900606E+04  0.00000000000E+00 0.  1.
</event>
<event>
 7    1  0.6999029E-005  0.1666724E+03  0.7818608E-02  0.1194922E+00
          2   -1    0    0  502    0  0.00000000000E+00  0.00000000000E+00  0.16184146629E+04  0.16184146629E+04  0.00000000000E+00 0. -1.
          1   -1    0    0  501    0 -0.00000000000E+00 -0.00000000000E+00 -0.23285242545E+04  0.23285242545E+04  0.00000000000E+00 0. -1.
         25    2    1    2    0    0 -0.71797692198E+02 -0.27982755516E+03  0.10210678491E+04  0.10684879368E+04  0.12501419693E+03 0.  0.
          2    1    1    2  501    0 -0.15038556368E+02  0.16568671897E+03 -0.22927887068E+04  0.22988167176E+04  0.00000000000E+00 0. -1.
          1    1    1    2  502    0  0.86836248566E+02  0.11414083619E+03  0.56161126615E+03  0.57963426298E+03  0.00000000000E+00 0. -1.
         22    1    3    3    0    0 -0.11275754065E+02 -0.17983679445E+03  0.43437501353E+03  0.47026595416E+03  0.00000000000E+00 0. -1.
         22    1    3    3    0    0 -0.60521938133E+02 -0.99990760708E+02  0.58669283559E+03  0.59822198268E+03  0.00000000000E+00 0. -1.
</event>
<event>
 7    1  0.6999029E-005  0.8455150E+02  0.7818608E-02  0.1390023E+00
          2   -1    0    0  502    0  0.00000000000E+00  0.00000000000E+00  0.49469854418E+03  0.49469854418E+03  0.00000000000E+00 0. -1.
          1   -1    0    0  501    0 -0.00000000000E+00 -0.00000000000E+00 -0.19297539543E+03  0.19297539543E+03  0.00000000000E+00 0. -1.
         25    2    1    2    0    0 -0.88286449580E+00  0.10059488227E+03 -0.73505949565E+02  0.17647922029E+03  0.12498672243E+03 0.  0.
          2    1    1    2  501    0 -0.34505845534E+02 -0.72285876297E+02 -0.42731229207E+02  0.90784686141E+02  0.00000000000E+00 0. -1.
          1    1    1    2  502    0  0.35388710030E+02 -0.28309005969E+02  0.41796032753E+03  0.42041003318E+03  0.00000000000E+00 0. -1.
         22    1    3    3    0    0 -0.26229932852E+02  0.10495463671E+03 -0.10820189634E+02  0.10872240638E+03  0.00000000000E+00 0. -1.
         22    1    3    3    0    0  0.25347068356E+02 -0.43597544456E+01 -0.62685759931E+02  0.67756813910E+02  0.00000000000E+00 0. -1.
</event>
<event>
 7    1  0.6999029E-005  0.2027478E+03  0.7818608E-02  0.1188468E+00
          2   -1    0    0  502    0  0.00000000000E+00  0.00000000000E+00  0.20460695824E+03  0.20460695824E+03  0.00000000000E+00 0. -1.
          1   -1    0    0  501    0 -0.00000000000E+00 -0.00000000000E+00 -0.90764431827E+03  0.90764431827E+03  0.00000000000E+00 0. -1.
         25    2    1    2    0    0  0.28043174959E+03  0.12733843088E+02 -0.52882481274E+03  0.61162428283E+03  0.12499785530E+03 0.  0.
          2    1    1    2  501    0 -0.16114930227E+03  0.29639411494E+02 -0.28739409520E+03  0.33082164121E+03  0.00000000000E+00 0. -1.
          1    1    1    2  502    0 -0.11928244732E+03 -0.42373254582E+02  0.11318154791E+03  0.16980535248E+03  0.00000000000E+00 0. -1.
         22    1    3    3    0    0  0.16434424176E+03 -0.33865923224E+01 -0.42261436622E+03  0.45345716594E+03  0.00000000000E+00 0. -1.
         22    1    3    3    0    0  0.11608750784E+03  0.16120435410E+02 -0.10621044653E+03  0.15816711689E+03  0.00000000000E+00 0. -1.
</event>
<event>
 7    1  0.6999029E-005  0.3151404E+03  0.7818608E-02  0.1161413E+00
          2   -1    0    0  502    0  0.00000000000E+00  0.00000000000E+00  0.25945554967E+04  0.25945554967E+04  0.00000000000E+00 0. -1.
          1   -1    0    0  501    0 -0.00000000000E+00 -0.00000000000E+00 -0.24148138942E+03  0.24148138942E+03  0.00000000000E+00 0. -1.
         25    2    1    2    0    0 -0.28126119728E+03 -0.85385044508E+02 -0.39005394863E+01  0.31943574294E+03  0.12500205095E+03 0.  0.
          2    1    1    2  501    0  0.33822351464E+03  0.18028546643E+03  0.39102643716E+03  0.54753965137E+03  0.00000000000E+00 0. -1.
          1    1    1    2  502    0 -0.56962317360E+02 -0.94900421924E+02  0.19659482096E+04  0.19690614918E+04  0.00000000000E+00 0. -1.
         22    1    3    3    0    0 -0.10356244272E+03 -0.57215056029E+02 -0.57714588910E+02  0.13164237901E+03  0.00000000000E+00 0.  1.
         22    1    3    3    0    0 -0.17769875455E+03 -0.28169988479E+02  0.53814049424E+02  0.18779336393E+03  0.00000000000E+00 0.  1.
</event>
<event>
 7    1  0.6999029E-005  0.4573711E+03  0.7818608E-02  0.1187745E+00
          2   -1    0    0  502    0  0.00000000000E+00  0.00000000000E+00  0.82314965832E+03  0.82314965832E+03  0.00000000000E+00 0. -1.
          1   -1    0    0  501    0 -0.00000000000E+00 -0.00000000000E+00 -0.12349250353E+04  0.12349250353E+04  0.00000000000E+00 0. -1.
         25    2    1    2    0    0  0.28426692356E+03 -0.30407131597E+03  0.19292224270E+03  0.47551217474E+03  0.12500315027E+03 0.  0.
          2    1    1    2  501    0 -0.29189098567E+03  0.36012085572E+03 -0.10426065998E+04  0.11410152936E+04  0.00000000000E+00 0. -1.
          1    1    1    2  502    0  0.76240621157E+01 -0.56049539758E+02  0.43790898016E+03  0.44154722526E+03  0.00000000000E+00 0. -1.
         22    1    3    3    0    0  0.28067317915E+03 -0.24381337815E+03  0.18284318249E+03  0.41431150870E+03  0.00000000000E+00 0.  1.
         22    1    3    3    0    0  0.35937444059E+01 -0.60257937819E+02  0.10079060206E+02  0.61200666040E+02  0.00000000000E+00 0.  1.
</event>
<event>
 7    1  0.7111341E-005  0.2479868E+03  0.7818608E-02  0.1185381E+00
          2   -1    0    0  502    0  0.00000000000E+00  0.00000000000E+00  0.11518745847E+04  0.11518745847E+04  0.00000000000E+00 0. -1.
          1   -1    0    0  501    0 -0.00000000000E+00 -0.00000000000E+00 -0.14676981387E+04  0.14676981387E+04  0.00000000000E+00 0. -1.
         25    2    1    2    0    0 -0.20790761262E+03 -0.13795287052E+03 -0.26302652095E+03  0.38348848911E+03  0.12499560265E+03 0.  0.
          2    1    1    2  501    0  0.77430124052E+02 -0.73997643945E+02 -0.11276835032E+04  0.11327582084E+04  0.00000000000E+00 0. -1.
          1    1    1    2  502    0  0.13047748857E+03  0.21195051446E+03  0.10748864702E+04  0.11033260259E+04  0.00000000000E+00 0. -1.
         22    1    3    3    0    0 -0.11937433128E+03 -0.31231410863E+02 -0.58925785972E+02  0.13674019251E+03  0.00000000000E+00 0. -1.
         22    1    3    3    0    0 -0.88533281340E+02 -0.10672145966E+03 -0.20410073498E+03  0.24674829660E+03  0.00000000000E+00 0. -1.
</event>
<event>
 7    1  0.6999029E-005  0.4258706E+02  0.7818608E-02  0.1507539E+00
          2   -1    0    0  502    0  0.00000000000E+00  0.00000000000E+00  0.70953813290E+03  0.70953813290E+03  0.00000000000E+00 0. -1.
          1   -1    0    0  501    0 -0.00000000000E+00 -0.00000000000E+00 -0.35550234008E+03  0.35550234008E+03  0.00000000000E+00 0. -1.
         25    2    1    2    0    0 -0.71396062280E+01 -0.78861279070E+02  0.55705128211E+02  0.15810797481E+03  0.12499998030E+03 0.  0.
          2    1    1    2  501    0  0.83394283650E+01  0.36809323102E+02 -0.30239216693E+03  0.30473840413E+03  0.00000000000E+00 0. -1.
          1    1    1    2  502    0 -0.11998221369E+01  0.42051955969E+02  0.60072283153E+03  0.60219409404E+03  0.00000000000E+00 0. -1.
         22    1    3    3    0    0 -0.41502500704E+02 -0.11928716887E+02  0.69298335102E+02  0.81651767276E+02  0.00000000000E+00 0.  1.
         22    1    3    3    0    0  0.34362894476E+02 -0.66932562183E+02 -0.13593206891E+02  0.76456207536E+02  0.00000000000E+00 0.  1.
</event>
<event>
 7    1  0.6999029E-005  0.3489246E+03  0.7818608E-02  0.1138217E+00
          2   -1    0    0  502    0  0.00000000000E+00  0.00000000000E+00  0.67561137572E+03  0.67561137572E+03  0.00000000000E+00 0. -1.
          1   -1    0    0  501    0 -0.00000000000E+00 -0.00000000000E+00 -0.34026199550E+04  0.34026199550E+04  0.00000000000E+00 0. -1.
         25    2    1    2    0    0  0.37840378375E+03  0.31282922112E+02  0.44339976230E+03  0.59698970808E+03  0.12500127027E+03 0.  0.
          2    1    1    2  501    0 -0.10100680631E+03  0.84356597954E+02 -0.31778893735E+04  0.31806130353E+04  0.00000000000E+00 0. -1.
          1    1    1    2  502    0 -0.27739697744E+03 -0.11563952007E+03  0.74810318608E+01  0.30062858735E+03  0.00000000000E+00 0. -1.
         22    1    3    3    0    0  0.12982975382E+02  0.17843214127E+02 -0.24640810216E+00  0.22068046064E+02  0.00000000000E+00 0.  1.
         22    1    3    3    0    0  0.36542080837E+03  0.13439707986E+02  0.44364617040E+03  0.57492166201E+03  0.00000000000E+00 0.  1.
</event>
<event>
 7    1  0.6999029E-005  0.9767904E+03  0.7818608E-02  0.1121921E+00
          2   -1    0    0  502    0  0.00000000000E+00  0.00000000000E+00  0.15387719470E+04  0.15387719470E+04  0.00000000000E+00 0. -1.
          1   -1    0    0  501    0 -0.00000000000E+00 -0.00000000000E+00 -0.12432219654E+04  0.12432219654E+04  0.00000000000E+00 0. -1.
         25    2    1    2    0    0 -0.83270967550E+03  0.44933979581E+03  0.30363644559E+03  0.10015640261E+04  0.12499500605E+03 0.  0.
          2    1    1    2  501    0  0.85235431077E+03 -0.50329748390E+03 -0.61857883119E+03  0.11672429048E+04  0.00000000000E+00 0. -1.
          1    1    1    2  502    0 -0.19644635266E+02  0.53957688091E+02  0.61049236728E+03  0.61318698152E+03  0.00000000000E+00 0. -1.
         22    1    3    3    0    0 -0.43021660617E+03  0.29752863609E+03  0.14179115539E+03  0.54195419481E+03  0.00000000000E+00 0.  1.
         22    1    3    3    0    0 -0.40249306933E+03  0.15181115972E+03  0.16184529020E+03  0.45960983130E+03  0.00000000000E+00 0.  1.
</event>
<event>
 7    1  0.6999029E-005  0.2285202E+03  0.7818608E-02  0.1204782E+00
          2   -1    0    0  502    0  0.00000000000E+00  0.00000000000E+00  0.66420337936E+03  0.66420337936E+03  0.00000000000E+00 0. -1.
          1   -1    0    0  501    0 -0.00000000000E+00 -0.00000000000E+00 -0.88309786193E+03  0.88309786193E+03  0.00000000000E+00 0. -1.
         25    2    1    2    0    0 -0.26877433899E+03 -0.72106798641E+02 -0.56315814843E+03  0.64047958349E+03  0.12501184349E+03 0.  0.
          2    1    1    2  501    0  0.17482914062E+03  0.69604936999E+02 -0.24566552626E+03  0.30945375496E+03  0.00000000000E+00 0. -1.
          1    1    1    2  502    0  0.93945198371E+02  0.25018616420E+01  0.58992919212E+03  0.59736790283E+03  0.00000000000E+00 0. -1.
         22    1    3    3    0    0 -0.57429216627E+02  0.76011113918E+01 -0.23542804916E+03  0.24245052722E+03  0.00000000000E+00 0.  1.
         22    1    3    3    0    0 -0.21134512237E+03 -0.79707910033E+02 -0.32773009927E+03  0.39802905627E+03  0.00000000000E+00 0.  1.
</event>
<event>
 7    1  0.6999029E-005  0.8468199E+03  0.7818608E-02  0.1051449E+00
          2   -1    0    0  502    0  0.00000000000E+00  0.00000000000E+00  0.14190750283E+04  0.14190750283E+04  0.00000000000E+00 0. -1.
          1   -1    0    0  501    0 -0.00000000000E+00 -0.00000000000E+00 -0.11489209793E+04  0.11489209793E+04  0.00000000000E+00 0. -1.
         25    2    1    2    0    0  0.43877266128E+03  0.81412457236E+03  0.29648151598E+03  0.97920689144E+03  0.12499831727E+03 0.  0.
          2    1    1    2  501    0 -0.15705435395E+03 -0.63146062139E+02 -0.58651393167E+03  0.61045236284E+03  0.00000000000E+00 0. -1.
          1    1    1    2  502    0 -0.28171830733E+03 -0.75097851022E+03  0.56018646469E+03  0.97833675323E+03  0.00000000000E+00 0. -1.
         22    1    3    3    0    0  0.11931612369E+03  0.12113901231E+03  0.60559451314E+02  0.18049499943E+03  0.00000000000E+00 0. -1.
         22    1    3    3    0    0  0.31945653759E+03  0.69298556004E+03  0.23592206467E+03  0.79871189201E+03  0.00000000000E+00 0. -1.
</event>
<event>
 7    1  0.6999029E-005  0.2190301E+03  0.7818608E-02  0.1158315E+00
          2   -1    0    0  502    0  0.00000000000E+00  0.00000000000E+00  0.90475822162E+03  0.90475822162E+03  0.00000000000E+00 0. -1.
          1   -1    0    0  501    0 -0.00000000000E+00 -0.00000000000E+00 -0.50295173037E+03  0.50295173037E+03  0.00000000000E+00 0. -1.
         25    2    1    2    0    0 -0.22812963876E+03  0.26314041718E+03  0.20891682057E+03  0.42492026995E+03  0.12499994666E+03 0.  0.
          2    1    1    2  501    0  0.78381951647E+02 -0.19361588639E+03 -0.35426993939E+03  0.41126394415E+03  0.00000000000E+00 0. -1.
          1    1    1    2  502    0  0.14974768712E+03 -0.69524530790E+02  0.54715961006E+03  0.57152573788E+03  0.00000000000E+00 0. -1.
         22    1    3    3    0    0  0.70991214853E+01 -0.39941675187E+01  0.20775915132E+02  0.22315679457E+02  0.00000000000E+00 0.  1.
         22    1    3    3    0    0 -0.23522876025E+03  0.26713458469E+03  0.18814090544E+03  0.40260459050E+03  0.00000000000E+00 0.  1.
</event>
<event>
 7    1  0.6999029E-005  0.1116873E+03  0.7818608E-02  0.1344678E+00
          2   -1    0    0  502    0  0.00000000000E+00  0.00000000000E+00  0.14098613746E+03  0.14098613746E+03  0.00000000000E+00 0. -1.
          1   -1    0    0  501    0 -0.00000000000E+00 -0.00000000000E+00 -0.96072024511E+03  0.96072024511E+03  0.00000000000E+00 0. -1.
         25    2    1    2    0    0 -0.10708006451E+03 -0.72094941720E+02 -0.55768219617E+03  0.58591292134E+03  0.12498279337E+03 0.  0.
          2    1    1    2  501    0  0.10330349827E+03  0.22222398863E+02 -0.37641856812E+03  0.39096852328E+03  0.00000000000E+00 0. -1.
          1    1    1    2  502    0  0.37765662374E+01  0.49872542858E+02  0.11436665664E+03  0.12482493795E+03  0.00000000000E+00 0. -1.
         22    1    3    3    0    0 -0.51836906400E+02 -0.45092417905E+02 -0.85219753231E+02  0.10946596438E+03  0.00000000000E+00 0. -1.
         22    1    3    3    0    0 -0.55243158108E+02 -0.27002523815E+02 -0.47246244294E+03  0.47644695696E+03  0.00000000000E+00 0. -1.
</event>
<event>
 7    1  0.6999029E-005  0.7927916E+02  0.7818608E-02  0.1429967E+00
          2   -1    0    0  502    0  0.00000000000E+00  0.00000000000E+00  0.29159008434E+03  0.29159008434E+03  0.00000000000E+00 0. -1.
          1   -1    0    0  501    0 -0.00000000000E+00 -0.00000000000E+00 -0.61119369692E+03  0.61119369692E+03  0.00000000000E+00 0. -1.
         25    2    1    2    0    0 -0.47279452134E+02  0.98364224989E+02  0.91820736645E+02  0.18965168236E+03  0.12500338232E+03 0.  0.
          2    1    1    2  501    0  0.15825687446E+02 -0.31651333619E+02 -0.55266312937E+03  0.55379490235E+03  0.00000000000E+00 0. -1.
          1    1    1    2  502    0  0.31453764689E+02 -0.66712891370E+02  0.14123878015E+03  0.15933719656E+03  0.00000000000E+00 0. -1.
         22    1    3    3    0    0 -0.65205662775E+02  0.45721642770E+01  0.60742143677E+02  0.89231671297E+02  0.00000000000E+00 0.  1.
         22    1    3    3    0    0  0.17926210640E+02  0.93792060712E+02  0.31078592968E+02  0.10042001106E+03  0.00000000000E+00 0.  1.
</event>
<event>
 7    1  0.6999029E-005  0.8513808E+03  0.7818608E-02  0.1172422E+00
          2   -1    0    0  502    0  0.00000000000E+00  0.00000000000E+00  0.15782205630E+04  0.15782205630E+04  0.00000000000E+00 0. -1.
          1   -1    0    0  501    0 -0.00000000000E+00 -0.00000000000E+00 -0.13302834299E+04  0.13302834299E+04  0.00000000000E+00 0. -1.
         25    2    1    2    0    0 -0.59564383428E+03  0.59356579581E+03 -0.53371164453E+03  0.10037855218E+04  0.12500129207E+03 0.  0.
          2    1    1    2  501    0  0.59529984147E+03 -0.62966225872E+03 -0.22673195610E+03  0.89569182268E+03  0.00000000000E+00 0. -1.
          1    1    1    2  502    0  0.34399281052E+00  0.36096462909E+02  0.10083807338E+04  0.10090266484E+04  0.00000000000E+00 0. -1.
         22    1    3    3    0    0 -0.42241896046E+03  0.34473443762E+03 -0.31212135684E+03  0.62825102629E+03  0.00000000000E+00 0. -1.
         22    1    3    3    0    0 -0.17322487381E+03  0.24883135818E+03 -0.22159028769E+03  0.37553449551E+03  0.00000000000E+00 0. -1.
</event>
<event>
 7    1  0.8137705E-005  0.7120478E+03  0.7818608E-02  0.1130743E+00
          2   -1    0    0  502    0  0.00000000000E+00  0.00000000000E+00  0.12237248435E+04  0.12237248435E+04  0.00000000000E+00 0. -1.
          1   -1    0    0  501    0 -0.00000000000E+00 -0.00000000000E+00 -0.34248445667E+04  0.34248445667E+04  0.00000000000E+00 0. -1.
         25    2    1    2    0    0  0.47048374940E+03 -0.44315971507E+03 -0.14201112414E+04  0.15652752736E+04  0.12500101087E+03 0.  0.
          2    1    1    2  501    0  0.51288134079E+02 -0.48565458066E+02 -0.18197628945E+04  0.18211331825E+04  0.00000000000E+00 0. -1.
          1    1    1    2  502    0 -0.52177188347E+03  0.49172517314E+03  0.10387544126E+04  0.12621609541E+04  0.00000000000E+00 0. -1.
         22    1    3    3    0    0  0.19592505226E+03 -0.10731945278E+03 -0.44008385906E+03  0.49353611221E+03  0.00000000000E+00 0.  1.
         22    1    3    3    0    0  0.27455869714E+03 -0.33584026229E+03 -0.98002738235E+03  0.10717391614E+04  0.00000000000E+00 0.  1.
</event>
<event>
 7    1  0.6999029E-005  0.1292411E+03  0.7818608E-02  0.1366029E+00
          2   -1    0    0  502    0  0.00000000000E+00  0.00000000000E+00  0.10332539487E+04  0.10332539487E+04  0.00000000000E+00 0. -1.
          1   -1    0    0  501    0 -0.00000000000E+00 -0.00000000000E+00 -0.56381013437E+02  0.56381013437E+02  0.00000000000E+00 0. -1.
         25    2    1    2    0    0  0.13783263120E+03 -0.39869116945E+01  0.76868036570E+03  0.79089244702E+03  0.12501051335E+03 0.  0.
          2    1    1    2  501    0 -0.20717165967E+02  0.29535616342E+02 -0.19804015786E+02  0.41155226152E+02  0.00000000000E+00 0. -1.
          1    1    1    2  502    0 -0.11711546523E+03 -0.25548704648E+02  0.22799658532E+03  0.25758728894E+03  0.00000000000E+00 0. -1.
         22    1    3    3    0    0  0.14441046280E+03  0.25019306900E+02  0.51418295692E+03  0.53466294118E+03  0.00000000000E+00 0.  1.
         22    1    3    3    0    0 -0.65778316000E+01 -0.29006218594E+02  0.25449740878E+03  0.25622950584E+03  0.00000000000E+00 0.  1.
</event>
<event>
 7    1  0.6999029E-005  0.6624179E+03  0.7818608E-02  0.1130563E+00
          2   -1    0    0  502    0  0.00000000000E+00  0.00000000000E+00  0.14007605734E+04  0.14007605734E+04  0.00000000000E+00 0. -1.
          1   -1    0    0  501    0 -0.00000000000E+00 -0.00000000000E+00 -0.69086814394E+03  0.69086814394E+03  0.00000000000E+00 0. -1.
         25    2    1    2    0    0 -0.21610824558E+03 -0.64079494009E+03  0.78525929867E+03  0.10438288498E+04  0.12500228985E+03 0.  0.
          2    1    1    2  501    0  0.74627637148E+02  0.14864947357E+02 -0.34385731157E+03  0.35217623657E+03  0.00000000000E+00 0. -1.
          1    1    1    2  502    0  0.14148060844E+03  0.62592999274E+03  0.26849044241E+03  0.69562363102E+03  0.00000000000E+00 0. -1.
         22    1    3    3    0    0 -0.15683233282E+03 -0.40366219773E+03  0.58494171116E+03  0.72780241546E+03  0.00000000000E+00 0.  1.
         22    1    3    3    0    0 -0.59275912765E+02 -0.23713274237E+03  0.20031758750E+03  0.31602643434E+03  0.00000000000E+00 0.  1.
</event>
<event>
 7    1  0.6999029E-005  0.6384985E+02  0.7818608E-02  0.1468680E+00
          2   -1    0    0  502    0  0.00000000000E+00  0.00000000000E+00  0.14324129452E+04  0.14324129452E+04  0.00000000000E+00 0. -1.
          1   -1    0    0  501    0 -0.00000000000E+00 -0.00000000000E+00 -0.67872385129E+03  0.67872385129E+03  0.00000000000E+00 0. -1.
         25    2    1    2    0    0 -0.40694968277E+02  0.15303994742E+02  0.30571618704E+03  0.33313382672E+03  0.12500186715E+03 0.  0.
          2    1    1    2  501    0 -0.24549347988E+02 -0.22089888480E+02 -0.66363756141E+03  0.66445876213E+03  0.00000000000E+00 0. -1.
          1    1    1    2  502    0  0.65244316265E+02  0.67858937384E+01  0.11116104683E+04  0.11135442077E+04  0.00000000000E+00 0. -1.
         22    1    3    3    0    0  0.21072462761E+02  0.76501523035E+01  0.13387624321E+01  0.22458089899E+02  0.00000000000E+00 0.  1.
         22    1    3    3    0    0 -0.61767431038E+02  0.76538424385E+01  0.30437742461E+03  0.31067573682E+03  0.00000000000E+00 0.  1.
</event>
<event>
 7    1  0.6999029E-005  0.3846832E+03  0.7818608E-02  0.1191463E+00
          2   -1    0    0  502    0  0.00000000000E+00  0.00000000000E+00  0.16894567017E+04  0.16894567017E+04  0.00000000000E+00 0. -1.
          1   -1    0    0  501    0 -0.00000000000E+00 -0.00000000000E+00 -0.59438286096E+03  0.59438286096E+03  0.00000000000E+00 0. -1.
         25    2    1    2    0    0  0.42629241073E+03 -0.10228754309E+03  0.48323433947E+03  0.66432508818E+03  0.12499774010E+03 0.  0.
          2    1    1    2  501    0 -0.36208595920E+03  0.10889393834E+03 -0.43176214536E+03  0.57391870663E+03  0.00000000000E+00 0. -1.
          1    1    1    2  502    0 -0.64206451523E+02 -0.66063952504E+01  0.10436016467E+04  0.10455957679E+04  0.00000000000E+00 0. -1.
         22    1    3    3    0    0  0.23591686478E+03 -0.79939299937E+02  0.35511682528E+03  0.43376839253E+03  0.00000000000E+00 0. -1.
         22    1    3    3    0    0  0.19037554595E+03 -0.22348243152E+02  0.12811751419E+03  0.23055669565E+03  0.00000000000E+00 0. -1.
</event>
<event>
 7    1  0.6999029E-005  0.1149142E+03  0.7818608E-02  0.1349386E+00
          2   -1    0    0  502    0  0.00000000000E+00  0.00000000000E+00  0.78660911636E+03  0.78660911636E+03  0.00000000000E+00 0. -1.
          1   -1    0    0  501    0 -0.00000000000E+00 -0.00000000000E+00 -0.22168688338E+03  0.22168688338E+03  0.00000000000E+00 0. -1.
         25    2    1    2    0    0 -0.61445947795E+02  0.13869112339E+03  0.32263218677E+03  0.37779237857E+03  0.12499888462E+03 0.  0.
          2    1    1    2  501    0  0.24063330261E+02 -0.11072061913E+03 -0.17616233302E+03  0.20945468947E+03  0.00000000000E+00 0. -1.
          1    1    1    2  502    0  0.37382617534E+02 -0.27970504262E+02  0.41845237923E+03  0.42104893170E+03  0.00000000000E+00 0. -1.
         22    1    3    3    0    0  0.16099668987E+02  0.10927711806E+03  0.21697119659E+03  0.24346906995E+03  0.00000000000E+00 0.  1.
         22    1    3    3    0    0 -0.77545616783E+02  0.29414005325E+02  0.10566099018E+03  0.13432330861E+03  0.00000000000E+00 0.  1.
</event>
<event>
 7    1  0.6999029E-005  0.2459374E+03  0.7818608E-02  0.1161946E+00
          2   -1    0    0  502    0  0.00000000000E+00  0.00000000000E+00  0.18658729833E+04  0.18658729833E+04  0.00000000000E+00 0. -1.
          1   -1    0    0  501    0 -0.00000000000E+00 -0.00000000000E+00 -0.79358262986E+03  0.79358262986E+03  0.00000000000E+00 0. -1.
         25    2    1    2    0    0  0.33875953524E+03 -0.64657763383E+02 -0.68339568191E+01  0.36689080526E+03  0.12499404360E+03 0.  0.
          2    1    1    2  501    0 -0.20629824878E+03  0.11284410514E+03 -0.58083721565E+03  0.62662958005E+03  0.00000000000E+00 0. -1.
          1    1    1    2  502    0 -0.13246128647E+03 -0.48186341753E+02  0.16599615259E+04  0.16659352279E+04  0.00000000000E+00 0. -1.
         22    1    3    3    0    0  0.14253761316E+01 -0.27159551726E+02  0.28114829948E+01  0.27341861379E+02  0.00000000000E+00 0.  1.
         22    1    3    3    0    0  0.33733415911E+03 -0.37498211658E+02 -0.96454398140E+01  0.33954894388E+03  0.00000000000E+00 0.  1.
</event>
<event>
 7    1  0.6999029E-005  0.7217609E+03  0.7818608E-02  0.1126018E+00
          2   -1    0    0  502    0  0.00000000000E+00  0.00000000000E+00  0.54152194673E+03  0.54152194673E+03  0.00000000000E+00 0. -1.
          1   -1    0    0  501    0 -0.00000000000E+00 -0.00000000000E+00 -0.21307791492E+04  0.21307791492E+04  0.00000000000E+00 0. -1.
         25    2    1    2    0    0 -0.10366143542E+03 -0.70763989651E+03 -0.14004648973E+04  0.15774738873E+04  0.12498808055E+03 0.  0.
          2    1    1    2  501    0  0.17668542490E+03  0.71871227371E+03 -0.42078124893E+03  0.85136474628E+03  0.00000000000E+00 0. -1.
          1    1    1    2  502    0 -0.73023989476E+02 -0.11072377197E+02  0.23198894371E+03  0.24346246237E+03  0.00000000000E+00 0. -1.
         22    1    3    3    0    0  0.43873741981E+01 -0.14597275597E+03 -0.38870547493E+03  0.41523395908E+03  0.00000000000E+00 0.  1.
         22    1    3    3    0    0 -0.10804880962E+03 -0.56166714055E+03 -0.10117594224E+04  0.11622399282E+04  0.00000000000E+00 0.  1.
</event>
<event>
 7    1  0.6999029E-005  0.3438568E+03  0.7818608E-02  0.1155154E+00
          2   -1    0    0  502    0  0.00000000000E+00  0.00000000000E+00  0.71803449251E+03  0.71803449251E+03  0.00000000000E+00 0. -1.
          1   -1    0    0  501    0 -0.00000000000E+00 -0.00000000000E+00 -0.71161669545E+03  0.71161669545E+03  0.00000000000E+00 0. -1.
         25    2    1    2    0    0  0.16240868267E+03 -0.35658100608E+03 -0.27616847967E+03  0.49539912929E+03  0.12499869611E+03 0.  0.
          2    1    1    2  501    0 -0.65274088415E+02  0.30683962017E+03 -0.24340402090E+03  0.39706016737E+03  0.00000000000E+00 0. -1.
          1    1    1    2  502    0 -0.97134594254E+02  0.49741385913E+02  0.52599029763E+03  0.53719189130E+03  0.00000000000E+00 0. -1.
         22    1    3    3    0    0 -0.15792334897E+02 -0.43777253336E+01 -0.82939590878E+01  0.18367146701E+02  0.00000000000E+00 0. -1.
         22    1    3    3    0    0  0.17820101757E+03 -0.35220328075E+03 -0.26787452058E+03  0.47703198259E+03  0.00000000000E+00 0. -1.
</event>
<event>
 7    1  0.1333853E-004  0.1448976E+03  0.7818608E-02  0.1239630E+00
          2   -1    0    0  502    0  0.00000000000E+00  0.00000000000E+00  0.10735823117E+04  0.10735823117E+04  0.00000000000E+00 0. -1.
          1   -1    0    0  501    0 -0.00000000000E+00 -0.00000000000E+00 -0.17429311439E+04  0.17429311439E+04  0.00000000000E+00 0. -1.
         25    2    1    2    0    0 -0.16186136988E+03 -0.89223918385E+02 -0.54709772037E+03  0.59084746121E+03  0.12499918446E+03 0.  0.
          2    1    1    2  501    0  0.14146369730E+03 -0.11668712801E+02 -0.11671296943E+04  0.11757295011E+04  0.00000000000E+00 0. -1.
          1    1    1    2  502    0  0.20397672580E+02  0.10089263119E+03  0.10448785824E+04  0.10499364933E+04  0.00000000000E+00 0. -1.
         22    1    3    3    0    0 -0.45922923826E+02 -0.86537434047E+02 -0.33601705193E+03  0.35000728794E+03  0.00000000000E+00 0.  1.
         22    1    3    3    0    0 -0.11593844606E+03 -0.26864843377E+01 -0.21108066844E+03  0.24084017327E+03  0.00000000000E+00 0.  1.
</event>
<event>
 7    1  0.6999029E-005  0.9125458E+02  0.7818608E-02  0.1327035E+00
          2   -1    0    0  502    0  0.00000000000E+00  0.00000000000E+00  0.21477649192E+04  0.21477649192E+04  0.00000000000E+00 0. -1.
          1   -1    0    0  501    0 -0.00000000000E+00 -0.00000000000E+00 -0.65208842783E+02  0.65208842783E+02  0.00000000000E+00 0. -1.
         25    2    1    2    0    0 -0.15713101184E+03 -0.28880439520E+00  0.52519042413E+03  0.56226428027E+03  0.12500360386E+03 0.  0.
          2    1    1    2  501    0  0.86067214175E+02  0.71284335798E+01 -0.51956912310E+01  0.86518062441E+02  0.00000000000E+00 0. -1.
          1    1    1    2  502    0  0.71063797669E+02 -0.68396291846E+01  0.15625613435E+04  0.15641914193E+04  0.00000000000E+00 0. -1.
         22    1    3    3    0    0 -0.90930190837E+02  0.26199896507E+02  0.13057890586E+03  0.16126247189E+03  0.00000000000E+00 0.  1.
         22    1    3    3    0    0 -0.66200821007E+02 -0.26488700902E+02  0.39461151827E+03  0.40100180839E+03  0.00000000000E+00 0.  1.
</event>
<event>
 7    1  0.6999029E-005  0.1872957E+03  0.7818608E-02  0.1225002E+00
          2   -1    0    0  502    0  0.00000000000E+00  0.00000000000E+00  0.80456100745E+03  0.80456100745E+03  0.00000000000E+00 0. -1.
          1   -1    0    0  501    0 -0.00000000000E+00 -0.00000000000E+00 -0.19899225480E+04  0.19899225480E+04  0.00000000000E+00 0. -1.
         25    2    1    2    0    0  0.10980150661E+03 -0.12217336695E+03  0.39703422644E+03  0.44748645424E+03  0.12500098928E+03 0.  0.
          2    1    1    2  501    0 -0.29204966103E+02 -0.87833122201E+02 -0.19304030786E+04  0.19326209233E+04  0.00000000000E+00 0. -1.
          1    1    1    2  502    0 -0.80596540507E+02  0.21000648915E+03  0.34800731164E+03  0.41437617787E+03  0.00000000000E+00 0. -1.
         22    1    3    3    0    0  0.23428627230E+02 -0.84402120553E+02  0.87079904827E+02  0.12351327197E+03  0.00000000000E+00 0.  1.
         22    1    3    3    0    0  0.86372879380E+02 -0.37771246394E+02  0.30995432161E+03  0.32397318227E+03  0.00000000000E+00 0.  1.
</event>
<event>
 7    1  0.6999029E-005  0.2173270E+03  0.7818608E-02  0.1307288E+00
          2   -1    0    0  502    0  0.00000000000E+00  0.00000000000E+00  0.73010599439E+03  0.73010599439E+03  0.00000000000E+00 0. -1.
          1   -1    0    0  501    0 -0.00000000000E+00 -0.00000000000E+00 -0.80108701151E+03  0.80108701151E+03  0.00000000000E+00 0. -1.
         25    2    1    2    0    0 -0.16563207866E+03 -0.13540529117E+03 -0.61951112251E+03  0.66722360964E+03  0.12499894394E+03 0.  0.
          2    1    1    2  501    0  0.19778169407E+03  0.11968068566E+03 -0.72217529201E+02  0.24219090932E+03  0.00000000000E+00 0. -1.
          1    1    1    2  502    0 -0.32149615420E+02  0.15724605513E+02  0.62074763459E+03  0.62177848695E+03  0.00000000000E+00 0. -1.
         22    1    3    3    0    0 -0.14917715634E+03 -0.14625822630E+03 -0.44496572557E+03  0.49156870290E+03  0.00000000000E+00 0. -1.
         22    1    3    3    0    0 -0.16454922318E+02  0.10852935130E+02 -0.17454539694E+03  0.17565490674E+03  0.00000000000E+00 0. -1.
</event>
<event>
 7    1  0.6999029E-005  0.1254027E+03  0.7818608E-02  0.1281785E+00
          2   -1    0    0  502    0  0.00000000000E+00  0.00000000000E+00  0.37552060128E+03  0.37552060128E+03  0.00000000000E+00 0. -1.
          1   -1    0    0  501    0 -0.00000000000E+00 -0.00000000000E+00 -0.64467918426E+03  0.64467918426E+03  0.00000000000E+00 0. -1.
         25    2    1    2    0    0  0.82820987269E+02 -0.55879141836E+02 -0.60619538533E+02  0.17111735067E+03  0.12499849929E+03 0.  0.
          2    1    1    2  501    0  0.47513699557E+02  0.62642460873E+02 -0.51239091656E+03  0.51838796371E+03  0.00000000000E+00 0. -1.
          1    1    1    2  502    0 -0.13033468683E+03 -0.67633190371E+01  0.30385187211E+03  0.33069447117E+03  0.00000000000E+00 0. -1.
         22    1    3    3    0    0 -0.49232730137E+01 -0.49799491089E+02 -0.66199900070E+02  0.82985870479E+02  0.00000000000E+00 0.  1.
         22    1    3    3    0    0  0.87744260282E+02 -0.60796507465E+01  0.55803615372E+01  0.88131480191E+02  0.00000000000E+00 0.  1.
</event>
<event>
 7    1  0.6999029E-005  0.6482801E+02  0.7818608E-02  0.1396857E+00
          2   -1    0    0  502    0  0.00000000000E+00  0.00000000000E+00  0.32287702143E+04  0.32287702143E+04  0.00000000000E+00 0. -1.
          1   -1    0    0  501    0 -0.00000000000E+00 -0.00000000000E+00 -0.16504470160E+02  0.16504470160E+02  0.00000000000E+00 0. -1.
         25    2    1    2    0    0 -0.53912057566E+02 -0.46728242548E+02  0.16491420869E+04  0.16554108888E+04  0.12500219768E+03 0.  0.
          2    1    1    2  501    0  0.12376143072E+01  0.65630636111E+02  0.71014765329E+02  0.96705785660E+02  0.00000000000E+00 0. -1.
          1    1    1    2  502    0  0.52674443259E+02 -0.18902393562E+02  0.14921088919E+04  0.14931580100E+04  0.00000000000E+00 0. -1.
         22    1    3    3    0    0  0.14899203242E+02 -0.90045279429E+00  0.24654380393E+02  0.28820748517E+02  0.00000000000E+00 0.  1.
         22    1    3    3    0    0 -0.68811260809E+02 -0.45827789754E+02  0.16244877065E+04  0.16265901403E+04  0.00000000000E+00 0.  1.
</event>
<event>
 7    1  0.6999029E-005  0.5634573E+03  0.7818608E-02  0.1167906E+00
          2   -1    0    0  502    0  0.00000000000E+00  0.00000000000E+00  0.56595377254E+03  0.56595377254E+03  0.00000000000E+00 0. -1.
          1   -1    0    0  501    0 -0.00000000000E+00 -0.00000000000E+00 -0.11313406740E+04  0.11313406740E+04  0.00000000000E+00 0. -1.
         25    2    1    2    0    0  0.42220645958E+03 -0.38432749107E+03 -0.68858976228E+03  0.90318427311E+03  0.12498022071E+03 0.  0.
          2    1    1    2  501    0 -0.43948884013E+03  0.32955493781E+03 -0.10458656438E+03  0.55919160140E+03  0.00000000000E+00 0. -1.
          1    1    1    2  502    0  0.17282380541E+02  0.54772553264E+02  0.22778942518E+03  0.23491857205E+03  0.00000000000E+00 0. -1.
         22    1    3    3    0    0  0.55466125948E+02 -0.10749366911E+03 -0.18921958124E+03  0.22457833811E+03  0.00000000000E+00 0.  1.
         22    1    3    3    0    0  0.36674033364E+03 -0.27683382197E+03 -0.49937018104E+03  0.67860593499E+03  0.00000000000E+00 0.  1.
</event>
<event>
 7    1  0.6999029E-005  0.4012878E+03  0.7818608E-02  0.1190429E+00
          2   -1    0    0  502    0  0.00000000000E+00  0.00000000000E+00  0.21117063980E+04  0.21117063980E+04  0.00000000000E+00 0. -1.
          1   -1    0    0  501    0 -0.00000000000E+00 -0.00000000000E+00 -0.15511630394E+03  0.15511630394E+03  0.00000000000E+00 0. -1.
         25    2    1    2    0    0  0.37882963883E+03 -0.61639849774E+02  0.16457515684E+04  0.16945306201E+04  0.12499772455E+03 0.  0.
          2    1    1    2  501    0 -0.38621074058E+03  0.12378789021E+03  0.21831779266E+03  0.46059183286E+03  0.00000000000E+00 0. -1.
          1    1    1    2  502    0  0.73811017547E+01 -0.62148040438E+02  0.92520732931E+02  0.11170024895E+03  0.00000000000E+00 0. -1.
         22    1    3    3    0    0  0.32317770247E+03 -0.19800404391E+02  0.14751966968E+04  0.15103116160E+04  0.00000000000E+00 0. -1.
         22    1    3    3    0    0  0.55651936361E+02 -0.41839445383E+02  0.17055487165E+03  0.18421900406E+03  0.00000000000E+00 0. -1.
</event>
<event>
 7    1  0.6999029E-005  0.6869582E+02  0.7818608E-02  0.1386411E+00
          2   -1    0    0  502    0  0.00000000000E+00  0.00000000000E+00  0.36236796816E+04  0.36236796816E+04  0.00000000000E+00 0. -1.
          1   -1    0    0  501    0 -0.00000000000E+00 -0.00000000000E+00 -0.35231407353E+02  0.35231407353E+02  0.00000000000E+00 0. -1.
         25    2    1    2    0    0 -0.14311592857E+02 -0.51961995313E+02  0.23576041077E+04  0.23615306971E+04  0.12500093751E+03 0.  0.
          2    1    1    2  501    0  0.68519144360E+02  0.49236486667E+01  0.43984640280E+01  0.68836487024E+02  0.00000000000E+00 0. -1.
          1    1    1    2  502    0 -0.54207551503E+02  0.47038346647E+02  0.12264457025E+04  0.12285439048E+04  0.00000000000E+00 0. -1.
         22    1    3    3    0    0  0.23591291568E+02 -0.78928587964E+02  0.18391312210E+04  0.18409752630E+04  0.00000000000E+00 0.  1.
         22    1    3    3    0    0 -0.37902884425E+02  0.26966592650E+02  0.51847288666E+03  0.52055543410E+03  0.00000000000E+00 0.  1.
</event>
<event>
 7    1  0.6999029E-005  0.2654185E+03  0.7818608E-02  0.1331490E+00
          2   -1    0    0  502    0  0.00000000000E+00  0.00000000000E+00  0.49791106543E+03  0.49791106543E+03  0.00000000000E+00 0. -1.
          1   -1    0    0  501    0 -0.00000000000E+00 -0.00000000000E+00 -0.99205013549E+03  0.99205013549E+03  0.00000000000E+00 0. -1.
         25    2    1    2    0    0 -0.22712575642E+03 -0.10068816147E+03 -0.17247824385E+03  0.32725837264E+03  0.12500033109E+03 0.  0.
          2    1    1    2  501    0 -0.12601214896E+02 -0.19955767600E+02 -0.69914411823E+03  0.69954236565E+03  0.00000000000E+00 0. -1.
          1    1    1    2  502    0  0.23972697132E+03  0.12064392907E+03  0.37748329201E+03  0.46316046263E+03  0.00000000000E+00 0. -1.
         22    1    3    3    0    0 -0.17372098903E+03 -0.78955271885E+02 -0.58601816033E+02  0.19961735854E+03  0.00000000000E+00 0. -1.
         22    1    3    3    0    0 -0.53404767399E+02 -0.21732889588E+02 -0.11387642781E+03  0.12764101411E+03  0.00000000000E+00 0. -1.
</event>
<event>
 7    1  0.6999029E-005  0.6362537E+03  0.7818608E-02  0.1151104E+00
          2   -1    0    0  502    0  0.00000000000E+00  0.00000000000E+00  0.10168866618E+04  0.10168866618E+04  0.00000000000E+00 0. -1.
          1   -1    0    0  501    0 -0.00000000000E+00 -0.00000000000E+00 -0.25654439348E+04  0.25654439348E+04  0.00000000000E+00 0. -1.
         25    2    1    2    0    0  0.91511383016E+01  0.68302762554E+03 -0.36627380694E+03  0.78510829837E+03  0.12501223113E+03 0.  0.
          2    1    1    2  501    0 -0.29565525194E+02 -0.62463261061E+03 -0.19393283765E+04  0.20376541832E+04  0.00000000000E+00 0. -1.
          1    1    1    2  502    0  0.20414386893E+02 -0.58395014930E+02  0.75704491040E+03  0.75956811500E+03  0.00000000000E+00 0. -1.
         22    1    3    3    0    0 -0.29344535554E+02  0.47440493273E+03 -0.20047380068E+03  0.51585936719E+03  0.00000000000E+00 0.  1.
         22    1    3    3    0    0  0.38495673856E+02  0.20862269281E+03 -0.16580000626E+03  0.26924893117E+03  0.00000000000E+00 0.  1.
</event>
<event>
 7    1  0.6999029E-005  0.8909241E+03  0.7818608E-02  0.1162592E+00
          2   -1    0    0  502    0  0.00000000000E+00  0.00000000000E+00  0.32533151099E+04  0.32533151099E+04  0.00000000000E+00 0. -1.
          1   -1    0    0  501    0 -0.00000000000E+00 -0.00000000000E+00 -0.80440651068E+03  0.80440651068E+03  0.00000000000E+00 0. -1.
         25    2    1    2    0    0  0.20414517432E+03 -0.88122825733E+03  0.39683719810E+03  0.99566219197E+03  0.12499977999E+03 0.  0.
          2    1    1    2  501    0 -0.37439524286E+02  0.94726156327E+01 -0.42707962214E+03  0.42882216836E+03  0.00000000000E+00 0. -1.
          1    1    1    2  502    0 -0.16670565003E+03  0.87175564170E+03  0.24791510233E+04  0.26332372602E+04  0.00000000000E+00 0. -1.
         22    1    3    3    0    0  0.25369880863E+02 -0.14339222445E+03  0.16551435602E+02  0.14655685214E+03  0.00000000000E+00 0. -1.
         22    1    3    3    0    0  0.17877529346E+03 -0.73783603288E+03  0.38028576250E+03  0.84910533983E+03  0.00000000000E+00 0. -1.
</event>
<event>
 7    1  0.6999029E-005  0.1265452E+03  0.7818608E-02  0.1271464E+00
          2   -1    0    0  502    0  0.00000000000E+00  0.00000000000E+00  0.84529235511E+03  0.84529235511E+03  0.00000000000E+00 0. -1.
          1   -1    0    0  501    0 -0.00000000000E+00 -0.00000000000E+00 -0.98394214073E+03  0.98394214073E+03  0.00000000000E+00 0. -1.
         25    2    1    2    0    0  0.44736309125E+02 -0.18488396785E+03 -0.92183963687E+03  0.94952434367E+03  0.12499897684E+03 0.  0.
          2    1    1    2  501    0  0.27661859422E+02  0.81428761726E+02 -0.41171350350E+00  0.85999948901E+02  0.00000000000E+00 0. -1.
          1    1    1    2  502    0 -0.72398168547E+02  0.10345520612E+03  0.78360156475E+03  0.79371020326E+03  0.00000000000E+00 0. -1.
         22    1    3    3    0    0  0.79627112561E+02 -0.83393151677E+02 -0.57553377177E+03  0.58697020133E+03  0.00000000000E+00 0. -1.
         22    1    3    3    0    0 -0.34890803435E+02 -0.10149081617E+03 -0.34630586510E+03  0.36255414235E+03  0.00000000000E+00 0. -1.
</event>
<event>
 7    1  0.6999029E-005  0.4267923E+03  0.7818608E-02  0.1190275E+00
          2   -1    0    0  502    0  0.00000000000E+00  0.00000000000E+00  0.15626521974E+03  0.15626521974E+03  0.00000000000E+00 0. -1.
          1   -1    0    0  501    0 -0.00000000000E+00 -0.00000000000E+00 -0.37661593478E+04  0.37661593478E+04  0.00000000000E+00 0. -1.
         25    2    1    2    0    0  0.41180058242E+03 -0.21710180641E+03 -0.10904826619E+04  0.11922627928E+04  0.12500086867E+03 0.  0.
          2    1    1    2  501    0 -0.37887786819E+03  0.16820842402E+03 -0.25985926295E+04  0.26314494422E+04  0.00000000000E+00 0. -1.
          1    1    1    2  502    0 -0.32922714231E+02  0.48893382385E+02  0.79181163362E+02  0.98712332486E+02  0.00000000000E+00 0. -1.
         22    1    3    3    0    0  0.11170720664E+03 -0.61567311713E+02 -0.45426640362E+03  0.47183365643E+03  0.00000000000E+00 0. -1.
         22    1    3    3    0    0  0.30009337578E+03 -0.15553449469E+03 -0.63621625831E+03  0.72042913639E+03  0.00000000000E+00 0. -1.
</event>
<event>
 7    1  0.6999029E-005  0.1433004E+03  0.7818608E-02  0.1249753E+00
          2   -1    0    0  502    0  0.00000000000E+00  0.00000000000E+00  0.17684943148E+04  0.17684943148E+04  0.00000000000E+00 0. -1.
          1   -1    0    0  501    0 -0.00000000000E+00 -0.00000000000E+00 -0.13591872297E+04  0.13591872297E+04  0.00000000000E+00 0. -1.
         25    2    1    2    0    0 -0.72987578676E+02  0.25521817963E+02 -0.17432014517E+02  0.14801341653E+03  0.12500218603E+03 0.  0.
          2    1    1    2  501    0 -0.67927874038E+02 -0.64956874485E+02 -0.12715840031E+04  0.12750527316E+04  0.00000000000E+00 0. -1.
          1    1    1    2  502    0  0.14091545271E+03  0.39435056522E+02  0.16983231027E+04  0.17046153964E+04  0.00000000000E+00 0. -1.
         22    1    3    3    0    0 -0.61387253800E+02  0.51459551288E+02  0.35748787959E+02  0.87718049388E+02  0.00000000000E+00 0. -1.
         22    1    3    3    0    0 -0.11600324876E+02 -0.25937733325E+02 -0.53180802477E+02  0.60295367147E+02  0.00000000000E+00 0. -1.
</event>
<event>
 7    1  0.6999029E-005  0.3686655E+03  0.7818608E-02  0.1165607E+00
          2   -1    0    0  502    0  0.00000000000E+00  0.00000000000E+00  0.12137604338E+04  0.12137604338E+04  0.00000000000E+00 0. -1.
          1   -1    0    0  501    0 -0.00000000000E+00 -0.00000000000E+00 -0.20970217538E+04  0.20970217538E+04  0.00000000000E+00 0. -1.
         25    2    1    2    0    0 -0.13559411604E+03  0.42594214728E+03 -0.51090038133E+02  0.46695406852E+03  0.12499373175E+03 0.  0.
          2    1    1    2  501    0  0.43529000218E+02 -0.78924616965E+02 -0.18048016671E+04  0.18070508921E+04  0.00000000000E+00 0. -1.
          1    1    1    2  502    0  0.92065115818E+02 -0.34701753031E+03  0.97263038529E+03  0.10367772269E+04  0.00000000000E+00 0. -1.
         22    1    3    3    0    0 -0.14831216621E+02  0.25153492626E+03 -0.24561951423E+02  0.25316609879E+03  0.00000000000E+00 0. -1.
         22    1    3    3    0    0 -0.12076289941E+03  0.17440722101E+03 -0.26528086710E+02  0.21378796973E+03  0.00000000000E+00 0. -1.
</event>
<event>
 7    1  0.6999029E-005  0.3518676E+03  0.7818608E-02  0.1234272E+00
          2   -1    0    0  502    0  0.00000000000E+00  0.00000000000E+00  0.26075376436E+04  0.26075376436E+04  0.00000000000E+00 0. -1.
          1   -1    0    0  501    0 -0.00000000000E+00 -0.00000000000E+00 -0.34390198996E+03  0.34390198996E+03  0.00000000000E+00 0. -1.
         25    2    1    2    0    0  0.32375347547E+03  0.53440921499E+02  0.18506076229E+03  0.39691907647E+03  0.12500009024E+03 0.  0.
          2    1    1    2  501    0 -0.35287365556E+03 -0.87446351895E+02 -0.98761931342E+02  0.37672350648E+03  0.00000000000E+00 0. -1.
          1    1    1    2  502    0  0.29120180093E+02  0.34005430396E+02  0.21773368227E+04  0.21777970506E+04  0.00000000000E+00 0. -1.
         22    1    3    3    0    0  0.17352354736E+03  0.81963817561E+02  0.65380908920E+02  0.20273912333E+03  0.00000000000E+00 0.  1.
         22    1    3    3    0    0  0.15022992811E+03 -0.28522896062E+02  0.11967985337E+03  0.19417995314E+03  0.00000000000E+00 0.  1.
</event>
<event>
 7    1  0.6999029E-005  0.2386110E+03  0.7818608E-02  0.1286420E+00
          2   -1    0    0  502    0  0.00000000000E+00  0.00000000000E+00  0.85561050863E+03  0.85561050863E+03  0.00000000000E+00 0. -1.
          1   -1    0    0  501    0 -0.00000000000E+00 -0.00000000000E+00 -0.24303248271E+03  0.24303248271E+03  0.00000000000E+00 0. -1.
         25    2    1    2    0    0  0.10866710738E+03 -0.21771955863E+03  0.56135753200E+03  0.62446575154E+03  0.12499939872E+03 0.  0.
          2    1    1    2  501    0  0.27157532775E+02  0.28750575837E+02 -0.15700074822E+03  0.16190541108E+03  0.00000000000E+00 0. -1.
          1    1    1    2  502    0 -0.13582464016E+03  0.18896898279E+03  0.20822124214E+03  0.31227182872E+03  0.00000000000E+00 0. -1.
         22    1    3    3    0    0  0.71794850108E+02 -0.14329353379E+03  0.48801627186E+03  0.51366080143E+03  0.00000000000E+00 0.  1.
         22    1    3    3    0    0  0.36872257276E+02 -0.74426024842E+02  0.73341260139E+02  0.11080495011E+03  0.00000000000E+00 0.  1.
</event>
<event>
 7    1  0.6999029E-005  0.2481459E+03  0.7818608E-02  0.1182837E+00
          2   -1    0    0  502    0  0.00000000000E+00  0.00000000000E+00  0.28684214714E+03  0.28684214714E+03  0.00000000000E+00 0. -1.
          1   -1    0    0  501    0 -0.00000000000E+00 -0.00000000000E+00 -0.12981079763E+04  0.12981079763E+04  0.00000000000E+00 0. -1.
         25    2    1    2    0    0 -0.34791030171E+03 -0.47447740999E+02  0.16025262108E+02  0.37306132201E+03  0.12500029915E+03 0.  0.
          2    1    1    2  501    0  0.23905702580E+03  0.30814834562E+02 -0.10677173945E+04  0.10945858806E+04  0.00000000000E+00 0. -1.
          1    1    1    2  502    0  0.10885327592E+03  0.16632906437E+02  0.40426303158E+02  0.11730292086E+03  0.00000000000E+00 0. -1.
         22    1    3    3    0    0 -0.19503649064E+03 -0.38554055302E+02 -0.52001591853E+02  0.20549893775E+03  0.00000000000E+00 0.  1.
         22    1    3    3    0    0 -0.15287381107E+03 -0.88936856978E+01  0.68026853961E+02  0.16756238426E+03  0.00000000000E+00 0.  1.
</event>
<event>
 7    1  0.6999029E-005  0.1631850E+04  0.7818608E-02  0.1129323E+00
          2   -1    0    0  502    0  0.00000000000E+00  0.00000000000E+00  0.16834403225E+04  0.16834403225E+04  0.00000000000E+00 0. -1.
          1   -1    0    0  501    0 -0.00000000000E+00 -0.00000000000E+00 -0.30346386351E+04  0.30346386351E+04  0.00000000000E+00 0. -1.
         25    2    1    2    0    0  0.86393085980E+03  0.13796806515E+04 -0.17411004583E+04  0.23868287743E+04  0.12500224416E+03 0.  0.
          2    1    1    2  501    0 -0.89494555866E+03 -0.13750216739E+04 -0.27680925476E+03  0.16638015267E+04  0.00000000000E+00 0. -1.
          1    1    1    2  502    0  0.31014698859E+02 -0.46589775403E+01  0.66671140052E+03  0.66744865660E+03  0.00000000000E+00 0. -1.
         22    1    3    3    0    0  0.71907419981E+03  0.11994701028E+04 -0.14418660497E+04  0.20086746719E+04  0.00000000000E+00 0. -1.
         22    1    3    3    0    0  0.14485665999E+03  0.18021054862E+03 -0.29923440866E+03  0.37815410232E+03  0.00000000000E+00 0. -1.
</event>
<event>
 7    1  0.6999029E-005  0.3799925E+03  0.7818608E-02  0.1225420E+00
          2   -1    0    0  502    0  0.00000000000E+00  0.00000000000E+00  0.71957086467E+03  0.71957086467E+03  0.00000000000E+00 0. -1.
          1   -1    0    0  501    0 -0.00000000000E+00 -0.00000000000E+00 -0.36122712393E+03  0.36122712393E+03  0.00000000000E+00 0. -1.
         25    2    1    2    0    0 -0.80909465210E+02  0.38771977330E+03  0.18142667119E+03  0.45322618614E+03  0.12500149845E+03 0.  0.
          2    1    1    2  501    0  0.11273660921E+03 -0.35530875641E+03 -0.67622377348E+02  0.37884910104E+03  0.00000000000E+00 0. -1.
          1    1    1    2  502    0 -0.31827144000E+02 -0.32411016889E+02  0.24453944690E+03  0.24872270142E+03  0.00000000000E+00 0. -1.
         22    1    3    3    0    0 -0.82905932930E+02  0.39194875578E+03  0.16015643841E+03  0.43144791764E+03  0.00000000000E+00 0. -1.
         22    1    3    3    0    0  0.19964677202E+01 -0.42289824841E+01  0.21270232778E+02  0.21778268495E+02  0.00000000000E+00 0. -1.
</event>
<event>
 7    1  0.6999029E-005  0.3251965E+03  0.7818608E-02  0.1143343E+00
          2   -1    0    0  502    0  0.00000000000E+00  0.00000000000E+00  0.17087674394E+04  0.17087674394E+04  0.00000000000E+00 0. -1.
          1   -1    0    0  501    0 -0.00000000000E+00 -0.00000000000E+00 -0.11646022828E+04  0.11646022828E+04  0.00000000000E+00 0. -1.
         25    2    1    2    0    0  0.41250387037E+03 -0.90673740099E+01  0.48257145425E+03  0.64710151825E+03  0.12499402437E+03 0.  0.
          2    1    1    2  501    0 -0.30870237439E+03  0.91813614094E+02 -0.10543570288E+04  0.11024498355E+04  0.00000000000E+00 0. -1.
          1    1    1    2  502    0 -0.10380149598E+03 -0.82746240084E+02  0.11159507312E+04  0.11238183684E+04  0.00000000000E+00 0. -1.
         22    1    3    3    0    0  0.15716944636E+02  0.26783465701E+02  0.21623319751E+02  0.37841040428E+02  0.00000000000E+00 0.  1.
         22    1    3    3    0    0  0.39678692574E+03 -0.35850839711E+02  0.46094813450E+03  0.60926047782E+03  0.00000000000E+00 0.  1.
</event>
<event>
 7    1  0.6999029E-005  0.4959907E+03  0.7818608E-02  0.1039887E+00
          2   -1    0    0  502    0  0.00000000000E+00  0.00000000000E+00  0.13823855919E+04  0.13823855919E+04  0.00000000000E+00 0. -1.
          1   -1    0    0  501    0 -0.00000000000E+00 -0.00000000000E+00 -0.79315007438E+03  0.79315007438E+03  0.00000000000E+00 0. -1.
         25    2    1    2    0    0 -0.74006071691E+03  0.13783901248E+03  0.49074439463E+03  0.90727334182E+03  0.12500159137E+03 0.  0.
          2    1    1    2  501    0  0.33858404932E+03 -0.43063284806E+02 -0.46071473389E+03  0.57336870422E+03  0.00000000000E+00 0. -1.
          1    1    1    2  502    0  0.40147666759E+03 -0.94775727674E+02  0.55920585675E+03  0.69489362020E+03  0.00000000000E+00 0. -1.
         22    1    3    3    0    0 -0.39332760063E+03  0.40718876622E+02  0.32037131430E+03  0.50892279116E+03  0.00000000000E+00 0. -1.
         22    1    3    3    0    0 -0.34673311628E+03  0.97120135859E+02  0.17037308033E+03  0.39835055067E+03  0.00000000000E+00 0. -1.
</event>
<event>
 7    1  0.6999029E-005  0.7549897E+02  0.7818608E-02  0.1369561E+00
          2   -1    0    0  502    0  0.00000000000E+00  0.00000000000E+00  0.26536463359E+04  0.26536463359E+04  0.00000000000E+00 0. -1.
          1   -1    0    0  501    0 -0.00000000000E+00 -0.00000000000E+00 -0.13465777263E+03  0.13465777263E+03  0.00000000000E+00 0. -1.
         25    2    1    2    0    0 -0.94850219710E+02 -0.73559264070E+02  0.22292057755E+03  0.28236051754E+03  0.12500539371E+03 0.  0.
          2    1    1    2  501    0  0.59485927676E+02  0.76237142024E+01 -0.95736134816E+02  0.11296948313E+03  0.00000000000E+00 0. -1.
          1    1    1    2  502    0  0.35364292035E+02  0.65935549868E+02  0.23918041206E+04  0.23929741079E+04  0.00000000000E+00 0. -1.
         22    1    3    3    0    0 -0.99975321535E+02 -0.35886838655E+02  0.21991268333E+03  0.24422227252E+03  0.00000000000E+00 0. -1.
         22    1    3    3    0    0  0.51251018245E+01 -0.37672425416E+02  0.30078942257E+01  0.38138245018E+02  0.00000000000E+00 0. -1.
</event>
<event>
 7    1  0.6999029E-005  0.4277117E+02  0.7818608E-02  0.1606071E+00
          2   -1    0    0  502    0  0.00000000000E+00  0.00000000000E+00  0.13331972888E+04  0.13331972888E+04  0.00000000000E+00 0. -1.
          1   -1    0    0  501    0 -0.00000000000E+00 -0.00000000000E+00 -0.26446366159E+03  0.26446366159E+03  0.00000000000E+00 0. -1.
         25    2    1    2    0    0 -0.36910472298E+02  0.66697306065E+01  0.40983769104E+02  0.13678700329E+03  0.12499658663E+03 0.  0.
          2    1    1    2  501    0 -0.39139143105E+01 -0.19672492730E+02 -0.21572784891E+03  0.21665832662E+03  0.00000000000E+00 0. -1.
          1    1    1    2  502    0  0.40824386608E+02  0.13002762124E+02  0.12434777070E+04  0.12442156205E+04  0.00000000000E+00 0. -1.
         22    1    3    3    0    0  0.15021487924E+02  0.55809225184E+02  0.91129156256E+01  0.58509485951E+02  0.00000000000E+00 0. -1.
         22    1    3    3    0    0 -0.51931960222E+02 -0.49139494578E+02  0.31870853478E+02  0.78277517342E+02  0.00000000000E+00 0. -1.
</event>
<event>
 7    1  0.6999029E-005  0.2773995E+03  0.7818608E-02  0.1235855E+00
          2   -1    0    0  502    0  0.00000000000E+00  0.00000000000E+00  0.13273574878E+04  0.13273574878E+04  0.00000000000E+00 0. -1.
          1   -1    0    0  501    0 -0.00000000000E+00 -0.00000000000E+00 -0.29578129198E+03  0.29578129198E+03  0.00000000000E+00 0. -1.
         25    2    1    2    0    0 -0.23523354850E+03  0.96926394736E+02  0.39650100666E+03  0.48740901873E+03  0.12499981967E+03 0.  0.
          2    1    1    2  501    0  0.27601865969E+03 -0.58733793788E+02 -0.16951749199E+03  0.32919923924E+03  0.00000000000E+00 0. -1.
          1    1    1    2  502    0 -0.40785111188E+02 -0.38192600948E+02  0.80459268110E+03  0.80653052177E+03  0.00000000000E+00 0. -1.
         22    1    3    3    0    0 -0.16274412934E+03  0.10029513388E+03  0.19427711699E+03  0.27255891786E+03  0.00000000000E+00 0.  1.
         22    1    3    3    0    0 -0.72489419156E+02 -0.33687391394E+01  0.20222388967E+03  0.21485010087E+03  0.00000000000E+00 0.  1.
</event>
<event>
 7    1  0.6999029E-005  0.2412681E+03  0.7818608E-02  0.1130033E+00
          2   -1    0    0  502    0  0.00000000000E+00  0.00000000000E+00  0.42982132332E+03  0.42982132332E+03  0.00000000000E+00 0. -1.
          1   -1    0    0  501    0 -0.00000000000E+00 -0.00000000000E+00 -0.72989854044E+03  0.72989854044E+03  0.00000000000E+00 0. -1.
         25    2    1    2    0    0  0.17265098492E+03 -0.53443947370E+02  0.11099398468E+03  0.24619105319E+03  0.12500300770E+03 0.  0.
          2    1    1    2  501    0  0.20490603642E+03 -0.47255826632E+02 -0.47324189890E+03  0.51785856349E+03  0.00000000000E+00 0. -1.
          1    1    1    2  502    0 -0.37755702133E+03  0.10069977400E+03  0.62170697097E+02  0.39567024707E+03  0.00000000000E+00 0. -1.
         22    1    3    3    0    0  0.77138325511E+00  0.27869644494E+02  0.44534677577E+01  0.28233765095E+02  0.00000000000E+00 0.  1.
         22    1    3    3    0    0  0.17187960166E+03 -0.81313591864E+02  0.10654051692E+03  0.21795728810E+03  0.00000000000E+00 0.  1.
</event>
<event>
 7    1  0.6999029E-005  0.8130895E+02  0.7818608E-02  0.1389329E+00
          2   -1    0    0  502    0  0.00000000000E+00  0.00000000000E+00  0.98321453512E+03  0.98321453512E+03  0.00000000000E+00 0. -1.
          1   -1    0    0  501    0 -0.00000000000E+00 -0.00000000000E+00 -0.33368332571E+03  0.33368332571E+03  0.00000000000E+00 0. -1.
         25    2    1    2    0    0 -0.18949768951E+02  0.99255910887E+02 -0.25755910049E+03  0.30360100840E+03  0.12500420980E+03 0.  0.
          2    1    1    2  501    0 -0.13715865169E+02 -0.64923930834E+02 -0.31539895459E+02  0.73471128737E+02  0.00000000000E+00 0. -1.
          1    1    1    2  502    0  0.32665634121E+02 -0.34331980053E+02  0.93863020536E+03  0.93982572370E+03  0.00000000000E+00 0. -1.
         22    1    3    3    0    0 -0.18458557291E+02  0.94650979256E+02 -0.27191916388E+03  0.28851266505E+03  0.00000000000E+00 0.  1.
         22    1    3    3    0    0 -0.49121166073E+00  0.46049316315E+01  0.14360063394E+02  0.15088343345E+02  0.00000000000E+00 0.  1.
</event>
<event>
 7    1  0.6999029E-005  0.2113172E+03  0.7818608E-02  0.1265444E+00
          2   -1    0    0  502    0  0.00000000000E+00  0.00000000000E+00  0.24577470661E+04  0.24577470661E+04  0.00000000000E+00 0. -1.
          1   -1    0    0  501    0 -0.00000000000E+00 -0.00000000000E+00 -0.34841010308E+03  0.34841010308E+03  0.00000000000E+00 0. -1.
         25    2    1    2    0    0 -0.80714799085E+02 -0.20765612185E+03  0.11586924951E+04  0.11865197677E+04  0.12499966849E+03 0.  0.
          2    1    1    2  501    0  0.54538557255E+02  0.24692619946E+01 -0.32387367850E+03  0.32844285821E+03  0.00000000000E+00 0. -1.
          1    1    1    2  502    0  0.26176241831E+02  0.20518685985E+03  0.12745181463E+04  0.12911945432E+04  0.00000000000E+00 0. -1.
         22    1    3    3    0    0 -0.98008520587E+02 -0.17181447784E+03  0.10838814517E+04  0.11017825948E+04  0.00000000000E+00 0. -1.
         22    1    3    3    0    0  0.17293721501E+02 -0.35841644010E+02  0.74811043483E+02  0.84737172927E+02  0.00000000000E+00 0. -1.
</event>
<event>
 7    1  0.6999029E-005  0.6360799E+02  0.7818608E-02  0.1519030E+00
          2   -1    0    0  502    0  0.00000000000E+00  0.00000000000E+00  0.15377377542E+04  0.15377377542E+04  0.00000000000E+00 0. -1.
          1   -1    0    0  501    0 -0.00000000000E+00 -0.00000000000E+00 -0.51194765028E+02  0.51194765028E+02  0.00000000000E+00 0. -1.
         25    2    1    2    0    0 -0.78921463846E+02 -0.83092850532E+00  0.14445651825E+03  0.20669399036E+03  0.12500172834E+03 0.  0.
          2    1    1    2  501    0  0.17705483977E+02 -0.15275103623E+02 -0.12267234508E+02  0.26406400664E+02  0.00000000000E+00 0. -1.
          1    1    1    2  502    0  0.61215979868E+02  0.16106032128E+02  0.13543537054E+04  0.13558321282E+04  0.00000000000E+00 0. -1.
         22    1    3    3    0    0 -0.63989807770E+02 -0.22123680361E+02  0.16182701467E+03  0.17541988316E+03  0.00000000000E+00 0. -1.
         22    1    3    3    0    0 -0.14931656076E+02  0.21292751855E+02 -0.17370496425E+02  0.31274107194E+02  0.00000000000E+00 0. -1.
</event>
<event>
 7    1  0.6999029E-005  0.1202349E+03  0.7818608E-02  0.1266879E+00
          2   -1    0    0  502    0  0.00000000000E+00  0.00000000000E+00  0.97774389013E+03  0.97774389013E+03  0.00000000000E+00 0. -1.
          1   -1    0    0  501    0 -0.00000000000E+00 -0.00000000000E+00 -0.10541261371E+03  0.10541261371E+03  0.00000000000E+00 0. -1.
         25    2    1    2    0    0  0.11956921141E+03  0.35315412346E+01  0.14801222635E+03  0.22768604283E+03  0.12499618735E+03 0.  0.
          2    1    1    2  501    0 -0.35056575805E+02  0.87887766419E+02 -0.23388207425E+02  0.97469129676E+02  0.00000000000E+00 0. -1.
          1    1    1    2  502    0 -0.84512635606E+02 -0.91419307654E+02  0.74770725750E+03  0.75800133133E+03  0.00000000000E+00 0. -1.
         22    1    3    3    0    0  0.38197839480E+02  0.61982540965E+02  0.63832995098E+02  0.96827483643E+02  0.00000000000E+00 0.  1.
         22    1    3    3    0    0  0.81371371931E+02 -0.58450999730E+02  0.84179231250E+02  0.13085855919E+03  0.00000000000E+00 0.  1.
</event>
<event>
 7    1  0.6999029E-005  0.7002727E+03  0.7818608E-02  0.1168539E+00
          2   -1    0    0  502    0  0.00000000000E+00  0.00000000000E+00  0.94377153002E+03  0.94377153002E+03  0.00000000000E+00 0. -1.
          1   -1    0    0  501    0 -0.00000000000E+00 -0.00000000000E+00 -0.67351103294E+03  0.67351103294E+03  0.00000000000E+00 0. -1.
         25    2    1    2    0    0  0.26999557955E+03  0.66487875247E+03 -0.10701443331E+03  0.73623256134E+03  0.12499970796E+03 0.  0.
          2    1    1    2  501    0 -0.26959686426E+03 -0.61900196859E+03  0.20920806482E+03  0.70683372919E+03  0.00000000000E+00 0. -1.
          1    1    1    2  502    0 -0.39871528838E+00 -0.45876783875E+02  0.16806686557E+03  0.17421627242E+03  0.00000000000E+00 0. -1.
         22    1    3    3    0    0  0.16316594661E+03  0.53535805706E+03 -0.67269773116E+02  0.56369903120E+03  0.00000000000E+00 0.  1.
         22    1    3    3    0    0  0.10682963294E+03  0.12952069540E+03 -0.39744660190E+02  0.17253353015E+03  0.00000000000E+00 0.  1.
</event>
<event>
 7    1  0.6999029E-005  0.2213765E+03  0.7818608E-02  0.1243017E+00
          2   -1    0    0  502    0  0.00000000000E+00  0.00000000000E+00  0.11583103397E+04  0.11583103397E+04  0.00000000000E+00 0. -1.
          1   -1    0    0  501    0 -0.00000000000E+00 -0.00000000000E+00 -0.25243618300E+03  0.25243618300E+03  0.00000000000E+00 0. -1.
         25    2    1    2    0    0  0.26802832873E+03  0.78812819346E+02  0.10200066313E+03  0.32261433127E+03  0.12500090385E+03 0.  0.
          2    1    1    2  501    0 -0.64242831772E+02 -0.10529568206E+02 -0.12165463141E+03  0.13797776120E+03  0.00000000000E+00 0. -1.
          1    1    1    2  502    0 -0.20378549696E+03 -0.68283251140E+02  0.92552812493E+03  0.95015443019E+03  0.00000000000E+00 0. -1.
         22    1    3    3    0    0  0.30519110786E+02  0.59520616555E+02  0.12367214311E+02  0.68022554407E+02  0.00000000000E+00 0.  1.
         22    1    3    3    0    0  0.23750921795E+03  0.19292202791E+02  0.89633448822E+02  0.25459177686E+03  0.00000000000E+00 0.  1.
</event>
<event>
 7    1  0.6999029E-005  0.4010313E+03  0.7818608E-02  0.1149693E+00
          2   -1    0    0  502    0  0.00000000000E+00  0.00000000000E+00  0.78451797757E+03  0.78451797757E+03  0.00000000000E+00 0. -1.
          1   -1    0    0  501    0 -0.00000000000E+00 -0.00000000000E+00 -0.37689137465E+03  0.37689137465E+03  0.00000000000E+00 0. -1.
         25    2    1    2    0    0 -0.32231187943E+03  0.15498891613E+03 -0.38421934458E+01  0.37887470153E+03  0.12499906107E+03 0.  0.
          2    1    1    2  501    0 -0.85426742309E+02 -0.51591287782E+02 -0.85520781651E+02  0.13142752136E+03  0.00000000000E+00 0. -1.
          1    1    1    2  502    0  0.40773862174E+03 -0.10339762834E+03  0.49698957801E+03  0.65110712932E+03  0.00000000000E+00 0. -1.
         22    1    3    3    0    0 -0.21648935890E+03  0.15195879317E+03  0.33511040394E+02  0.26661227873E+03  0.00000000000E+00 0.  1.
         22    1    3    3    0    0 -0.10582252053E+03  0.30301229518E+01 -0.37353233840E+02  0.11226242280E+03  0.00000000000E+00 0.  1.
</event>
<event>
 7    1  0.6999029E-005  0.1418591E+03  0.7818608E-02  0.1270831E+00
          2   -1    0    0  502    0  0.00000000000E+00  0.00000000000E+00  0.79009226862E+03  0.79009226862E+03  0.00000000000E+00 0. -1.
          1   -1    0    0  501    0 -0.00000000000E+00 -0.00000000000E+00 -0.12899686283E+03  0.12899686283E+03  0.00000000000E+00 0. -1.
         25    2    1    2    0    0  0.32879372123E+02 -0.17624044049E+03  0.54622361095E+03  0.58832508592E+03  0.12499771034E+03 0.  0.
          2    1    1    2  501    0  0.21815766413E+02  0.74038401265E+02 -0.75439682477E+02  0.10792941313E+03  0.00000000000E+00 0. -1.
          1    1    1    2  502    0 -0.54695138536E+02  0.10220203922E+03  0.19031147731E+03  0.22283463240E+03  0.00000000000E+00 0. -1.
         22    1    3    3    0    0  0.40792109441E+02 -0.19437042970E+03  0.50304058922E+03  0.54082686189E+03  0.00000000000E+00 0.  1.
         22    1    3    3    0    0 -0.79127373183E+01  0.18129989212E+02  0.43183021725E+02  0.47498224030E+02  0.00000000000E+00 0.  1.
</event>
<event>
 7    1  0.6999029E-005  0.9354428E+03  0.7818608E-02  0.1149365E+00
          2   -1    0    0  502    0  0.00000000000E+00  0.00000000000E+00  0.12472549340E+04  0.12472549340E+04  0.00000000000E+00 0. -1.
          1   -1    0    0  501    0 -0.00000000000E+00 -0.00000000000E+00 -0.13718675073E+04  0.13718675073E+04  0.00000000000E+00 0. -1.
         25    2    1    2    0    0 -0.43372997628E+03  0.83917652751E+03  0.71136008500E+03  0.11891161059E+04  0.12500002432E+03 0.  0.
          2    1    1    2  501    0  0.39162040726E+03 -0.84763497544E+03 -0.93541455115E+03  0.13216852793E+04  0.00000000000E+00 0. -1.
          1    1    1    2  502    0  0.42109569024E+02  0.84584479306E+01  0.99441892865E+02  0.10832105613E+03  0.00000000000E+00 0. -1.
         22    1    3    3    0    0 -0.16084832444E+03  0.41373596380E+03  0.38385053440E+03  0.58684824612E+03  0.00000000000E+00 0. -1.
         22    1    3    3    0    0 -0.27288165184E+03  0.42544056372E+03  0.32750955060E+03  0.60226785976E+03  0.00000000000E+00 0. -1.
</event>
<event>
 7    1  0.6999029E-005  0.1374052E+03  0.7818608E-02  0.1373426E+00
          2   -1    0    0  502    0  0.00000000000E+00  0.00000000000E+00  0.12610512628E+04  0.12610512628E+04  0.00000000000E+00 0. -1.
          1   -1    0    0  501    0 -0.00000000000E+00 -0.00000000000E+00 -0.27865899693E+03  0.27865899693E+03  0.00000000000E+00 0. -1.
         25    2    1    2    0    0  0.62206247127E+02 -0.12688204949E+03 -0.63254240294E+01  0.18876967722E+03  0.12500123353E+03 0.  0.
          2    1    1    2  501    0  0.24572744038E+02  0.20368959793E+02 -0.17563436527E+03  0.17851090873E+03  0.00000000000E+00 0. -1.
          1    1    1    2  502    0 -0.86778991165E+02  0.10651308970E+03  0.11643520552E+04  0.11724296738E+04  0.00000000000E+00 0. -1.
         22    1    3    3    0    0  0.41379182423E+02 -0.58268121034E+02 -0.64626908482E+02  0.96353764674E+02  0.00000000000E+00 0.  1.
         22    1    3    3    0    0  0.20827064704E+02 -0.68613928454E+02  0.58301484452E+02  0.92415912544E+02  0.00000000000E+00 0.  1.
</event>
<event>
 7    1  0.6999029E-005  0.4631635E+03  0.7818608E-02  0.1095284E+00
          2   -1    0    0  502    0  0.00000000000E+00  0.00000000000E+00  0.17583493613E+04  0.17583493613E+04  0.00000000000E+00 0. -1.
          1   -1    0    0  501    0 -0.00000000000E+00 -0.00000000000E+00 -0.95222911404E+03  0.95222911404E+03  0.00000000000E+00 0. -1.
         25    2    1    2    0    0  0.10813045787E+03 -0.43509766159E+03 -0.15552011487E+03  0.49072782648E+03  0.12500049005E+03 0.  0.
          2    1    1    2  501    0  0.56348803855E+02  0.47873632922E+03 -0.53121746981E+03  0.71732535216E+03  0.00000000000E+00 0. -1.
          1    1    1    2  502    0 -0.16447926173E+03 -0.43638667631E+02  0.14928578319E+04  0.15025252967E+04  0.00000000000E+00 0. -1.
         22    1    3    3    0    0 -0.15428986319E+02 -0.16095865201E+03 -0.27976533522E+02  0.16409883516E+03  0.00000000000E+00 0.  1.
         22    1    3    3    0    0  0.12355944419E+03 -0.27413900958E+03 -0.12754358135E+03  0.32662899132E+03  0.00000000000E+00 0.  1.
</event>
<event>
 7    1  0.6999029E-005  0.3575781E+03  0.7818608E-02  0.1107227E+00
          2   -1    0    0  502    0  0.00000000000E+00  0.00000000000E+00  0.19121647967E+04  0.19121647967E+04  0.00000000000E+00 0. -1.
          1   -1    0    0  501    0 -0.00000000000E+00 -0.00000000000E+00 -0.10117754735E+04  0.10117754735E+04  0.00000000000E+00 0. -1.
         25    2    1    2    0    0 -0.19806341762E+03  0.42656964973E+03  0.38045635772E+03  0.61770812734E+03  0.12500202790E+03 0.  0.
          2    1    1    2  501    0 -0.42668050305E+02 -0.18396446098E+03 -0.86211268999E+03  0.88255412053E+03  0.00000000000E+00 0. -1.
          1    1    1    2  502    0  0.24073146793E+03 -0.24260518876E+03  0.13820456555E+04  0.14236780223E+04  0.00000000000E+00 0. -1.
         22    1    3    3    0    0  0.54931397453E+01  0.59787808211E+02  0.87254961265E+02  0.10591593299E+03  0.00000000000E+00 0.  1.
         22    1    3    3    0    0 -0.20355655737E+03  0.36678184152E+03  0.29320139645E+03  0.51179219435E+03  0.00000000000E+00 0.  1.
</event>
<event>
 7    1  0.6999029E-005  0.1900002E+03  0.7818608E-02  0.1302992E+00
          2   -1    0    0  502    0  0.00000000000E+00  0.00000000000E+00  0.30596490411E+03  0.30596490411E+03  0.00000000000E+00 0. -1.
          1   -1    0    0  501    0 -0.00000000000E+00 -0.00000000000E+00 -0.82974665862E+03  0.82974665862E+03  0.00000000000E+00 0. -1.
         25    2    1    2    0    0 -0.18216937737E+03  0.10108002802E+03 -0.20602239589E+03  0.31856534353E+03  0.12504317804E+03 0.  0.
          2    1    1    2  501    0  0.37901585146E+02  0.19397240023E+02 -0.53110841300E+03  0.53281228349E+03  0.00000000000E+00 0. -1.
          1    1    1    2  502    0  0.14426779222E+03 -0.12047726804E+03  0.21334905439E+03  0.28433393571E+03  0.00000000000E+00 0. -1.
         22    1    3    3    0    0 -0.37670910398E+02  0.67496367068E+02 -0.18540316019E+02  0.79489624327E+02  0.00000000000E+00 0. -1.
         22    1    3    3    0    0 -0.14449846697E+03  0.33583660951E+02 -0.18748207987E+03  0.23907571920E+03  0.00000000000E+00 0. -1.
</event>
<event>
 7    1  0.6999029E-005  0.1130741E+03  0.7818608E-02  0.1303122E+00
          2   -1    0    0  502    0  0.00000000000E+00  0.00000000000E+00  0.90328432619E+03  0.90328432619E+03  0.00000000000E+00 0. -1.
          1   -1    0    0  501    0 -0.00000000000E+00 -0.00000000000E+00 -0.11026364078E+03  0.11026364078E+03  0.00000000000E+00 0. -1.
         25    2    1    2    0    0  0.52617475933E+02  0.13889153653E+03  0.48771337161E+03  0.52492671983E+03  0.12499708256E+03 0.  0.
          2    1    1    2  501    0  0.13128680388E+02 -0.11090025204E+03 -0.52747919614E+02  0.12350534877E+03  0.00000000000E+00 0. -1.
          1    1    1    2  502    0 -0.65746156321E+02 -0.27991284497E+02  0.35805523341E+03  0.36511589838E+03  0.00000000000E+00 0. -1.
         22    1    3    3    0    0  0.82691869801E+02  0.13690847459E+03  0.44312967286E+03  0.47111122117E+03  0.00000000000E+00 0.  1.
         22    1    3    3    0    0 -0.30074393868E+02  0.19830619409E+01  0.44583698750E+02  0.53815498654E+02  0.00000000000E+00 0.  1.
</event>
<event>
 7    1  0.6999029E-005  0.7792668E+02  0.7818608E-02  0.1420534E+00
          2   -1    0    0  502    0  0.00000000000E+00  0.00000000000E+00  0.55089909893E+03  0.55089909893E+03  0.00000000000E+00 0. -1.
          1   -1    0    0  501    0 -0.00000000000E+00 -0.00000000000E+00 -0.69420647944E+02  0.69420647944E+02  0.00000000000E+00 0. -1.
         25    2    1    2    0    0  0.10846952119E+03  0.28826677051E+02  0.84798261352E+02  0.18818217030E+03  0.12500067902E+03 0.  0.
          2    1    1    2  501    0 -0.38688586533E+02  0.12569428808E+00  0.12586888441E+02  0.40684791847E+02  0.00000000000E+00 0. -1.
          1    1    1    2  502    0 -0.69780934656E+02 -0.28952371339E+02  0.38409330119E+03  0.39145278473E+03  0.00000000000E+00 0. -1.
         22    1    3    3    0    0  0.80929648165E+02  0.55658673078E+02  0.10580476694E+03  0.14436808702E+03  0.00000000000E+00 0. -1.
         22    1    3    3    0    0  0.27539873024E+02 -0.26831996027E+02 -0.21006505592E+02  0.43814083285E+02  0.00000000000E+00 0. -1.
</event>
<event>
 7    1  0.1204194E-004  0.1991907E+04  0.7818608E-02  0.1064889E+00
          2   -1    0    0  502    0  0.00000000000E+00  0.00000000000E+00  0.17798533967E+04  0.17798533967E+04  0.00000000000E+00 0. -1.
          1   -1    0    0  501    0 -0.00000000000E+00 -0.00000000000E+00 -0.29792614460E+04  0.29792614460E+04  0.00000000000E+00 0. -1.
         25    2    1    2    0    0 -0.70174213186E+03  0.18894260097E+04 -0.65351085351E+03  0.21225154013E+04  0.12499010894E+03 0.  0.
          2    1    1    2  501    0 -0.27668571107E+02 -0.52772938122E+02 -0.65470822843E+03  0.65741417478E+03  0.00000000000E+00 0. -1.
          1    1    1    2  502    0  0.72941070297E+03 -0.18366530715E+04  0.10881103263E+03  0.19791852666E+04  0.00000000000E+00 0. -1.
         22    1    3    3    0    0 -0.52157960672E+03  0.15422945768E+04 -0.51500705589E+03  0.17076153301E+04  0.00000000000E+00 0.  1.
         22    1    3    3    0    0 -0.18016252514E+03  0.34713143285E+03 -0.13850379762E+03  0.41490007121E+03  0.00000000000E+00 0.  1.
</event>
<event>
 7    1  0.6999029E-005  0.3763684E+03  0.7818608E-02  0.1226625E+00
          2   -1    0    0  502    0  0.00000000000E+00  0.00000000000E+00  0.97097331121E+03  0.97097331121E+03  0.00000000000E+00 0. -1.
          1   -1    0    0  501    0 -0.00000000000E+00 -0.00000000000E+00 -0.54998484757E+03  0.54998484757E+03  0.00000000000E+00 0. -1.
         25    2    1    2    0    0  0.20871788812E+03 -0.35029210033E+03  0.28513573683E+03  0.51302601875E+03  0.12500238050E+03 0.  0.
          2    1    1    2  501    0 -0.16829777876E+03  0.32985813632E+03 -0.35618893546E+03  0.51381036402E+03  0.00000000000E+00 0. -1.
          1    1    1    2  502    0 -0.40420109356E+02  0.20433964010E+02  0.49204166226E+03  0.49412177601E+03  0.00000000000E+00 0. -1.
         22    1    3    3    0    0  0.15418850354E+03 -0.17699040758E+03  0.10488027397E+03  0.25709836807E+03  0.00000000000E+00 0. -1.
         22    1    3    3    0    0  0.54529384581E+02 -0.17330169275E+03  0.18025546286E+03  0.25592765068E+03  0.00000000000E+00 0. -1.
</event>
<event>
 7    1  0.6999029E-005  0.8050934E+02  0.7818608E-02  0.1334886E+00
          2   -1    0    0  502    0  0.00000000000E+00  0.00000000000E+00  0.35025499943E+04  0.35025499943E+04  0.00000000000E+00 0. -1.
          1   -1    0    0  501    0 -0.00000000000E+00 -0.00000000000E+00 -0.37394241650E+03  0.37394241650E+03  0.00000000000E+00 0. -1.
         25    2    1    2    0    0 -0.14095680053E+03 -0.42160285329E+02  0.26777391097E+03  0.33011162439E+03  0.12499803154E+03 0.  0.
          2    1    1    2  501    0  0.65490146482E+02  0.45222445504E+02 -0.33770204146E+03  0.34695345173E+03  0.00000000000E+00 0. -1.
          1    1    1    2  502    0  0.75466654048E+02 -0.30621601751E+01  0.31985357083E+04  0.31994273346E+04  0.00000000000E+00 0. -1.
         22    1    3    3    0    0 -0.73012371484E+02  0.42487417297E+02  0.12046026499E+03  0.14712804783E+03  0.00000000000E+00 0.  1.
         22    1    3    3    0    0 -0.67944429046E+02 -0.84647702626E+02  0.14731364598E+03  0.18298357656E+03  0.00000000000E+00 0.  1.
</event>
<event>
 7    1  0.6999029E-005  0.2451118E+03  0.7818608E-02  0.1287383E+00
          2   -1    0    0  502    0  0.00000000000E+00  0.00000000000E+00  0.14137961635E+04  0.14137961635E+04  0.00000000000E+00 0. -1.
          1   -1    0    0  501    0 -0.00000000000E+00 -0.00000000000E+00 -0.34867800040E+03  0.34867800040E+03  0.00000000000E+00 0. -1.
         25    2    1    2    0    0  0.22929029472E+03  0.38544574417E+02 -0.15255954503E+03  0.30489209039E+03  0.12500019415E+03 0.  0.
          2    1    1    2  501    0 -0.26740285358E+03 -0.40301783231E+02  0.33158039920E+02  0.27244811514E+03  0.00000000000E+00 0. -1.
          1    1    1    2  502    0  0.38112558860E+02  0.17572088144E+01  0.11845196682E+04  0.11851339584E+04  0.00000000000E+00 0. -1.
         22    1    3    3    0    0  0.17492105160E+03  0.25380090087E+01 -0.16269197638E+03  0.23889850347E+03  0.00000000000E+00 0. -1.
         22    1    3    3    0    0  0.54369243121E+02  0.36006565408E+02  0.10132431353E+02  0.65993586925E+02  0.00000000000E+00 0. -1.
</event>
<event>
 7    1  0.6999029E-005  0.1001223E+04  0.7818608E-02  0.1008140E+00
          2   -1    0    0  502    0  0.00000000000E+00  0.00000000000E+00  0.24390080465E+04  0.24390080465E+04  0.00000000000E+00 0. -1.
          1   -1    0    0  501    0 -0.00000000000E+00 -0.00000000000E+00 -0.31395712674E+04  0.31395712674E+04  0.00000000000E+00 0. -1.
         25    2    1    2    0    0 -0.69469796074E+03  0.96632240144E+03  0.92057213638E+03  0.15097894238E+04  0.12500722225E+03 0.  0.
          2    1    1    2  501    0  0.70435888468E+03 -0.69412613676E+03 -0.27422261145E+04  0.29150877509E+04  0.00000000000E+00 0. -1.
          1    1    1    2  502    0 -0.96609239374E+01 -0.27219626467E+03  0.11210907573E+04  0.11537021392E+04  0.00000000000E+00 0. -1.
         22    1    3    3    0    0 -0.27558772604E+03  0.37259888963E+03  0.28303898201E+03  0.54303737683E+03  0.00000000000E+00 0. -1.
         22    1    3    3    0    0 -0.41911023470E+03  0.59372351181E+03  0.63753315437E+03  0.96675204692E+03  0.00000000000E+00 0. -1.
</event>
<event>
 7    1  0.6999029E-005  0.9534927E+02  0.7818608E-02  0.1461383E+00
          2   -1    0    0  502    0  0.00000000000E+00  0.00000000000E+00  0.42913910973E+02  0.42913910973E+02  0.00000000000E+00 0. -1.
          1   -1    0    0  501    0 -0.00000000000E+00 -0.00000000000E+00 -0.49476596307E+03  0.49476596307E+03  0.00000000000E+00 0. -1.
         25    2    1    2    0    0 -0.95726642614E+02  0.31799124921E+02 -0.29681569923E+03  0.33748182888E+03  0.12497860243E+03 0.  0.
          2    1    1    2  501    0  0.79213398423E+02 -0.48251009100E+02 -0.14998444427E+03  0.17634697585E+03  0.00000000000E+00 0. -1.
          1    1    1    2  502    0  0.16513244190E+02  0.16451884179E+02 -0.50519085976E+01  0.23851069310E+02  0.00000000000E+00 0. -1.
         22    1    3    3    0    0  0.48428712608E+01 -0.37771429285E+02 -0.78532594220E+02  0.87278305593E+02  0.00000000000E+00 0. -1.
         22    1    3    3    0    0 -0.10056951387E+03  0.69570554206E+02 -0.21828310501E+03  0.25020352329E+03  0.00000000000E+00 0. -1.
</event>
<event>
 7    1  0.6999029E-005  0.4990581E+02  0.7818608E-02  0.1447511E+00
          2   -1    0    0  502    0  0.00000000000E+00  0.00000000000E+00  0.13486255480E+04  0.13486255480E+04  0.00000000000E+00 0. -1.
          1   -1    0    0  501    0 -0.00000000000E+00 -0.00000000000E+00 -0.43380335441E+03  0.43380335441E+03  0.00000000000E+00 0. -1.
         25    2    1    2    0    0  0.69776536296E+01  0.94745747948E+02  0.11935330104E+03  0.19721995038E+03  0.12500021582E+03 0.  0.
          2    1    1    2  501    0  0.97734290115E+01 -0.48317713688E+02 -0.39281715734E+03  0.39589827036E+03  0.00000000000E+00 0. -1.
          1    1    1    2  502    0 -0.16751082641E+02 -0.46428034260E+02  0.11882860499E+04  0.11893106817E+04  0.00000000000E+00 0. -1.
         22    1    3    3    0    0 -0.15554098314E+02  0.14533142623E+02 -0.23585500138E+02  0.31771339689E+02  0.00000000000E+00 0.  1.
         22    1    3    3    0    0  0.22531751944E+02  0.80212605324E+02  0.14293880118E+03  0.16544861069E+03  0.00000000000E+00 0.  1.
</event>
<event>
 7    1  0.6999029E-005  0.8740548E+02  0.7818608E-02  0.1346468E+00
          2   -1    0    0  502    0  0.00000000000E+00  0.00000000000E+00  0.10341248725E+04  0.10341248725E+04  0.00000000000E+00 0. -1.
          1   -1    0    0  501    0 -0.00000000000E+00 -0.00000000000E+00 -0.14618843625E+04  0.14618843625E+04  0.00000000000E+00 0. -1.
         25    2    1    2    0    0  0.67536766585E+02  0.37533660702E+02  0.61354987583E+03  0.63090465691E+03  0.12500898148E+03 0.  0.
          2    1    1    2  501    0 -0.84365759301E+02  0.23109538004E+02 -0.14494767249E+04  0.14521137724E+04  0.00000000000E+00 0. -1.
          1    1    1    2  502    0  0.16828992716E+02 -0.60643198707E+02  0.40816735903E+03  0.41299080561E+03  0.00000000000E+00 0. -1.
         22    1    3    3    0    0  0.95904409882E+02  0.37965838885E+02  0.56764522346E+03  0.57694034395E+03  0.00000000000E+00 0.  1.
         22    1    3    3    0    0 -0.28367643296E+02 -0.43217818240E+00  0.45904652370E+02  0.53964312961E+02  0.00000000000E+00 0.  1.
</event>
<event>
 7    1  0.6999029E-005  0.5362677E+03  0.7818608E-02  0.1141771E+00
          2   -1    0    0  502    0  0.00000000000E+00  0.00000000000E+00  0.18278276806E+04  0.18278276806E+04  0.00000000000E+00 0. -1.
          1   -1    0    0  501    0 -0.00000000000E+00 -0.00000000000E+00 -0.13282000211E+04  0.13282000211E+04  0.00000000000E+00 0. -1.
         25    2    1    2    0    0  0.53204792790E+03  0.10655145234E+03  0.43080788514E+03  0.70402336706E+03  0.12500103156E+03 0.  0.
          2    1    1    2  501    0 -0.28949009396E+02  0.76754754738E+02 -0.11331743784E+04  0.11361397403E+04  0.00000000000E+00 0. -1.
          1    1    1    2  502    0 -0.50309891850E+03 -0.18330620708E+03  0.12019941528E+04  0.13158645944E+04  0.00000000000E+00 0. -1.
         22    1    3    3    0    0  0.14648279263E+03  0.10971519654E+02  0.54007996231E+02  0.15650701722E+03  0.00000000000E+00 0.  1.
         22    1    3    3    0    0  0.38556513527E+03  0.95579932690E+02  0.37679988891E+03  0.54751634984E+03  0.00000000000E+00 0.  1.
</event>
<event>
 7    1  0.6999029E-005  0.2687571E+03  0.7818608E-02  0.1271198E+00
          2   -1    0    0  502    0  0.00000000000E+00  0.00000000000E+00  0.29132095018E+03  0.29132095018E+03  0.00000000000E+00 0. -1.
          1   -1    0    0  501    0 -0.00000000000E+00 -0.00000000000E+00 -0.17618636944E+04  0.17618636944E+04  0.00000000000E+00 0. -1.
         25    2    1    2    0    0  0.16115429167E+03 -0.24462889866E+03 -0.15111922020E+04  0.15443903758E+04  0.12500303133E+03 0.  0.
          2    1    1    2  501    0  0.10617281249E+02  0.39184109651E+02 -0.16577640903E+03  0.17067495101E+03  0.00000000000E+00 0. -1.
          1    1    1    2  502    0 -0.17177157292E+03  0.20544478901E+03  0.20642586675E+03  0.33811931778E+03  0.00000000000E+00 0. -1.
         22    1    3    3    0    0  0.15072125297E+03 -0.12724409473E+03 -0.10509001220E+04  0.10692516178E+04  0.00000000000E+00 0.  1.
         22    1    3    3    0    0  0.10433038696E+02 -0.11738480393E+03 -0.46029207994E+03  0.47513875799E+03  0.00000000000E+00 0.  1.
</event>
<event>
 7    1  0.6999029E-005  0.1502964E+03  0.7818608E-02  0.1251547E+00
          2   -1    0    0  502    0  0.00000000000E+00  0.00000000000E+00  0.21133261621E+04  0.21133261621E+04  0.00000000000E+00 0. -1.
          1   -1    0    0  501    0 -0.00000000000E+00 -0.00000000000E+00 -0.16241229167E+03  0.16241229167E+03  0.00000000000E+00 0. -1.
         25    2    1    2    0    0 -0.40262878631E+02 -0.10369570385E+03  0.97605895744E+03  0.99029897605E+03  0.12500830048E+03 0.  0.
          2    1    1    2  501    0 -0.40016763514E+02 -0.78400099173E+02 -0.13319956282E+03  0.15965600662E+03  0.00000000000E+00 0. -1.
          1    1    1    2  502    0  0.80279642145E+02  0.18209580302E+03  0.11080544758E+04  0.11257834711E+04  0.00000000000E+00 0. -1.
         22    1    3    3    0    0 -0.78386846030E+02 -0.88276342542E+02  0.56586981657E+03  0.57805350928E+03  0.00000000000E+00 0.  1.
         22    1    3    3    0    0  0.38123967399E+02 -0.15419361306E+02  0.41018914086E+03  0.41224546677E+03  0.00000000000E+00 0.  1.
</event>
<event>
 7    1  0.6999029E-005  0.1151186E+03  0.7818608E-02  0.1296708E+00
          2   -1    0    0  502    0  0.00000000000E+00  0.00000000000E+00  0.71063503854E+02  0.71063503854E+02  0.00000000000E+00 0. -1.
          1   -1    0    0  501    0 -0.00000000000E+00 -0.00000000000E+00 -0.20179092164E+04  0.20179092164E+04  0.00000000000E+00 0. -1.
         25    2    1    2    0    0 -0.96223074869E+02 -0.17354294065E+02 -0.54648917462E+03  0.56906563658E+03  0.12500091641E+03 0.  0.
          2    1    1    2  501    0  0.10975377679E+03 -0.55869316853E+02 -0.14332290780E+04  0.14385106403E+04  0.00000000000E+00 0. -1.
          1    1    1    2  502    0 -0.13530701917E+02  0.73223610918E+02  0.32872540163E+02  0.81396443331E+02  0.00000000000E+00 0. -1.
         22    1    3    3    0    0 -0.12347764961E+03 -0.22697207188E+02 -0.49373821419E+03  0.50945001455E+03  0.00000000000E+00 0.  1.
         22    1    3    3    0    0  0.27254574740E+02  0.53429131228E+01 -0.52750960428E+02  0.59615622038E+02  0.00000000000E+00 0.  1.
</event>
<event>
 7    1  0.6999029E-005  0.3549045E+02  0.7818608E-02  0.1558184E+00
          2   -1    0    0  502    0  0.00000000000E+00  0.00000000000E+00  0.11115864928E+04  0.11115864928E+04  0.00000000000E+00 0. -1.
          1   -1    0    0  501    0 -0.00000000000E+00 -0.00000000000E+00 -0.16783751815E+02  0.16783751815E+02  0.00000000000E+00 0. -1.
         25    2    1    2    0    0  0.16965075847E+02 -0.80308186996E+01  0.37541706073E+03  0.39612631711E+03  0.12500312708E+03 0.  0.
          2    1    1    2  501    0  0.50680218316E+01  0.35853729958E+02  0.49041972013E+02  0.60961379710E+02  0.00000000000E+00 0. -1.
          1    1    1    2  502    0 -0.22033097678E+02 -0.27822911258E+02  0.67034370825E+03  0.67128254780E+03  0.00000000000E+00 0. -1.
         22    1    3    3    0    0 -0.37355504963E+02  0.25096245825E+02  0.63767514198E+02  0.78048389942E+02  0.00000000000E+00 0.  1.
         22    1    3    3    0    0  0.54320580810E+02 -0.33127064524E+02  0.31164954653E+03  0.31807792717E+03  0.00000000000E+00 0.  1.
</event>
<event>
 7    1  0.6999029E-005  0.4317145E+03  0.7818608E-02  0.1244920E+00
          2   -1    0    0  502    0  0.00000000000E+00  0.00000000000E+00  0.50363953778E+03  0.50363953778E+03  0.00000000000E+00 0. -1.
          1   -1    0    0  501    0 -0.00000000000E+00 -0.00000000000E+00 -0.17324654879E+04  0.17324654879E+04  0.00000000000E+00 0. -1.
         25    2    1    2    0    0 -0.33676869151E+03 -0.30746480397E+03 -0.25528726717E+03  0.53734901060E+03  0.12499845259E+03 0.  0.
          2    1    1    2  501    0  0.18759484476E+02  0.26841839540E+02 -0.12118330777E+04  0.12122754682E+04  0.00000000000E+00 0. -1.
          1    1    1    2  502    0  0.31800920703E+03  0.28062296443E+03  0.23829439474E+03  0.48648054688E+03  0.00000000000E+00 0. -1.
         22    1    3    3    0    0 -0.20982827312E+03 -0.26672259790E+03 -0.18935273391E+03  0.38861717187E+03  0.00000000000E+00 0. -1.
         22    1    3    3    0    0 -0.12694041839E+03 -0.40742206069E+02 -0.65934533266E+02  0.14873183873E+03  0.00000000000E+00 0. -1.
</event>
<event>
 7    1  0.6999029E-005  0.1869822E+03  0.7818608E-02  0.1344751E+00
          2   -1    0    0  502    0  0.00000000000E+00  0.00000000000E+00  0.10151624630E+04  0.10151624630E+04  0.00000000000E+00 0. -1.
          1   -1    0    0  501    0 -0.00000000000E+00 -0.00000000000E+00 -0.53777507534E+03  0.53777507534E+03  0.00000000000E+00 0. -1.
         25    2    1    2    0    0  0.14796977284E+03  0.14597451753E+03  0.40889656021E+03  0.47542101168E+03  0.12500051180E+03 0.  0.
          2    1    1    2  501    0 -0.14549149629E+03 -0.11622135950E+03 -0.48691573302E+03  0.52130807682E+03  0.00000000000E+00 0. -1.
          1    1    1    2  502    0 -0.24782765459E+01 -0.29753158031E+02  0.55540656046E+03  0.55620844984E+03  0.00000000000E+00 0. -1.
         22    1    3    3    0    0  0.33734140491E+02  0.10765937281E+03  0.26316919970E+03  0.28633295384E+03  0.00000000000E+00 0.  1.
         22    1    3    3    0    0  0.11423563235E+03  0.38315144724E+02  0.14572736052E+03  0.18908805784E+03  0.00000000000E+00 0.  1.
</event>
<event>
 7    1  0.6999029E-005  0.4627315E+03  0.7818608E-02  0.1173316E+00
          2   -1    0    0  502    0  0.00000000000E+00  0.00000000000E+00  0.22070695675E+04  0.22070695675E+04  0.00000000000E+00 0. -1.
          1   -1    0    0  501    0 -0.00000000000E+00 -0.00000000000E+00 -0.44449127426E+03  0.44449127426E+03  0.00000000000E+00 0. -1.
         25    2    1    2    0    0  0.79479682067E+02 -0.44076738701E+03  0.33403479686E+03  0.57253128998E+03  0.12497969106E+03 0.  0.
          2    1    1    2  501    0 -0.60237739946E+02 -0.26339330902E+02 -0.29034712343E+03  0.29769749369E+03  0.00000000000E+00 0. -1.
          1    1    1    2  502    0 -0.19241942121E+02  0.46710671791E+03  0.17188906199E+04  0.17813320581E+04  0.00000000000E+00 0. -1.
         22    1    3    3    0    0  0.59412069784E+02 -0.38988291197E+03  0.23416407091E+03  0.45866250249E+03  0.00000000000E+00 0.  1.
         22    1    3    3    0    0  0.20067612283E+02 -0.50884475036E+02  0.99870725949E+02  0.11386878749E+03  0.00000000000E+00 0.  1.
</event>
<event>
 7    1  0.6999029E-005  0.1701575E+03  0.7818608E-02  0.1210549E+00
          2   -1    0    0  502    0  0.00000000000E+00  0.00000000000E+00  0.14141940695E+04  0.14141940695E+04  0.00000000000E+00 0. -1.
          1   -1    0    0  501    0 -0.00000000000E+00 -0.00000000000E+00 -0.28043800675E+03  0.28043800675E+03  0.00000000000E+00 0. -1.
         25    2    1    2    0    0 -0.11039521001E+03 -0.20715858914E+03  0.14527267812E+03  0.30303670338E+03  0.12500123655E+03 0.  0.
          2    1    1    2  501    0  0.11172355757E+03  0.39933818612E+02 -0.17759806557E+03  0.21358355761E+03  0.00000000000E+00 0. -1.
          1    1    1    2  502    0 -0.13283475622E+01  0.16722477053E+03  0.11660814502E+04  0.11780118153E+04  0.00000000000E+00 0. -1.
         22    1    3    3    0    0 -0.60338203765E+02 -0.14190732619E+02  0.11724038624E+02  0.63083506620E+02  0.00000000000E+00 0.  1.
         22    1    3    3    0    0 -0.50057006245E+02 -0.19296785652E+03  0.13354863950E+03  0.23995319676E+03  0.00000000000E+00 0.  1.
</event>
<event>
 7    1  0.7384409E-005  0.1709617E+03  0.7818608E-02  0.1271348E+00
          2   -1    0    0  502    0  0.00000000000E+00  0.00000000000E+00  0.15922418746E+04  0.15922418746E+04  0.00000000000E+00 0. -1.
          1   -1    0    0  501    0 -0.00000000000E+00 -0.00000000000E+00 -0.74489404476E+03  0.74489404476E+03  0.00000000000E+00 0. -1.
         25    2    1    2    0    0 -0.17206202729E+03  0.26262313499E+02 -0.80306053964E+02  0.22884274834E+03  0.12499956327E+03 0.  0.
          2    1    1    2  501    0  0.14925950876E+03 -0.85770700901E+02 -0.57708044327E+03  0.60220997342E+03  0.00000000000E+00 0. -1.
          1    1    1    2  502    0  0.22802518526E+02  0.59508387401E+02  0.15047343271E+04  0.15060831976E+04  0.00000000000E+00 0. -1.
         22    1    3    3    0    0 -0.20971639892E+02 -0.37254474250E+02 -0.43238036889E+02  0.60804879453E+02  0.00000000000E+00 0. -1.
         22    1    3    3    0    0 -0.15109038740E+03  0.63516787749E+02 -0.37068017076E+02  0.16803786888E+03  0.00000000000E+00 0. -1.
</event>
<event>
 7    1  0.6999029E-005  0.3473861E+03  0.7818608E-02  0.1238014E+00
          2   -1    0    0  502    0  0.00000000000E+00  0.00000000000E+00  0.87349482056E+03  0.87349482056E+03  0.00000000000E+00 0. -1.
          1   -1    0    0  501    0 -0.00000000000E+00 -0.00000000000E+00 -0.12109123067E+04  0.12109123067E+04  0.00000000000E+00 0. -1.
         25    2    1    2    0    0  0.36255505057E+03  0.61958911103E+02 -0.34233906342E+03  0.51778762436E+03  0.12499167267E+03 0.  0.
          2    1    1    2  501    0 -0.33828989451E+03 -0.25679390977E+02 -0.74333223301E+03  0.81709380886E+03  0.00000000000E+00 0. -1.
          1    1    1    2  502    0 -0.24265156065E+02 -0.36279520126E+02  0.74825381030E+03  0.74952569403E+03  0.00000000000E+00 0. -1.
         22    1    3    3    0    0  0.28960023160E+03  0.69701055623E+02 -0.32793714795E+03  0.44302291623E+03  0.00000000000E+00 0. -1.
         22    1    3    3    0    0  0.72954818971E+02 -0.77421445201E+01 -0.14401915473E+02  0.74764708133E+02  0.00000000000E+00 0. -1.
</event>
<event>
 7    1  0.6999029E-005  0.4365621E+03  0.7818608E-02  0.1169328E+00
          2   -1    0    0  502    0  0.00000000000E+00  0.00000000000E+00  0.16112353923E+04  0.16112353923E+04  0.00000000000E+00 0. -1.
          1   -1    0    0  501    0 -0.00000000000E+00 -0.00000000000E+00 -0.13582542807E+04  0.13582542807E+04  0.00000000000E+00 0. -1.
         25    2    1    2    0    0 -0.41597164520E+03 -0.98040391583E+02  0.28801778455E+03  0.53030504198E+03  0.12499946135E+03 0.  0.
          2    1    1    2  501    0  0.91072391696E+01 -0.72359193355E+02 -0.11954955354E+04  0.11977179843E+04  0.00000000000E+00 0. -1.
          1    1    1    2  502    0  0.40686440603E+03  0.17039958494E+03  0.11604588625E+04  0.12414666467E+04  0.00000000000E+00 0. -1.
         22    1    3    3    0    0 -0.21634453267E+03 -0.11186720754E+03  0.18045500700E+03  0.30312248100E+03  0.00000000000E+00 0.  1.
         22    1    3    3    0    0 -0.19962711253E+03  0.13826815954E+02  0.10756277755E+03  0.22718256098E+03  0.00000000000E+00 0.  1.
</event>
<event>
 7    1  0.6999029E-005  0.2129968E+03  0.7818608E-02  0.1161636E+00
          2   -1    0    0  502    0  0.00000000000E+00  0.00000000000E+00  0.29099406092E+03  0.29099406092E+03  0.00000000000E+00 0. -1.
          1   -1    0    0  501    0 -0.00000000000E+00 -0.00000000000E+00 -0.18277799331E+04  0.18277799331E+04  0.00000000000E+00 0. -1.
         25    2    1    2    0    0 -0.13045007957E+03 -0.34561657239E+03 -0.83513133959E+02  0.39883018364E+03  0.12499213362E+03 0.  0.
          2    1    1    2  501    0  0.69941015358E+02  0.19389910319E+03 -0.15269193427E+04  0.15407697060E+04  0.00000000000E+00 0. -1.
          1    1    1    2  502    0  0.60509064208E+02  0.15171746920E+03  0.73646604507E+02  0.17917410434E+03  0.00000000000E+00 0. -1.
         22    1    3    3    0    0 -0.12028046067E+03 -0.15121838162E+03 -0.62286418040E+02  0.20301228049E+03  0.00000000000E+00 0.  1.
         22    1    3    3    0    0 -0.10169618897E+02 -0.19439819077E+03 -0.21226715919E+02  0.19581790315E+03  0.00000000000E+00 0.  1.
</event>
<event>
 7    1  0.6999029E-005  0.2775304E+03  0.7818608E-02  0.1143141E+00
          2   -1    0    0  502    0  0.00000000000E+00  0.00000000000E+00  0.18856000556E+04  0.18856000556E+04  0.00000000000E+00 0. -1.
          1   -1    0    0  501    0 -0.00000000000E+00 -0.00000000000E+00 -0.61330411764E+03  0.61330411764E+03  0.00000000000E+00 0. -1.
         25    2    1    2    0    0 -0.27883747903E+03 -0.28379296189E+03  0.75159067396E+03  0.85953511910E+03  0.12499317921E+03 0.  0.
          2    1    1    2  501    0  0.12810665851E+03  0.88887632735E+02 -0.53398332851E+03  0.55628277192E+03  0.00000000000E+00 0. -1.
          1    1    1    2  502    0  0.15073082052E+03  0.19490532916E+03  0.10546885925E+04  0.10830862822E+04  0.00000000000E+00 0. -1.
         22    1    3    3    0    0 -0.52719442010E+02 -0.13180602141E+03  0.30461471282E+03  0.33606887703E+03  0.00000000000E+00 0. -1.
         22    1    3    3    0    0 -0.22611803702E+03 -0.15198694049E+03  0.44697596114E+03  0.52346624207E+03  0.00000000000E+00 0. -1.
</event>
<event>
 7    1  0.6999029E-005  0.5256369E+03  0.7818608E-02  0.1084511E+00
          2   -1    0    0  502    0  0.00000000000E+00  0.00000000000E+00  0.89259755019E+03  0.89259755019E+03  0.00000000000E+00 0. -1.
          1   -1    0    0  501    0 -0.00000000000E+00 -0.00000000000E+00 -0.23430550034E+04  0.23430550034E+04  0.00000000000E+00 0. -1.
         25    2    1    2    0    0  0.44259881014E+03 -0.32282052971E+03 -0.42802762159E+03  0.70635501086E+03  0.12499182129E+03 0.  0.
          2    1    1    2  501    0 -0.30521412855E+03  0.42779014308E+03 -0.17262944190E+04  0.18045089337E+04  0.00000000000E+00 0. -1.
          1    1    1    2  502    0 -0.13738468159E+03 -0.10496961337E+03  0.70386458735E+03  0.72478860904E+03  0.00000000000E+00 0. -1.
         22    1    3    3    0    0  0.42442987388E+03 -0.29653616721E+03 -0.43179362554E+03  0.67418109686E+03  0.00000000000E+00 0.  1.
         22    1    3    3    0    0  0.18168936263E+02 -0.26284362493E+02  0.37660039499E+01  0.32173914004E+02  0.00000000000E+00 0.  1.
</event>
<event>
 7    1  0.6999029E-005  0.6659407E+02  0.7818608E-02  0.1425574E+00
          2   -1    0    0  502    0  0.00000000000E+00  0.00000000000E+00  0.85798251719E+03  0.85798251719E+03  0.00000000000E+00 0. -1.
          1   -1    0    0  501    0 -0.00000000000E+00 -0.00000000000E+00 -0.80742736292E+03  0.80742736292E+03  0.00000000000E+00 0. -1.
         25    2    1    2    0    0  0.20640037908E+02 -0.94660055396E+02 -0.50637670232E+03  0.53049754699E+03  0.12499498172E+03 0.  0.
          2    1    1    2  501    0 -0.32355391438E+02  0.29163598051E+02 -0.28603046393E+03  0.28932821000E+03  0.00000000000E+00 0. -1.
          1    1    1    2  502    0  0.11715353530E+02  0.65496457346E+02  0.84296232053E+03  0.84558412312E+03  0.00000000000E+00 0. -1.
         22    1    3    3    0    0 -0.46356485942E+02 -0.66849531755E+02 -0.32794995397E+03  0.33788896992E+03  0.00000000000E+00 0.  1.
         22    1    3    3    0    0  0.66996523850E+02 -0.27810523641E+02 -0.17842674836E+03  0.19260857707E+03  0.00000000000E+00 0.  1.
</event>
<event>
 7    1  0.6999029E-005  0.4202769E+02  0.7818608E-02  0.1580327E+00
          2   -1    0    0  502    0  0.00000000000E+00  0.00000000000E+00  0.17969340240E+04  0.17969340240E+04  0.00000000000E+00 0. -1.
          1   -1    0    0  501    0 -0.00000000000E+00 -0.00000000000E+00 -0.33652299355E+03  0.33652299355E+03  0.00000000000E+00 0. -1.
         25    2    1    2    0    0 -0.35788257589E+02 -0.15036029511E+02 -0.10309039949E+03  0.16661259240E+03  0.12500097566E+03 0.  0.
          2    1    1    2  501    0  0.41931216730E+02 -0.80251765665E+01 -0.19933041825E+03  0.20385103883E+03  0.00000000000E+00 0. -1.
          1    1    1    2  502    0 -0.61429591409E+01  0.23061206077E+02  0.17628318482E+04  0.17629933863E+04  0.00000000000E+00 0. -1.
         22    1    3    3    0    0  0.27440138870E+02 -0.27327524533E+02 -0.93869021051E+02  0.10154382271E+03  0.00000000000E+00 0. -1.
         22    1    3    3    0    0 -0.63228396459E+02  0.12291495022E+02 -0.92213784423E+01  0.65068769690E+02  0.00000000000E+00 0. -1.
</event>
<event>
 7    1  0.6999029E-005  0.1184068E+04  0.7818608E-02  0.1054043E+00
          2   -1    0    0  502    0  0.00000000000E+00  0.00000000000E+00  0.29983235724E+04  0.29983235724E+04  0.00000000000E+00 0. -1.
          1   -1    0    0  501    0 -0.00000000000E+00 -0.00000000000E+00 -0.11370794668E+04  0.11370794668E+04  0.00000000000E+00 0. -1.
         25    2    1    2    0    0  0.91571548714E+03 -0.83311126034E+03  0.34883210175E+03  0.12922530870E+04  0.12499992094E+03 0.  0.
          2    1    1    2  501    0 -0.90170482539E+03  0.71726891912E+03 -0.16301306569E+03  0.11636664273E+04  0.00000000000E+00 0. -1.
          1    1    1    2  502    0 -0.14010661752E+02  0.11584234122E+03  0.16754250695E+04  0.16794835248E+04  0.00000000000E+00 0. -1.
         22    1    3    3    0    0  0.42684818673E+03 -0.41552748735E+03  0.10641600715E+03  0.60513373219E+03  0.00000000000E+00 0.  1.
         22    1    3    3    0    0  0.48886730041E+03 -0.41758377299E+03  0.24241609460E+03  0.68711935484E+03  0.00000000000E+00 0.  1.
</event>
<event>
 7    1  0.6999029E-005  0.6475185E+03  0.7818608E-02  0.1030524E+00
          2   -1    0    0  502    0  0.00000000000E+00  0.00000000000E+00  0.39225084395E+04  0.39225084395E+04  0.00000000000E+00 0. -1.
          1   -1    0    0  501    0 -0.00000000000E+00 -0.00000000000E+00 -0.10869448538E+04  0.10869448538E+04  0.00000000000E+00 0. -1.
         25    2    1    2    0    0 -0.58939937451E+03 -0.71530010903E+03  0.15006709635E+03  0.94720181754E+03  0.12500112435E+03 0.  0.
          2    1    1    2  501    0  0.19354918873E+03  0.22918435798E+03 -0.62481877875E+03  0.69309830809E+03  0.00000000000E+00 0. -1.
          1    1    1    2  502    0  0.39585018578E+03  0.48611575104E+03  0.33103152681E+04  0.33691531676E+04  0.00000000000E+00 0. -1.
         22    1    3    3    0    0 -0.23999372997E+03 -0.20596446263E+03  0.27082122658E+02  0.31741422724E+03  0.00000000000E+00 0. -1.
         22    1    3    3    0    0 -0.34940564454E+03 -0.50933564640E+03  0.12298497369E+03  0.62978759029E+03  0.00000000000E+00 0. -1.
</event>
<event>
 7    1  0.6999029E-005  0.9739706E+03  0.7818608E-02  0.1060153E+00
          2   -1    0    0  502    0  0.00000000000E+00  0.00000000000E+00  0.15948108303E+04  0.15948108303E+04  0.00000000000E+00 0. -1.
          1   -1    0    0  501    0 -0.00000000000E+00 -0.00000000000E+00 -0.15002456392E+04  0.15002456392E+04  0.00000000000E+00 0. -1.
         25    2    1    2    0    0  0.80597951946E+03  0.42017158417E+03  0.83886617739E+03  0.12431683921E+04  0.12499616653E+03 0.  0.
          2    1    1    2  501    0 -0.91979704476E+03 -0.35700619816E+03 -0.10973010835E+04  0.14756522954E+04  0.00000000000E+00 0. -1.
          1    1    1    2  502    0  0.11381752530E+03 -0.63165386014E+02  0.35300009714E+03  0.37623578197E+03  0.00000000000E+00 0. -1.
         22    1    3    3    0    0  0.37347380840E+03  0.25079640057E+03  0.36152370524E+03  0.57713162238E+03  0.00000000000E+00 0.  1.
         22    1    3    3    0    0  0.43250571106E+03  0.16937518360E+03  0.47734247215E+03  0.66603676973E+03  0.00000000000E+00 0.  1.
</event>
<event>
 7    1  0.6999029E-005  0.5353274E+03  0.7818608E-02  0.1101430E+00
          2   -1    0    0  502    0  0.00000000000E+00  0.00000000000E+00  0.70067696008E+03  0.70067696008E+03  0.00000000000E+00 0. -1.
          1   -1    0    0  501    0 -0.00000000000E+00 -0.00000000000E+00 -0.83143336409E+03  0.83143336409E+03  0.00000000000E+00 0. -1.
         25    2    1    2    0    0 -0.15303897260E+03  0.55710185265E+03 -0.17194543597E+03  0.61560826777E+03  0.12499962018E+03 0.  0.
          2    1    1    2  501    0 -0.95607071046E+02 -0.96600278384E+02 -0.27380111932E+03  0.30567855462E+03  0.00000000000E+00 0. -1.
          1    1    1    2  502    0  0.24864604364E+03 -0.46050157426E+03  0.31499015127E+03  0.61082350177E+03  0.00000000000E+00 0. -1.
         22    1    3    3    0    0 -0.12670381122E+03  0.51349034730E+03 -0.18935988923E+03  0.56176806620E+03  0.00000000000E+00 0. -1.
         22    1    3    3    0    0 -0.26335161378E+02  0.43611505343E+02  0.17414453264E+02  0.53840201574E+02  0.00000000000E+00 0. -1.
</event>
<event>
 7    1  0.6999029E-005  0.1490484E+04  0.7818608E-02  0.1104149E+00
          2   -1    0    0  502    0  0.00000000000E+00  0.00000000000E+00  0.41937092830E+04  0.41937092830E+04  0.00000000000E+00 0. -1.
          1   -1    0    0  501    0 -0.00000000000E+00 -0.00000000000E+00 -0.91567416248E+03  0.91567416248E+03  0.00000000000E+00 0. -1.
         25    2    1    2    0    0  0.11665970416E+04 -0.89966109857E+03  0.10608072601E+04  0.18196911141E+04  0.12499983050E+03 0.  0.
          2    1    1    2  501    0 -0.11677213918E+04  0.94677953052E+03  0.51836869492E+03  0.15901794969E+04  0.00000000000E+00 0. -1.
          1    1    1    2  502    0  0.11243502256E+01 -0.47118431949E+02  0.16988591655E+04  0.16995128346E+04  0.00000000000E+00 0. -1.
         22    1    3    3    0    0  0.15530248892E+03 -0.17646261757E+03  0.17840454257E+03  0.29510353992E+03  0.00000000000E+00 0. -1.
         22    1    3    3    0    0  0.10112945527E+04 -0.72319848100E+03  0.88240271757E+03  0.15245875741E+04  0.00000000000E+00 0. -1.
</event>
<event>
 7    1  0.6999029E-005  0.8375556E+03  0.7818608E-02  0.1109166E+00
          2   -1    0    0  502    0  0.00000000000E+00  0.00000000000E+00  0.23588850581E+04  0.23588850581E+04  0.00000000000E+00 0. -1.
          1   -1    0    0  501    0 -0.00000000000E+00 -0.00000000000E+00 -0.27641434002E+04  0.27641434002E+04  0.00000000000E+00 0. -1.
         25    2    1    2    0    0 -0.66283563544E+03 -0.57412582294E+03  0.94527628781E+03  0.12954302852E+04  0.12498329233E+03 0.  0.
          2    1    1    2  501    0  0.76652807978E+02  0.17618796421E+02 -0.24564980056E+04  0.24577568078E+04  0.00000000000E+00 0. -1.
          1    1    1    2  502    0  0.58618282746E+03  0.55650702652E+03  0.11059633756E+04  0.13698413653E+04  0.00000000000E+00 0. -1.
         22    1    3    3    0    0 -0.25049557492E+03 -0.14745907242E+03  0.34961746838E+03  0.45466975409E+03  0.00000000000E+00 0.  1.
         22    1    3    3    0    0 -0.41234006052E+03 -0.42666675053E+03  0.59565881944E+03  0.84076053112E+03  0.00000000000E+00 0.  1.
</event>
<event>
 7    1  0.6999029E-005  0.5755037E+03  0.7818608E-02  0.1151158E+00
          2   -1    0    0  502    0  0.00000000000E+00  0.00000000000E+00  0.32711339552E+04  0.32711339552E+04  0.00000000000E+00 0. -1.
          1   -1    0    0  501    0 -0.00000000000E+00 -0.00000000000E+00 -0.13298377396E+04  0.13298377396E+04  0.00000000000E+00 0. -1.
         25    2    1    2    0    0  0.52245013467E+03  0.89318650313E+02  0.41437388368E+03  0.68429804115E+03  0.12500451648E+03 0.  0.
          2    1    1    2  501    0  0.47322658265E+02  0.49313215212E+02 -0.11622762301E+04  0.11642840127E+04  0.00000000000E+00 0. -1.
          1    1    1    2  502    0 -0.56977279293E+03 -0.13863186552E+03  0.26891985620E+04  0.27523896410E+04  0.00000000000E+00 0. -1.
         22    1    3    3    0    0  0.31417989466E+03 -0.95908705556E+00  0.20249479623E+03  0.37378345142E+03  0.00000000000E+00 0. -1.
         22    1    3    3    0    0  0.20827024001E+03  0.90277737368E+02  0.21187908745E+03  0.31051458973E+03  0.00000000000E+00 0. -1.
</event>
<event>
 7    1  0.6999029E-005  0.4495716E+03  0.7818608E-02  0.1225321E+00
          2   -1    0    0  502    0  0.00000000000E+00  0.00000000000E+00  0.70182258192E+03  0.70182258192E+03  0.00000000000E+00 0. -1.
          1   -1    0    0  501    0 -0.00000000000E+00 -0.00000000000E+00 -0.12891565969E+04  0.12891565969E+04  0.00000000000E+00 0. -1.
         25    2    1    2    0    0  0.34739322670E+00  0.45367565347E+03 -0.86271347555E+02  0.47842437204E+03  0.12500166046E+03 0.  0.
          2    1    1    2  501    0  0.37835337215E+02 -0.67586146641E+01 -0.90686814130E+03  0.90768222265E+03  0.00000000000E+00 0. -1.
          1    1    1    2  502    0 -0.38182730441E+02 -0.44691703881E+03  0.40580547383E+03  0.60487258416E+03  0.00000000000E+00 0. -1.
         22    1    3    3    0    0  0.49563572160E+02  0.10406708253E+03 -0.41644791644E+02  0.12255934898E+03  0.00000000000E+00 0. -1.
         22    1    3    3    0    0 -0.49216178933E+02  0.34960857094E+03 -0.44626555911E+02  0.35586502306E+03  0.00000000000E+00 0. -1.
</event>
<event>
 7    1  0.6999029E-005  0.1175685E+04  0.7818608E-02  0.1081819E+00
          2   -1    0    0  502    0  0.00000000000E+00  0.00000000000E+00  0.80519621670E+03  0.80519621670E+03  0.00000000000E+00 0. -1.
          1   -1    0    0  501    0 -0.00000000000E+00 -0.00000000000E+00 -0.35239728762E+04  0.35239728762E+04  0.00000000000E+00 0. -1.
         25    2    1    2    0    0 -0.40645593372E+03  0.11452589860E+04 -0.13467740302E+04  0.18183096091E+04  0.12499989979E+03 0.  0.
          2    1    1    2  501    0  0.34435030830E+03 -0.10946144689E+04 -0.17675005334E+04  0.21073243950E+04  0.00000000000E+00 0. -1.
          1    1    1    2  502    0  0.62105625416E+02 -0.50644517129E+02  0.39549790405E+03  0.40353508885E+03  0.00000000000E+00 0. -1.
         22    1    3    3    0    0 -0.36087595530E+03  0.94928013020E+03 -0.11810309667E+04  0.15576258745E+04  0.00000000000E+00 0. -1.
         22    1    3    3    0    0 -0.45579978423E+02  0.19597885581E+03 -0.16574306348E+03  0.26068373453E+03  0.00000000000E+00 0. -1.
</event>
<event>
 7    1  0.6999029E-005  0.9708929E+02  0.7818608E-02  0.1372598E+00
          2   -1    0    0  502    0  0.00000000000E+00  0.00000000000E+00  0.34806366195E+04  0.34806366195E+04  0.00000000000E+00 0. -1.
          1   -1    0    0  501    0 -0.00000000000E+00 -0.00000000000E+00 -0.14480108423E+04  0.14480108423E+04  0.00000000000E+00 0. -1.
         25    2    1    2    0    0 -0.58339110475E+02 -0.97855543128E+02 -0.48786706953E+02  0.17602578230E+03  0.12500309647E+03 0.  0.
          2    1    1    2  501    0  0.45449300572E+02  0.16733891448E+01 -0.13345281575E+04  0.13353029028E+04  0.00000000000E+00 0. -1.
          1    1    1    2  502    0  0.12889809903E+02  0.96182153983E+02  0.34159406417E+04  0.34173187767E+04  0.00000000000E+00 0. -1.
         22    1    3    3    0    0  0.21023848832E+02 -0.85187733276E+02 -0.15814831380E+02  0.89157506762E+02  0.00000000000E+00 0.  1.
         22    1    3    3    0    0 -0.79362959307E+02 -0.12667809852E+02 -0.32971875573E+02  0.86868275540E+02  0.00000000000E+00 0.  1.
</event>
<event>
 7    1  0.6999029E-005  0.3449009E+03  0.7818608E-02  0.1146443E+00
          2   -1    0    0  502    0  0.00000000000E+00  0.00000000000E+00  0.21754764395E+04  0.21754764395E+04  0.00000000000E+00 0. -1.
          1   -1    0    0  501    0 -0.00000000000E+00 -0.00000000000E+00 -0.84579625782E+03  0.84579625782E+03  0.00000000000E+00 0. -1.
         25    2    1    2    0    0 -0.27580123115E+03 -0.20978832880E+03  0.21010778302E+04  0.21331267456E+04  0.12499680963E+03 0.  0.
          2    1    1    2  501    0  0.10854243010E+03 -0.52584360075E+02 -0.29979942835E+03  0.32315053968E+03  0.00000000000E+00 0. -1.
          1    1    1    2  502    0  0.16725880105E+03  0.26237268887E+03 -0.47159822013E+03  0.56499541204E+03  0.00000000000E+00 0. -1.
         22    1    3    3    0    0 -0.44484761786E+02 -0.94580163123E+02  0.78403115136E+03  0.79096722283E+03  0.00000000000E+00 0. -1.
         22    1    3    3    0    0 -0.23131646936E+03 -0.11520816567E+03  0.13170466788E+04  0.13421595228E+04  0.00000000000E+00 0. -1.
</event>
<event>
 7    1  0.6999029E-005  0.6872646E+03  0.7818608E-02  0.1040637E+00
          2   -1    0    0  502    0  0.00000000000E+00  0.00000000000E+00  0.14150949166E+04  0.14150949166E+04  0.00000000000E+00 0. -1.
          1   -1    0    0  501    0 -0.00000000000E+00 -0.00000000000E+00 -0.23549048440E+04  0.23549048440E+04  0.00000000000E+00 0. -1.
         25    2    1    2    0    0 -0.17434479244E+03  0.70821783907E+03  0.11748349135E+04  0.13884634689E+04  0.12500046539E+03 0.  0.
          2    1    1    2  501    0  0.11303622058E+03 -0.21584206223E+03 -0.17472221497E+04  0.17641287434E+04  0.00000000000E+00 0. -1.
          1    1    1    2  502    0  0.61308571862E+02 -0.49237577683E+03 -0.36742269123E+03  0.61740754824E+03  0.00000000000E+00 0. -1.
         22    1    3    3    0    0 -0.10335822177E+03  0.22196785875E+03  0.32697108595E+03  0.40848836381E+03  0.00000000000E+00 0. -1.
         22    1    3    3    0    0 -0.70986570669E+02  0.48624998032E+03  0.84786382756E+03  0.97997510512E+03  0.00000000000E+00 0. -1.
</event>
<event>
 7    1  0.6999029E-005  0.2487662E+03  0.7818608E-02  0.1333791E+00
          2   -1    0    0  502    0  0.00000000000E+00  0.00000000000E+00  0.97877913374E+03  0.97877913374E+03  0.00000000000E+00 0. -1.
          1   -1    0    0  501    0 -0.00000000000E+00 -0.00000000000E+00 -0.94851348674E+02  0.94851348674E+02  0.00000000000E+00 0. -1.
         25    2    1    2    0    0 -0.14046084357E+03  0.19596717004E+03  0.64957985466E+03  0.70406794627E+03  0.12500122031E+03 0.  0.
          2    1    1    2  501    0  0.12762764299E+03 -0.21704669949E+03  0.17891086772E+03  0.30888053290E+03  0.00000000000E+00 0. -1.
          1    1    1    2  502    0  0.12833200577E+02  0.21079529453E+02  0.55437062682E+02  0.60682003245E+02  0.00000000000E+00 0. -1.
         22    1    3    3    0    0 -0.70172886636E+02  0.17105205965E+03  0.35578391438E+03  0.40095540258E+03  0.00000000000E+00 0. -1.
         22    1    3    3    0    0 -0.70287956931E+02  0.24915110383E+02  0.29379594028E+03  0.30311254368E+03  0.00000000000E+00 0. -1.
</event>
<event>
 7    1  0.6999029E-005  0.2310666E+03  0.7818608E-02  0.1155947E+00
          2   -1    0    0  502    0  0.00000000000E+00  0.00000000000E+00  0.50517885589E+03  0.50517885589E+03  0.00000000000E+00 0. -1.
          1   -1    0    0  501    0 -0.00000000000E+00 -0.00000000000E+00 -0.21205115363E+04  0.21205115363E+04  0.00000000000E+00 0. -1.
         25    2    1    2    0    0  0.16568196480E+03  0.27586450795E+03 -0.30028415345E+01  0.34523742422E+03  0.12501248664E+03 0.  0.
          2    1    1    2  501    0 -0.14986405346E+03 -0.58549354475E+02 -0.19071104891E+04  0.19138854926E+04  0.00000000000E+00 0. -1.
          1    1    1    2  502    0 -0.15817911340E+02 -0.21731515347E+03  0.29478065019E+03  0.36656747534E+03  0.00000000000E+00 0. -1.
         22    1    3    3    0    0  0.28490584014E+02  0.21475557476E+02  0.39361220455E+02  0.53124557618E+02  0.00000000000E+00 0. -1.
         22    1    3    3    0    0  0.13719138079E+03  0.25438895047E+03 -0.42364061989E+02  0.29211286660E+03  0.00000000000E+00 0. -1.
</event>
<event>
 7    1  0.6999029E-005  0.5665597E+03  0.7818608E-02  0.1226826E+00
          2   -1    0    0  502    0  0.00000000000E+00  0.00000000000E+00  0.22896451947E+04  0.22896451947E+04  0.00000000000E+00 0. -1.
          1   -1    0    0  501    0 -0.00000000000E+00 -0.00000000000E+00 -0.22595396953E+04  0.22595396953E+04  0.00000000000E+00 0. -1.
         25    2    1    2    0    0 -0.19506918000E+03 -0.56148100658E+03 -0.14992075428E+04  0.16175790199E+04  0.12500289443E+03 0.  0.
          2    1    1    2  501    0  0.18129707867E+02  0.23932953258E+02 -0.66490537935E+03  0.66558292951E+03  0.00000000000E+00 0. -1.
          1    1    1    2  502    0  0.17693947213E+03  0.53754805332E+03  0.21942184214E+04  0.22660229406E+04  0.00000000000E+00 0. -1.
         22    1    3    3    0    0  0.11444279734E+02 -0.11288309872E+03 -0.29116953298E+03  0.31249521988E+03  0.00000000000E+00 0. -1.
         22    1    3    3    0    0 -0.20651345973E+03 -0.44859790785E+03 -0.12080380098E+04  0.13050838000E+04  0.00000000000E+00 0. -1.
</event>
<event>
 7    1  0.6999029E-005  0.2664154E+03  0.7818608E-02  0.1163601E+00
          2   -1    0    0  502    0  0.00000000000E+00  0.00000000000E+00  0.33048909850E+03  0.33048909850E+03  0.00000000000E+00 0. -1.
          1   -1    0    0  501    0 -0.00000000000E+00 -0.00000000000E+00 -0.16888003563E+04  0.16888003563E+04  0.00000000000E+00 0. -1.
         25    2    1    2    0    0  0.26061916665E+03 -0.75412621635E+02 -0.67154265200E+02  0.30617594414E+03  0.12499839961E+03 0.  0.
          2    1    1    2  501    0 -0.19500396768E+03  0.18490499249E+03 -0.14694589992E+04  0.14938293590E+04  0.00000000000E+00 0. -1.
          1    1    1    2  502    0 -0.65615198979E+02 -0.10949237085E+03  0.17830200657E+03  0.21928415163E+03  0.00000000000E+00 0. -1.
         22    1    3    3    0    0  0.11372087787E+03 -0.63142717371E+02 -0.88360927051E+02  0.15724851112E+03  0.00000000000E+00 0. -1.
         22    1    3    3    0    0  0.14689828878E+03 -0.12269904264E+02  0.21206661851E+02  0.14892743302E+03  0.00000000000E+00 0. -1.
</event>
<event>
 7    1  0.6999029E-005  0.3813211E+03  0.7818608E-02  0.1265175E+00
          2   -1    0    0  502    0  0.00000000000E+00  0.00000000000E+00  0.75626872211E+03  0.75626872211E+03  0.00000000000E+00 0. -1.
          1   -1    0    0  501    0 -0.00000000000E+00 -0.00000000000E+00 -0.79045922024E+03  0.79045922024E+03  0.00000000000E+00 0. -1.
         25    2    1    2    0    0 -0.35868149520E+03  0.15878334805E+03  0.44513575397E+03  0.60632847762E+03  0.12499526668E+03 0.  0.
          2    1    1    2  501    0  0.28566156928E+02 -0.10204996942E+02 -0.56709127401E+03  0.56790199889E+03  0.00000000000E+00 0. -1.
          1    1    1    2  502    0  0.33011533828E+03 -0.14857835111E+03  0.87765021911E+02  0.37249746584E+03  0.00000000000E+00 0. -1.
         22    1    3    3    0    0 -0.14029492910E+03  0.10328300555E+03  0.12321084615E+03  0.21337984670E+03  0.00000000000E+00 0.  1.
         22    1    3    3    0    0 -0.21838656611E+03  0.55500342502E+02  0.32192490781E+03  0.39294863092E+03  0.00000000000E+00 0.  1.
</event>
<event>
 7    1  0.6999029E-005  0.9491063E+02  0.7818608E-02  0.1359018E+00
          2   -1    0    0  502    0  0.00000000000E+00  0.00000000000E+00  0.85704481364E+03  0.85704481364E+03  0.00000000000E+00 0. -1.
          1   -1    0    0  501    0 -0.00000000000E+00 -0.00000000000E+00 -0.13114128389E+03  0.13114128389E+03  0.00000000000E+00 0. -1.
         25    2    1    2    0    0 -0.20156400084E+02 -0.12151711018E+03  0.66138143307E+03  0.68426822450E+03  0.12499965804E+03 0.  0.
          2    1    1    2  501    0 -0.88985083747E+01  0.51330931565E+02 -0.10552006623E+03  0.11767978740E+03  0.00000000000E+00 0. -1.
          1    1    1    2  502    0  0.29054908459E+02  0.70186178618E+02  0.17004216290E+03  0.18623808563E+03  0.00000000000E+00 0. -1.
         22    1    3    3    0    0 -0.13962673916E+02 -0.13520819803E+03  0.65313089576E+03  0.66712531062E+03  0.00000000000E+00 0.  1.
         22    1    3    3    0    0 -0.61937261682E+01  0.13691087845E+02  0.82505373171E+01  0.17142913878E+02  0.00000000000E+00 0.  1.
</event>
<event>
 7    1  0.6999029E-005  0.5447980E+03  0.7818608E-02  0.1216875E+00
          2   -1    0    0  502    0  0.00000000000E+00  0.00000000000E+00  0.60239495875E+03  0.60239495875E+03  0.00000000000E+00 0. -1.
          1   -1    0    0  501    0 -0.00000000000E+00 -0.00000000000E+00 -0.71366868729E+03  0.71366868729E+03  0.00000000000E+00 0. -1.
         25    2    1    2    0    0  0.49493376311E+03 -0.21469786554E+03 -0.16742178143E+03  0.57854119839E+03  0.12500104802E+03 0.  0.
          2    1    1    2  501    0  0.20183513846E+02  0.28166125471E+02 -0.14865701337E+03  0.15264210585E+03  0.00000000000E+00 0. -1.
          1    1    1    2  502    0 -0.51511727695E+03  0.18653174007E+03  0.20480506625E+03  0.58488034180E+03  0.00000000000E+00 0. -1.
         22    1    3    3    0    0  0.34607888166E+02 -0.66210642542E+01  0.19049100893E+02  0.40055120271E+02  0.00000000000E+00 0.  1.
         22    1    3    3    0    0  0.46032587494E+03 -0.20807680128E+03 -0.18647088232E+03  0.53848607812E+03  0.00000000000E+00 0.  1.
</event>
<event>
 7    1  0.6999029E-005  0.8357000E+02  0.7818608E-02  0.1323409E+00
          2   -1    0    0  502    0  0.00000000000E+00  0.00000000000E+00  0.26865858484E+03  0.26865858484E+03  0.00000000000E+00 0. -1.
          1   -1    0    0  501    0 -0.00000000000E+00 -0.00000000000E+00 -0.31862397802E+04  0.31862397802E+04  0.00000000000E+00 0. -1.
         25    2    1    2    0    0  0.14654080902E+03  0.59310251328E+02 -0.98526640194E+00  0.20155569355E+03  0.12502724595E+03 0.  0.
          2    1    1    2  501    0 -0.82514264530E+02 -0.10511227267E+02 -0.30747519997E+04  0.30758769399E+04  0.00000000000E+00 0. -1.
          1    1    1    2  502    0 -0.64026544495E+02 -0.48799024061E+02  0.15815607079E+03  0.17746573155E+03  0.00000000000E+00 0. -1.
         22    1    3    3    0    0  0.13019303934E+03  0.93016299820E+02 -0.16812997882E+02  0.16088796233E+03  0.00000000000E+00 0. -1.
         22    1    3    3    0    0  0.16347769686E+02 -0.33706048492E+02  0.15827731480E+02  0.40667731218E+02  0.00000000000E+00 0. -1.
</event>
<event>
 7    1  0.6999029E-005  0.4750014E+03  0.7818608E-02  0.1248845E+00
          2   -1    0    0  502    0  0.00000000000E+00  0.00000000000E+00  0.32578336558E+04  0.32578336558E+04  0.00000000000E+00 0. -1.
          1   -1    0    0  501    0 -0.00000000000E+00 -0.00000000000E+00 -0.59302110836E+03  0.59302110836E+03  0.00000000000E+00 0. -1.
         25    2    1    2    0    0 -0.42076361783E+03 -0.27110202009E+03 -0.25307376332E+03  0.57463797227E+03  0.12499656838E+03 0.  0.
          2    1    1    2  501    0  0.27982332666E+02  0.59757257041E+01 -0.15975907907E+03  0.16230121252E+03  0.00000000000E+00 0. -1.
          1    1    1    2  502    0  0.39278128517E+03  0.26512629438E+03  0.30776453898E+04  0.31139155794E+04  0.00000000000E+00 0. -1.
         22    1    3    3    0    0 -0.28318264073E+03 -0.19200423582E+03 -0.23465550476E+03  0.41487496972E+03  0.00000000000E+00 0.  1.
         22    1    3    3    0    0 -0.13758097711E+03 -0.79097784263E+02 -0.18418258564E+02  0.15976300255E+03  0.00000000000E+00 0.  1.
</event>
<event>
 7    1  0.6999029E-005  0.1141563E+04  0.7818608E-02  0.1074454E+00
          2   -1    0    0  502    0  0.00000000000E+00  0.00000000000E+00  0.17108853002E+04  0.17108853002E+04  0.00000000000E+00 0. -1.
          1   -1    0    0  501    0 -0.00000000000E+00 -0.00000000000E+00 -0.36879681467E+04  0.36879681467E+04  0.00000000000E+00 0. -1.
         25    2    1    2    0    0  0.11009045393E+04  0.13975487544E+03  0.52596167722E+03  0.12344160656E+04  0.12500042903E+03 0.  0.
          2    1    1    2  501    0  0.75774060279E+02 -0.50699612609E+02 -0.29135907806E+04  0.29150168774E+04  0.00000000000E+00 0. -1.
          1    1    1    2  502    0 -0.11766785996E+04 -0.89055262832E+02  0.41054625677E+03  0.12494205039E+04  0.00000000000E+00 0. -1.
         22    1    3    3    0    0  0.13328941793E+03  0.32892864117E+02  0.10936679450E+03  0.17552522662E+03  0.00000000000E+00 0. -1.
         22    1    3    3    0    0  0.96761512139E+03  0.10686201132E+03  0.41659488272E+03  0.10588908390E+04  0.00000000000E+00 0. -1.
</event>
<event>
 7    1  0.6999029E-005  0.2271287E+03  0.7818608E-02  0.1268614E+00
          2   -1    0    0  502    0  0.00000000000E+00  0.00000000000E+00  0.12580444887E+03  0.12580444887E+03  0.00000000000E+00 0. -1.
          1   -1    0    0  501    0 -0.00000000000E+00 -0.00000000000E+00 -0.92428433509E+03  0.92428433509E+03  0.00000000000E+00 0. -1.
         25    2    1    2    0    0  0.24388247280E+03  0.69030161113E+02 -0.28720984566E+03  0.40293960090E+03  0.12500801113E+03 0.  0.
          2    1    1    2  501    0 -0.46708533287E+02  0.15626508353E+02 -0.40447533093E+03  0.40746308812E+03  0.00000000000E+00 0. -1.
          1    1    1    2  502    0 -0.19717393951E+03 -0.84656669466E+02 -0.10679470963E+03  0.23968609495E+03  0.00000000000E+00 0. -1.
         22    1    3    3    0    0  0.54475556323E+02 -0.21534190930E+02 -0.12357948151E+03  0.13675962806E+03  0.00000000000E+00 0.  1.
         22    1    3    3    0    0  0.18940691648E+03  0.90564352043E+02 -0.16363036415E+03  0.26617997284E+03  0.00000000000E+00 0.  1.
</event>
<event>
 7    1  0.6999029E-005  0.1956274E+03  0.7818608E-02  0.1297302E+00
          2   -1    0    0  502    0  0.00000000000E+00  0.00000000000E+00  0.80257041008E+03  0.80257041008E+03  0.00000000000E+00 0. -1.
          1   -1    0    0  501    0 -0.00000000000E+00 -0.00000000000E+00 -0.40653099635E+03  0.40653099635E+03  0.00000000000E+00 0. -1.
         25    2    1    2    0    0  0.17899748112E+03 -0.54494171025E+02  0.24464602386E+03  0.33239516558E+03  0.12500062476E+03 0.  0.
          2    1    1    2  501    0 -0.19627529695E+03  0.14487298765E+02 -0.33490866996E+03  0.38845552027E+03  0.00000000000E+00 0. -1.
          1    1    1    2  502    0  0.17277815831E+02  0.40006872260E+02  0.48630205983E+03  0.48825072057E+03  0.00000000000E+00 0. -1.
         22    1    3    3    0    0  0.11150859620E+03  0.77054622812E+01  0.61591135149E+02  0.12762056693E+03  0.00000000000E+00 0.  1.
         22    1    3    3    0    0  0.67488884917E+02 -0.62199633306E+02  0.18305488871E+03  0.20477459865E+03  0.00000000000E+00 0.  1.
</event>
<event>
 7    1  0.6999029E-005  0.6359317E+02  0.7818608E-02  0.1412026E+00
          2   -1    0    0  502    0  0.00000000000E+00  0.00000000000E+00  0.29553999999E+03  0.29553999999E+03  0.00000000000E+00 0. -1.
          1   -1    0    0  501    0 -0.00000000000E+00 -0.00000000000E+00 -0.12954280649E+03  0.12954280649E+03  0.00000000000E+00 0. -1.
         25    2    1    2    0    0 -0.58068413357E+02  0.20311000184E+02 -0.30532062288E+02  0.14262738508E+03  0.12500354711E+03 0.  0.
          2    1    1    2  501    0  0.87298042088E+00 -0.50625418171E+02 -0.21508182091E+02  0.55011789252E+02  0.00000000000E+00 0. -1.
          1    1    1    2  502    0  0.57195432936E+02  0.30314417987E+02  0.21803743788E+03  0.22744363215E+03  0.00000000000E+00 0. -1.
         22    1    3    3    0    0 -0.89596023911E+02  0.34857151095E+02  0.38127481286E+00  0.96138513893E+02  0.00000000000E+00 0.  1.
         22    1    3    3    0    0  0.31527610554E+02 -0.14546150911E+02 -0.30913337101E+02  0.46488871187E+02  0.00000000000E+00 0.  1.
</event>
<event>
 7    1  0.6999029E-005  0.5273764E+03  0.7818608E-02  0.1203099E+00
          2   -1    0    0  502    0  0.00000000000E+00  0.00000000000E+00  0.75441567318E+03  0.75441567318E+03  0.00000000000E+00 0. -1.
          1   -1    0    0  501    0 -0.00000000000E+00 -0.00000000000E+00 -0.21051944667E+04  0.21051944667E+04  0.00000000000E+00 0. -1.
         25    2    1    2    0    0  0.22790899450E+03 -0.51205571539E+03 -0.22574586395E+03  0.61703321533E+03  0.12500091316E+03 0.  0.
          2    1    1    2  501    0 -0.22158077374E+03  0.47107317398E+03 -0.16427185618E+04  0.17232330799E+04  0.00000000000E+00 0. -1.
          1    1    1    2  502    0 -0.63282207641E+01  0.40982541413E+02  0.51768563225E+03  0.51934384459E+03  0.00000000000E+00 0. -1.
         22    1    3    3    0    0  0.13894300671E+03 -0.43449210442E+03 -0.17578988325E+03  0.48886668016E+03  0.00000000000E+00 0.  1.
         22    1    3    3    0    0  0.88965987785E+02 -0.77563610969E+02 -0.49955980702E+02  0.12816653517E+03  0.00000000000E+00 0.  1.
</event>
<event>
 7    1  0.6999029E-005  0.9217130E+02  0.7818608E-02  0.1435484E+00
          2   -1    0    0  502    0  0.00000000000E+00  0.00000000000E+00  0.67768223796E+03  0.67768223796E+03  0.00000000000E+00 0. -1.
          1   -1    0    0  501    0 -0.00000000000E+00 -0.00000000000E+00 -0.24756355902E+03  0.24756355902E+03  0.00000000000E+00 0. -1.
         25    2    1    2    0    0  0.61067358480E+02  0.39922777439E+02  0.41454043728E+02  0.15055207662E+03  0.12499775839E+03 0.  0.
          2    1    1    2  501    0 -0.89161779979E+02 -0.31979961004E+02 -0.18099657358E+03  0.20428485153E+03  0.00000000000E+00 0. -1.
          1    1    1    2  502    0  0.28094421499E+02 -0.79428164351E+01  0.56966120879E+03  0.57040886884E+03  0.00000000000E+00 0. -1.
         22    1    3    3    0    0 -0.16270319467E+02  0.60919467264E+02  0.74296953685E+01  0.63490984877E+02  0.00000000000E+00 0.  1.
         22    1    3    3    0    0  0.77337677947E+02 -0.20996689825E+02  0.34024348359E+02  0.87061091741E+02  0.00000000000E+00 0.  1.
</event>
<event>
 7    1  0.6999029E-005  0.5349017E+03  0.7818608E-02  0.1095215E+00
          2   -1    0    0  502    0  0.00000000000E+00  0.00000000000E+00  0.16949936645E+04  0.16949936645E+04  0.00000000000E+00 0. -1.
          1   -1    0    0  501    0 -0.00000000000E+00 -0.00000000000E+00 -0.49513600081E+03  0.49513600081E+03  0.00000000000E+00 0. -1.
         25    2    1    2    0    0 -0.11306832653E+03 -0.58823266307E+03  0.24547396039E+03  0.65930600707E+03  0.12499933345E+03 0.  0.
          2    1    1    2  501    0  0.19704196659E+03  0.46699349988E+03 -0.55806797402E+02  0.50992437102E+03  0.00000000000E+00 0. -1.
          1    1    1    2  502    0 -0.83973640055E+02  0.12123916319E+03  0.10101905007E+04  0.10208992872E+04  0.00000000000E+00 0. -1.
         22    1    3    3    0    0 -0.12400046894E+03 -0.32808376502E+03  0.12426675380E+03  0.37209850748E+03  0.00000000000E+00 0.  1.
         22    1    3    3    0    0  0.10932142406E+02 -0.26014889805E+03  0.12120720659E+03  0.28720749959E+03  0.00000000000E+00 0.  1.
</event>
<event>
 7    1  0.6999029E-005  0.1928562E+03  0.7818608E-02  0.1234369E+00
          2   -1    0    0  502    0  0.00000000000E+00  0.00000000000E+00  0.20390040560E+04  0.20390040560E+04  0.00000000000E+00 0. -1.
          1   -1    0    0  501    0 -0.00000000000E+00 -0.00000000000E+00 -0.37193413675E+04  0.37193413675E+04  0.00000000000E+00 0. -1.
         25    2    1    2    0    0  0.14878155864E+03  0.21364588160E+03 -0.68353647570E+02  0.29678022458E+03  0.12500306256E+03 0.  0.
          2    1    1    2  501    0 -0.71923128933E+02 -0.38548048745E+02 -0.35315525373E+04  0.35324951822E+04  0.00000000000E+00 0. -1.
          1    1    1    2  502    0 -0.76858429711E+02 -0.17509783285E+03  0.19195688735E+04  0.19290700167E+04  0.00000000000E+00 0. -1.
         22    1    3    3    0    0  0.13314922980E+03  0.14643309114E+03  0.24204155024E+01  0.19793237731E+03  0.00000000000E+00 0.  1.
         22    1    3    3    0    0  0.15632328849E+02  0.67212790456E+02 -0.70774063073E+02  0.98847847270E+02  0.00000000000E+00 0.  1.
</event>
<event>
 7    1  0.6999029E-005  0.3828156E+03  0.7818608E-02  0.1284874E+00
          2   -1    0    0  502    0  0.00000000000E+00  0.00000000000E+00  0.93279433681E+03  0.93279433681E+03  0.00000000000E+00 0. -1.
          1   -1    0    0  501    0 -0.00000000000E+00 -0.00000000000E+00 -0.14740477712E+04  0.14740477712E+04  0.00000000000E+00 0. -1.
         25    2    1    2    0    0  0.11182517315E+03  0.36814565362E+03  0.20207372405E+03  0.45222056051E+03  0.12503421038E+03 0.  0.
          2    1    1    2  501    0 -0.24701940065E+02  0.39341911057E+01 -0.12885608037E+04  0.12888035570E+04  0.00000000000E+00 0. -1.
          1    1    1    2  502    0 -0.87123233081E+02 -0.37207984473E+03  0.54523364525E+03  0.66581799052E+03  0.00000000000E+00 0. -1.
         22    1    3    3    0    0  0.13370083909E+03  0.24243965166E+03  0.13355903682E+03  0.30739374650E+03  0.00000000000E+00 0. -1.
         22    1    3    3    0    0 -0.21875665944E+02  0.12570600196E+03  0.68514687231E+02  0.14482681401E+03  0.00000000000E+00 0. -1.
</event>
<event>
 7    1  0.6999029E-005  0.1283380E+03  0.7818608E-02  0.1347043E+00
          2   -1    0    0  502    0  0.00000000000E+00  0.00000000000E+00  0.21763690902E+04  0.21763690902E+04  0.00000000000E+00 0. -1.
          1   -1    0    0  501    0 -0.00000000000E+00 -0.00000000000E+00 -0.25845696710E+02  0.25845696710E+02  0.00000000000E+00 0. -1.
         25    2    1    2    0    0 -0.11993200843E+03 -0.45790776975E+02  0.18136570998E+04  0.18224867842E+04  0.12500208431E+03 0.  0.
          2    1    1    2  501    0  0.12907569576E+03  0.41310569303E+01  0.21725317117E+03  0.25273808824E+03  0.00000000000E+00 0. -1.
          1    1    1    2  502    0 -0.91436873332E+01  0.41659720045E+02  0.11961312248E+03  0.12698991441E+03  0.00000000000E+00 0. -1.
         22    1    3    3    0    0 -0.10550473016E+02 -0.45533900081E+01  0.10566237019E+02  0.15610611973E+02  0.00000000000E+00 0. -1.
         22    1    3    3    0    0 -0.10938153541E+03 -0.41237386967E+02  0.18030908628E+04  0.18068761723E+04  0.00000000000E+00 0. -1.
</event>
<event>
 7    1  0.6999029E-005  0.6154551E+03  0.7818608E-02  0.1124008E+00
          2   -1    0    0  502    0  0.00000000000E+00  0.00000000000E+00  0.21345711896E+04  0.21345711896E+04  0.00000000000E+00 0. -1.
          1   -1    0    0  501    0 -0.00000000000E+00 -0.00000000000E+00 -0.95362645108E+03  0.95362645108E+03  0.00000000000E+00 0. -1.
         25    2    1    2    0    0 -0.66718784369E+03 -0.19766432014E+03  0.13397353836E+04  0.15148325284E+04  0.12496354991E+03 0.  0.
          2    1    1    2  501    0  0.57861662591E+03  0.19128991643E+03 -0.75517771988E+03  0.97040322573E+03  0.00000000000E+00 0. -1.
          1    1    1    2  502    0  0.88571217776E+02  0.63744037113E+01  0.59638707485E+03  0.60296188660E+03  0.00000000000E+00 0. -1.
         22    1    3    3    0    0 -0.57147255200E+03 -0.20505867619E+03  0.10971282946E+04  0.12539220204E+04  0.00000000000E+00 0. -1.
         22    1    3    3    0    0 -0.95715291684E+02  0.73943560510E+01  0.24260708900E+03  0.26091050802E+03  0.00000000000E+00 0. -1.
</event>
<event>
 7    1  0.6999029E-005  0.3286590E+03  0.7818608E-02  0.1180442E+00
          2   -1    0    0  502    0  0.00000000000E+00  0.00000000000E+00  0.51836855292E+03  0.51836855292E+03  0.00000000000E+00 0. -1.
          1   -1    0    0  501    0 -0.00000000000E+00 -0.00000000000E+00 -0.34482474953E+03  0.34482474953E+03  0.00000000000E+00 0. -1.
         25    2    1    2    0    0  0.19925191547E+03  0.24953976914E+03 -0.54588962250E+02  0.34724074354E+03  0.12499902787E+03 0.  0.
          2    1    1    2  501    0 -0.15337238631E+03 -0.32157192480E+03  0.24022674474E+03  0.42969812728E+03  0.00000000000E+00 0. -1.
          1    1    1    2  502    0 -0.45879529168E+02  0.72032155653E+02 -0.12093979096E+02  0.86254431626E+02  0.00000000000E+00 0. -1.
         22    1    3    3    0    0  0.15652482876E+03  0.10252619777E+03 -0.82945731893E+01  0.18729773942E+03  0.00000000000E+00 0. -1.
         22    1    3    3    0    0  0.42727086710E+02  0.14701357137E+03 -0.46294389061E+02  0.15994300411E+03  0.00000000000E+00 0. -1.
</event>
<event>
 7    1  0.6999029E-005  0.3931560E+02  0.7818608E-02  0.1567631E+00
          2   -1    0    0  502    0  0.00000000000E+00  0.00000000000E+00  0.18858698542E+03  0.18858698542E+03  0.00000000000E+00 0. -1.
          1   -1    0    0  501    0 -0.00000000000E+00 -0.00000000000E+00 -0.25246602572E+03  0.25246602572E+03  0.00000000000E+00 0. -1.
         25    2    1    2    0    0 -0.32517594298E+01  0.14490222572E+02 -0.56827858991E+02  0.13811152751E+03  0.12499939193E+03 0.  0.
          2    1    1    2  501    0 -0.56013106482E+01 -0.40641428017E+02 -0.15094603802E+03  0.15642188704E+03  0.00000000000E+00 0. -1.
          1    1    1    2  502    0  0.88530700781E+01  0.26151205444E+02  0.14389485672E+03  0.14651959659E+03  0.00000000000E+00 0. -1.
         22    1    3    3    0    0 -0.41837867786E+02  0.27285887951E+02  0.17885181689E+02  0.53054750835E+02  0.00000000000E+00 0.  1.
         22    1    3    3    0    0  0.38586108356E+02 -0.12795665379E+02 -0.74713040679E+02  0.85056776673E+02  0.00000000000E+00 0.  1.
</event>
<event>
 7    1  0.6999029E-005  0.3319810E+03  0.7818608E-02  0.1256450E+00
          2   -1    0    0  502    0  0.00000000000E+00  0.00000000000E+00  0.14959852659E+03  0.14959852659E+03  0.00000000000E+00 0. -1.
          1   -1    0    0  501    0 -0.00000000000E+00 -0.00000000000E+00 -0.14031967350E+04  0.14031967350E+04  0.00000000000E+00 0. -1.
         25    2    1    2    0    0  0.38513327442E+02 -0.34309649727E+03 -0.20755069460E+03  0.42178323076E+03  0.12500128037E+03 0.  0.
          2    1    1    2  501    0 -0.11423392224E+02  0.36197744197E+02 -0.52000140495E+03  0.52138491705E+03  0.00000000000E+00 0. -1.
          1    1    1    2  502    0 -0.27089935218E+02  0.30689875307E+03 -0.52604610890E+03  0.60962711383E+03  0.00000000000E+00 0. -1.
         22    1    3    3    0    0  0.50759749716E+02 -0.45255637016E+02 -0.26305178738E+02  0.72914931951E+02  0.00000000000E+00 0.  1.
         22    1    3    3    0    0 -0.12246422274E+02 -0.29784086025E+03 -0.18124551586E+03  0.34886829881E+03  0.00000000000E+00 0.  1.
</event>
<event>
 7    1  0.6999029E-005  0.8667119E+02  0.7818608E-02  0.1413853E+00
          2   -1    0    0  502    0  0.00000000000E+00  0.00000000000E+00  0.95717850333E+03  0.95717850333E+03  0.00000000000E+00 0. -1.
          1   -1    0    0  501    0 -0.00000000000E+00 -0.00000000000E+00 -0.32661354135E+02  0.32661354135E+02  0.00000000000E+00 0. -1.
         25    2    1    2    0    0 -0.63617937986E+02  0.65910831972E+02  0.29402690594E+03  0.33236506614E+03  0.12499294370E+03 0.  0.
          2    1    1    2  501    0 -0.16677591096E+02 -0.32609812280E+02  0.21831131069E+02  0.42639655081E+02  0.00000000000E+00 0. -1.
          1    1    1    2  502    0  0.80295529081E+02 -0.33301019692E+02  0.60865911219E+03  0.61483513624E+03  0.00000000000E+00 0. -1.
         22    1    3    3    0    0 -0.90636886878E+02  0.79355861017E+01  0.17534384235E+03  0.19754362009E+03  0.00000000000E+00 0. -1.
         22    1    3    3    0    0  0.27018948893E+02  0.57975245870E+02  0.11868306359E+03  0.13482144605E+03  0.00000000000E+00 0. -1.
</event>
<event>
 7    1  0.6999029E-005  0.2855372E+03  0.7818608E-02  0.1211257E+00
          2   -1    0    0  502    0  0.00000000000E+00  0.00000000000E+00  0.11734625300E+04  0.11734625300E+04  0.00000000000E+00 0. -1.
          1   -1    0    0  501    0 -0.00000000000E+00 -0.00000000000E+00 -0.11645013291E+04  0.11645013291E+04  0.00000000000E+00 0. -1.
         25    2    1    2    0    0 -0.23727922790E+03  0.23787923078E+03 -0.63694867789E+01  0.35854282665E+03  0.12499771098E+03 0.  0.
          2    1    1    2  501    0  0.16854390881E+03 -0.22375169909E+03 -0.96078334152E+03  0.10007879403E+04  0.00000000000E+00 0. -1.
          1    1    1    2  502    0  0.68735319093E+02 -0.14127531686E+02  0.97611402920E+03  0.97863309225E+03  0.00000000000E+00 0. -1.
         22    1    3    3    0    0 -0.21627851124E+03  0.19205351169E+03 -0.47960301539E+02  0.29319129642E+03  0.00000000000E+00 0.  1.
         22    1    3    3    0    0 -0.21000716663E+02  0.45825719089E+02  0.41590814760E+02  0.65351530225E+02  0.00000000000E+00 0.  1.
</event>
<event>
 7    1  0.6999029E-005  0.2199386E+03  0.7818608E-02  0.1355451E+00
          2   -1    0    0  502    0  0.00000000000E+00  0.00000000000E+00  0.13767945292E+03  0.13767945292E+03  0.00000000000E+00 0. -1.
          1   -1    0    0  501    0 -0.00000000000E+00 -0.00000000000E+00 -0.14490936221E+04  0.14490936221E+04  0.00000000000E+00 0. -1.
         25    2    1    2    0    0 -0.23860193936E+03  0.16023306910E+02 -0.52699526304E+03  0.59205963666E+03  0.12499189681E+03 0.  0.
          2    1    1    2  501    0  0.23147678722E+02  0.97709136563E+00 -0.77815390197E+03  0.77849872504E+03  0.00000000000E+00 0. -1.
          1    1    1    2  502    0  0.21545426063E+03 -0.17000398275E+02 -0.62650041466E+01  0.21621471329E+03  0.00000000000E+00 0. -1.
         22    1    3    3    0    0 -0.10121925142E+03  0.78549894659E+01 -0.96379397329E+02  0.13998580623E+03  0.00000000000E+00 0. -1.
         22    1    3    3    0    0 -0.13738268794E+03  0.81683174438E+01 -0.43061586571E+03  0.45207383043E+03  0.00000000000E+00 0. -1.
</event>
<event>
 7    1  0.6999029E-005  0.1242404E+03  0.7818608E-02  0.1288385E+00
          2   -1    0    0  502    0  0.00000000000E+00  0.00000000000E+00  0.19471834528E+04  0.19471834528E+04  0.00000000000E+00 0. -1.
          1   -1    0    0  501    0 -0.00000000000E+00 -0.00000000000E+00 -0.83658587151E+02  0.83658587151E+02  0.00000000000E+00 0. -1.
         25    2    1    2    0    0 -0.11059623106E+03  0.14027845110E+03  0.17530821333E+04  0.17665874420E+04  0.12499861576E+03 0.  0.
          2    1    1    2  501    0  0.40070341367E+02 -0.11606712788E+03 -0.93561188757E+01  0.12314522886E+03  0.00000000000E+00 0. -1.
          1    1    1    2  502    0  0.70525889694E+02 -0.24211323226E+02  0.11979885117E+03  0.14110936904E+03  0.00000000000E+00 0. -1.
         22    1    3    3    0    0  0.53158395690E+01  0.84101593036E+02  0.88467673042E+03  0.88868118774E+03  0.00000000000E+00 0.  1.
         22    1    3    3    0    0 -0.11591207063E+03  0.56176858067E+02  0.86840540292E+03  0.87790625429E+03  0.00000000000E+00 0.  1.
</event>
<event>
 7    1  0.6999029E-005  0.1744447E+03  0.7818608E-02  0.1350227E+00
          2   -1    0    0  502    0  0.00000000000E+00  0.00000000000E+00  0.82469313394E+03  0.82469313394E+03  0.00000000000E+00 0. -1.
          1   -1    0    0  501    0 -0.00000000000E+00 -0.00000000000E+00 -0.49655137614E+03  0.49655137614E+03  0.00000000000E+00 0. -1.
         25    2    1    2    0    0 -0.13147968947E+03 -0.94902764531E+02 -0.33798924523E+03  0.39516776079E+03  0.12500954291E+03 0.  0.
          2    1    1    2  501    0  0.84814144663E+01 -0.29334146449E+02 -0.11841478523E+03  0.12228854362E+03  0.00000000000E+00 0. -1.
          1    1    1    2  502    0  0.12299827501E+03  0.12423691098E+03  0.78454578826E+03  0.80378820567E+03  0.00000000000E+00 0. -1.
         22    1    3    3    0    0 -0.33440779780E+02  0.68221410046E+01 -0.18007114717E+03  0.18327696365E+03  0.00000000000E+00 0.  1.
         22    1    3    3    0    0 -0.98038909694E+02 -0.10172490554E+03 -0.15791809806E+03  0.21189079714E+03  0.00000000000E+00 0.  1.
</event>
<event>
 7    1  0.6999029E-005  0.2774529E+03  0.7818608E-02  0.1127127E+00
          2   -1    0    0  502    0  0.00000000000E+00  0.00000000000E+00  0.36213272493E+03  0.36213272493E+03  0.00000000000E+00 0. -1.
          1   -1    0    0  501    0 -0.00000000000E+00 -0.00000000000E+00 -0.14112922098E+04  0.14112922098E+04  0.00000000000E+00 0. -1.
         25    2    1    2    0    0  0.39788030707E+03  0.10261940642E+03 -0.64808566732E+03  0.77748229265E+03  0.12499680742E+03 0.  0.
          2    1    1    2  501    0 -0.20857401847E+03 -0.11160976832E+03 -0.64501942380E+03  0.68702978002E+03  0.00000000000E+00 0. -1.
          1    1    1    2  502    0 -0.18930628860E+03  0.89903619066E+01  0.24394560627E+03  0.30891286204E+03  0.00000000000E+00 0. -1.
         22    1    3    3    0    0  0.16030051847E+03  0.68686995410E+02 -0.17530324500E+03  0.24727593346E+03  0.00000000000E+00 0.  1.
         22    1    3    3    0    0  0.23757978860E+03  0.33932411006E+02 -0.47278242232E+03  0.53020635919E+03  0.00000000000E+00 0.  1.
</event>
<event>
 7    1  0.6999029E-005  0.5092015E+03  0.7818608E-02  0.1109969E+00
          2   -1    0    0  502    0  0.00000000000E+00  0.00000000000E+00  0.46608426062E+03  0.46608426062E+03  0.00000000000E+00 0. -1.
          1   -1    0    0  501    0 -0.00000000000E+00 -0.00000000000E+00 -0.98209720595E+03  0.98209720595E+03  0.00000000000E+00 0. -1.
         25    2    1    2    0    0 -0.32721137667E+02 -0.58272229991E+03 -0.11554833944E+03  0.60795767574E+03  0.12500066031E+03 0.  0.
          2    1    1    2  501    0  0.27981611903E+02  0.12495793405E+03 -0.35830275005E+03  0.38049745936E+03  0.00000000000E+00 0. -1.
          1    1    1    2  502    0  0.47395257644E+01  0.45776436586E+03 -0.42161855848E+02  0.45972633147E+03  0.00000000000E+00 0. -1.
         22    1    3    3    0    0  0.43487399608E+02 -0.21898646400E+03 -0.19498175740E+02  0.22411248112E+03  0.00000000000E+00 0. -1.
         22    1    3    3    0    0 -0.76208537275E+02 -0.36373583591E+03 -0.96050163696E+02  0.38384519461E+03  0.00000000000E+00 0. -1.
</event>
<event>
 7    1  0.6999029E-005  0.3798989E+03  0.7818608E-02  0.1183489E+00
          2   -1    0    0  502    0  0.00000000000E+00  0.00000000000E+00  0.11565258458E+04  0.11565258458E+04  0.00000000000E+00 0. -1.
          1   -1    0    0  501    0 -0.00000000000E+00 -0.00000000000E+00 -0.19536884184E+03  0.19536884184E+03  0.00000000000E+00 0. -1.
         25    2    1    2    0    0  0.39616527007E+03  0.46010044204E+02  0.79840318094E+03  0.90118667260E+03  0.12500373652E+03 0.  0.
          2    1    1    2  501    0 -0.64017492949E+02 -0.31628620649E+02  0.81710454209E+02  0.10851362760E+03  0.00000000000E+00 0. -1.
          1    1    1    2  502    0 -0.33214777712E+03 -0.14381423556E+02  0.81043368846E+02  0.34219438748E+03  0.00000000000E+00 0. -1.
         22    1    3    3    0    0 -0.34069827376E+01  0.11939327071E+02  0.56382457920E+02  0.57733323336E+02  0.00000000000E+00 0.  1.
         22    1    3    3    0    0  0.39957225281E+03  0.34070717133E+02  0.74202072302E+03  0.84345334926E+03  0.00000000000E+00 0.  1.
</event>
<event>
 7    1  0.6999029E-005  0.7020142E+03  0.7818608E-02  0.1161567E+00
          2   -1    0    0  502    0  0.00000000000E+00  0.00000000000E+00  0.10972756277E+04  0.10972756277E+04  0.00000000000E+00 0. -1.
          1   -1    0    0  501    0 -0.00000000000E+00 -0.00000000000E+00 -0.17348002818E+04  0.17348002818E+04  0.00000000000E+00 0. -1.
         25    2    1    2    0    0  0.69185633282E+03 -0.13729094373E+03 -0.12519730084E+04  0.14424196477E+04  0.12499615152E+03 0.  0.
          2    1    1    2  501    0 -0.66835021692E+03  0.18096474697E+03 -0.76771518273E+02  0.69665925539E+03  0.00000000000E+00 0. -1.
          1    1    1    2  502    0 -0.23506115897E+02 -0.43673803236E+02  0.69121987256E+03  0.69299700634E+03  0.00000000000E+00 0. -1.
         22    1    3    3    0    0  0.42684554267E+03 -0.22347088904E+02 -0.73943128926E+03  0.85408146052E+03  0.00000000000E+00 0.  1.
         22    1    3    3    0    0  0.26501079015E+03 -0.11494385483E+03 -0.51254171912E+03  0.58833818718E+03  0.00000000000E+00 0.  1.
</event>
<event>
 7    1  0.6999029E-005  0.2454561E+03  0.7818608E-02  0.1300961E+00
          2   -1    0    0  502    0  0.00000000000E+00  0.00000000000E+00  0.72946631748E+03  0.72946631748E+03  0.00000000000E+00 0. -1.
          1   -1    0    0  501    0 -0.00000000000E+00 -0.00000000000E+00 -0.56331022768E+03  0.56331022768E+03  0.00000000000E+00 0. -1.
         25    2    1    2    0    0  0.26788518534E+03 -0.43744598421E+02  0.40757539563E+02  0.30159567770E+03  0.12499085310E+03 0.  0.
          2    1    1    2  501    0 -0.23503381732E+03  0.50693906300E+02 -0.39892620558E+03  0.46578201438E+03  0.00000000000E+00 0. -1.
          1    1    1    2  502    0 -0.32851368026E+02 -0.69493078784E+01  0.52432475581E+03  0.52539885308E+03  0.00000000000E+00 0. -1.
         22    1    3    3    0    0  0.61582457738E+02 -0.54003725995E+01  0.65784359214E+02  0.90272615130E+02  0.00000000000E+00 0. -1.
         22    1    3    3    0    0  0.20630272761E+03 -0.38344225822E+02 -0.25026819651E+02  0.21132306257E+03  0.00000000000E+00 0. -1.
</event>
<event>
 7    1  0.6999029E-005  0.1416240E+04  0.7818608E-02  0.1066173E+00
          2   -1    0    0  502    0  0.00000000000E+00  0.00000000000E+00  0.14833400973E+04  0.14833400973E+04  0.00000000000E+00 0. -1.
          1   -1    0    0  501    0 -0.00000000000E+00 -0.00000000000E+00 -0.34994138323E+04  0.34994138323E+04  0.00000000000E+00 0. -1.
         25    2    1    2    0    0  0.13201175193E+04  0.43171361600E+03 -0.19693312211E+04  0.24130847455E+04  0.12500247765E+03 0.  0.
          2    1    1    2  501    0 -0.14024429438E+04 -0.43082868897E+03 -0.89424479865E+03  0.17181773278E+04  0.00000000000E+00 0. -1.
          1    1    1    2  502    0  0.82325424466E+02 -0.88492703062E+00  0.84750228481E+03  0.85149185631E+03  0.00000000000E+00 0. -1.
         22    1    3    3    0    0  0.60861847755E+03  0.26470116790E+03 -0.93495114986E+03  0.11465674041E+04  0.00000000000E+00 0.  1.
         22    1    3    3    0    0  0.71149904175E+03  0.16701244810E+03 -0.10343800713E+04  0.12665173414E+04  0.00000000000E+00 0.  1.
</event>
<event>
 7    1  0.6999029E-005  0.3936825E+03  0.7818608E-02  0.1110897E+00
          2   -1    0    0  502    0  0.00000000000E+00  0.00000000000E+00  0.37187645300E+03  0.37187645300E+03  0.00000000000E+00 0. -1.
          1   -1    0    0  501    0 -0.00000000000E+00 -0.00000000000E+00 -0.88844009814E+03  0.88844009814E+03  0.00000000000E+00 0. -1.
         25    2    1    2    0    0  0.10497019030E+03 -0.44452997985E+03 -0.55654937514E+03  0.73075151247E+03  0.12499968869E+03 0.  0.
          2    1    1    2  501    0 -0.93741947897E+01  0.31166478281E+03 -0.85500981079E+02  0.32331599116E+03  0.00000000000E+00 0. -1.
          1    1    1    2  502    0 -0.95595995512E+02  0.13286519703E+03  0.12548671109E+03  0.20624904751E+03  0.00000000000E+00 0. -1.
         22    1    3    3    0    0 -0.25370617388E+02 -0.54469566306E+02 -0.96480774987E+02  0.11366240285E+03  0.00000000000E+00 0. -1.
         22    1    3    3    0    0  0.13034080769E+03 -0.39006041354E+03 -0.46006860016E+03  0.61708910962E+03  0.00000000000E+00 0. -1.
</event>
<event>
 7    1  0.6999029E-005  0.4395040E+03  0.7818608E-02  0.1096805E+00
          2   -1    0    0  502    0  0.00000000000E+00  0.00000000000E+00  0.21881900118E+04  0.21881900118E+04  0.00000000000E+00 0. -1.
          1   -1    0    0  501    0 -0.00000000000E+00 -0.00000000000E+00 -0.65569059550E+03  0.65569059550E+03  0.00000000000E+00 0. -1.
         25    2    1    2    0    0  0.24720891730E+03 -0.44546515082E+03  0.21755939433E+03  0.56789713664E+03  0.12499447332E+03 0.  0.
          2    1    1    2  501    0 -0.73051144272E+02  0.42149303725E+03 -0.37986030732E+03  0.57208976849E+03  0.00000000000E+00 0. -1.
          1    1    1    2  502    0 -0.17415777302E+03  0.23972113573E+02  0.16948003293E+04  0.17038937022E+04  0.00000000000E+00 0. -1.
         22    1    3    3    0    0  0.19737917335E+03 -0.33026934343E+03  0.21832728777E+03  0.44238352350E+03  0.00000000000E+00 0. -1.
         22    1    3    3    0    0  0.49829743941E+02 -0.11519580739E+03 -0.76789344886E+00  0.12551361313E+03  0.00000000000E+00 0. -1.
</event>
<event>
 7    1  0.6999029E-005  0.2781465E+03  0.7818608E-02  0.1141406E+00
          2   -1    0    0  502    0  0.00000000000E+00  0.00000000000E+00  0.11258570072E+04  0.11258570072E+04  0.00000000000E+00 0. -1.
          1   -1    0    0  501    0 -0.00000000000E+00 -0.00000000000E+00 -0.15440489044E+04  0.15440489044E+04  0.00000000000E+00 0. -1.
         25    2    1    2    0    0  0.28258540731E+03 -0.66593414941E+02 -0.66789666491E+02  0.32309308242E+03  0.12505632737E+03 0.  0.
          2    1    1    2  501    0 -0.16791297897E+02  0.15796519207E+03 -0.13244724671E+04  0.13339648667E+04  0.00000000000E+00 0. -1.
          1    1    1    2  502    0 -0.26579410942E+03 -0.91371777126E+02  0.97307023638E+03  0.10128479625E+04  0.00000000000E+00 0. -1.
         22    1    3    3    0    0  0.29062507600E+03 -0.78819142669E+02 -0.66876694655E+02  0.30846050694E+03  0.00000000000E+00 0.  1.
         22    1    3    3    0    0 -0.80396686911E+01  0.12225727728E+02  0.87028164849E-01  0.14632575476E+02  0.00000000000E+00 0.  1.
</event>
<event>
 7    1  0.6999029E-005  0.2109397E+03  0.7818608E-02  0.1183927E+00
          2   -1    0    0  502    0  0.00000000000E+00  0.00000000000E+00  0.10121301297E+04  0.10121301297E+04  0.00000000000E+00 0. -1.
          1   -1    0    0  501    0 -0.00000000000E+00 -0.00000000000E+00 -0.70908094891E+03  0.70908094891E+03  0.00000000000E+00 0. -1.
         25    2    1    2    0    0  0.16897927517E+03  0.18276261250E+01  0.71693419980E+02  0.22208555743E+03  0.12499885079E+03 0.  0.
          2    1    1    2  501    0 -0.18086702938E+03  0.12558932277E+03 -0.60977585311E+03  0.64831485511E+03  0.00000000000E+00 0. -1.
          1    1    1    2  502    0  0.11887754212E+02 -0.12741694889E+03  0.84113161396E+03  0.85081066611E+03  0.00000000000E+00 0. -1.
         22    1    3    3    0    0  0.17135752839E+03  0.36422350377E+02  0.55122164137E+02  0.18365305095E+03  0.00000000000E+00 0. -1.
         22    1    3    3    0    0 -0.23782532252E+01 -0.34594724252E+02  0.16571255843E+02  0.38432506484E+02  0.00000000000E+00 0. -1.
</event>
<event>
 7    1  0.6999029E-005  0.1378326E+03  0.7818608E-02  0.1222250E+00
          2   -1    0    0  502    0  0.00000000000E+00  0.00000000000E+00  0.10673992655E+04  0.10673992655E+04  0.00000000000E+00 0. -1.
          1   -1    0    0  501    0 -0.00000000000E+00 -0.00000000000E+00 -0.63646918141E+02  0.63646918141E+02  0.00000000000E+00 0. -1.
         25    2    1    2    0    0  0.39617207459E+02 -0.87893398867E+01  0.55678800536E+03  0.57208781704E+03  0.12499924750E+03 0.  0.
          2    1    1    2  501    0 -0.56609027229E+02  0.14557053263E+03  0.99592293335E+02  0.18524034881E+03  0.00000000000E+00 0. -1.
          1    1    1    2  502    0  0.16991819770E+02 -0.13678119275E+03  0.34737204867E+03  0.37371801780E+03  0.00000000000E+00 0. -1.
         22    1    3    3    0    0  0.50140637754E+01 -0.63521021245E+02  0.21598849561E+03  0.22519123254E+03  0.00000000000E+00 0. -1.
         22    1    3    3    0    0  0.34603143683E+02  0.54731681358E+02  0.34079950975E+03  0.34689658450E+03  0.00000000000E+00 0. -1.
</event>
<event>
 7    1  0.6999029E-005  0.5482351E+03  0.7818608E-02  0.1171235E+00
          2   -1    0    0  502    0  0.00000000000E+00  0.00000000000E+00  0.89524442270E+03  0.89524442270E+03  0.00000000000E+00 0. -1.
          1   -1    0    0  501    0 -0.00000000000E+00 -0.00000000000E+00 -0.11209048165E+04  0.11209048165E+04  0.00000000000E+00 0. -1.
         25    2    1    2    0    0 -0.47499031651E+02 -0.55351706890E+03 -0.43575937506E+03  0.71704385264E+03  0.12501339961E+03 0.  0.
          2    1    1    2  501    0 -0.82432766909E+01  0.54249324007E+03 -0.40772119320E+03  0.67867771329E+03  0.00000000000E+00 0. -1.
          1    1    1    2  502    0  0.55742308342E+02  0.11023828837E+02  0.61782017448E+03  0.62042767325E+03  0.00000000000E+00 0. -1.
         22    1    3    3    0    0  0.39268627945E+02 -0.10428771417E+03 -0.97197195341E+02  0.14786902059E+03  0.00000000000E+00 0. -1.
         22    1    3    3    0    0 -0.86767659596E+02 -0.44922935473E+03 -0.33856217972E+03  0.56917483205E+03  0.00000000000E+00 0. -1.
</event>
<event>
 7    1  0.6999029E-005  0.4305206E+03  0.7818608E-02  0.1171475E+00
          2   -1    0    0  502    0  0.00000000000E+00  0.00000000000E+00  0.11902405522E+04  0.11902405522E+04  0.00000000000E+00 0. -1.
          1   -1    0    0  501    0 -0.00000000000E+00 -0.00000000000E+00 -0.28472294375E+03  0.28472294375E+03  0.00000000000E+00 0. -1.
         25    2    1    2    0    0  0.26744892926E+02  0.47985528626E+03  0.45722059454E+03  0.67501944149E+03  0.12499675706E+03 0.  0.
          2    1    1    2  501    0 -0.13877917746E+02 -0.40885121346E+03  0.70253566222E+02  0.41507526416E+03  0.00000000000E+00 0. -1.
          1    1    1    2  502    0 -0.12866975180E+02 -0.71004072798E+02  0.37804344768E+03  0.38486879029E+03  0.00000000000E+00 0. -1.
         22    1    3    3    0    0  0.67783279099E+02  0.35857823754E+03  0.30108087033E+03  0.47309894931E+03  0.00000000000E+00 0. -1.
         22    1    3    3    0    0 -0.41038386173E+02  0.12127704871E+03  0.15613972422E+03  0.20192049218E+03  0.00000000000E+00 0. -1.
</event>
<event>
 7    1  0.6999029E-005  0.2500825E+03  0.7818608E-02  0.1198351E+00
          2   -1    0    0  502    0  0.00000000000E+00  0.00000000000E+00  0.25335473153E+04  0.25335473153E+04  0.00000000000E+00 0. -1.
          1   -1    0    0  501    0 -0.00000000000E+00 -0.00000000000E+00 -0.82628523005E+02  0.82628523005E+02  0.00000000000E+00 0. -1.
         25    2    1    2    0    0  0.12732760660E+03  0.24116887092E+03  0.42641598611E+03  0.52137320984E+03  0.12499874809E+03 0.  0.
          2    1    1    2  501    0 -0.35516521698E+02 -0.23427362731E+03  0.38065880955E+03  0.44838229788E+03  0.00000000000E+00 0. -1.
          1    1    1    2  502    0 -0.91811084898E+02 -0.68952436168E+01  0.16438439966E+04  0.16464203306E+04  0.00000000000E+00 0. -1.
         22    1    3    3    0    0  0.68681364335E+02  0.21691246401E+03  0.37938666908E+03  0.44238263022E+03  0.00000000000E+00 0.  1.
         22    1    3    3    0    0  0.58646242260E+02  0.24256406914E+02  0.47029317037E+02  0.78990579619E+02  0.00000000000E+00 0.  1.
</event>
<event>
 7    1  0.6999029E-005  0.1715613E+04  0.7818608E-02  0.1101540E+00
          2   -1    0    0  502    0  0.00000000000E+00  0.00000000000E+00  0.16046586102E+04  0.16046586102E+04  0.00000000000E+00 0. -1.
          1   -1    0    0  501    0 -0.00000000000E+00 -0.00000000000E+00 -0.45783507158E+04  0.45783507158E+04  0.00000000000E+00 0. -1.
         25    2    1    2    0    0  0.16117588766E+04  0.53629492803E+03 -0.22785818089E+04  0.28448087756E+04  0.12499193416E+03 0.  0.
          2    1    1    2  501    0 -0.16540460417E+04 -0.53400196031E+03 -0.16415844948E+04  0.23907793824E+04  0.00000000000E+00 0. -1.
          1    1    1    2  502    0  0.42287165082E+02 -0.22929677202E+01  0.94647419812E+03  0.94742116809E+03  0.00000000000E+00 0. -1.
         22    1    3    3    0    0  0.87108494584E+02  0.87244899487E+01 -0.15321763023E+03  0.17646429884E+03  0.00000000000E+00 0. -1.
         22    1    3    3    0    0  0.15246503820E+04  0.52757043808E+03 -0.21253641787E+04  0.26683444767E+04  0.00000000000E+00 0. -1.
</event>
<event>
 7    1  0.6999029E-005  0.2773538E+03  0.7818608E-02  0.1151569E+00
          2   -1    0    0  502    0  0.00000000000E+00  0.00000000000E+00  0.12381598622E+04  0.12381598622E+04  0.00000000000E+00 0. -1.
          1   -1    0    0  501    0 -0.00000000000E+00 -0.00000000000E+00 -0.14525902271E+03  0.14525902271E+03  0.00000000000E+00 0. -1.
         25    2    1    2    0    0  0.20763023316E+03 -0.83026684140E+02  0.42742708914E+03  0.49831964304E+03  0.12499922442E+03 0.  0.
          2    1    1    2  501    0  0.13634301977E+03  0.36449496375E+02  0.76813702814E+01  0.14133997409E+03  0.00000000000E+00 0. -1.
          1    1    1    2  502    0 -0.34397325293E+03  0.46577187765E+02  0.65779238010E+03  0.74375926782E+03  0.00000000000E+00 0. -1.
         22    1    3    3    0    0  0.22989000819E+02 -0.64716989608E+02  0.14430271364E+03  0.15981256542E+03  0.00000000000E+00 0.  1.
         22    1    3    3    0    0  0.18464123234E+03 -0.18309694532E+02  0.28312437550E+03  0.33850707762E+03  0.00000000000E+00 0.  1.
</event>
<event>
 7    1  0.6999029E-005  0.9258730E+03  0.7818608E-02  0.1112012E+00
          2   -1    0    0  502    0  0.00000000000E+00  0.00000000000E+00  0.20581819907E+04  0.20581819907E+04  0.00000000000E+00 0. -1.
          1   -1    0    0  501    0 -0.00000000000E+00 -0.00000000000E+00 -0.14108905989E+04  0.14108905989E+04  0.00000000000E+00 0. -1.
         25    2    1    2    0    0  0.52322998073E+03  0.75636960922E+03  0.39518227426E+03  0.10087908859E+04  0.12500169241E+03 0.  0.
          2    1    1    2  501    0 -0.47036444453E+03 -0.80011658159E+03 -0.90783827981E+03  0.12983064342E+04  0.00000000000E+00 0. -1.
          1    1    1    2  502    0 -0.52865536203E+02  0.43746972367E+02  0.11599473973E+04  0.11619752695E+04  0.00000000000E+00 0. -1.
         22    1    3    3    0    0  0.91862181699E+02  0.84974585111E+02  0.19105792578E+02  0.12658740795E+03  0.00000000000E+00 0. -1.
         22    1    3    3    0    0  0.43136779904E+03  0.67139502411E+03  0.37607648168E+03  0.88220347795E+03  0.00000000000E+00 0. -1.
</event>
<event>
 7    1  0.6999029E-005  0.1172023E+03  0.7818608E-02  0.1278814E+00
          2   -1    0    0  502    0  0.00000000000E+00  0.00000000000E+00  0.14087891369E+04  0.14087891369E+04  0.00000000000E+00 0. -1.
          1   -1    0    0  501    0 -0.00000000000E+00 -0.00000000000E+00 -0.41543005084E+02  0.41543005084E+02  0.00000000000E+00 0. -1.
         25    2    1    2    0    0 -0.11057625508E+03  0.14198253865E+03  0.10219193928E+04  0.10451461633E+04  0.12500043142E+03 0.  0.
          2    1    1    2  501    0  0.32177722279E+02 -0.10534948847E+03  0.11549290987E+03  0.15960116779E+03  0.00000000000E+00 0. -1.
          1    1    1    2  502    0  0.78398532797E+02 -0.36633050184E+02  0.22983382923E+03  0.24558481094E+03  0.00000000000E+00 0. -1.
         22    1    3    3    0    0 -0.12257033264E+03  0.14134494088E+03  0.10131385569E+04  0.10302677391E+04  0.00000000000E+00 0.  1.
         22    1    3    3    0    0  0.11994077566E+02  0.63759776891E+00  0.87808358501E+01  0.14878424170E+02  0.00000000000E+00 0.  1.
</event>
<event>
 7    1  0.6999029E-005  0.1412534E+03  0.7818608E-02  0.1406020E+00
          2   -1    0    0  502    0  0.00000000000E+00  0.00000000000E+00  0.14225793027E+04  0.14225793027E+04  0.00000000000E+00 0. -1.
          1   -1    0    0  501    0 -0.00000000000E+00 -0.00000000000E+00 -0.54432824189E+02  0.54432824189E+02  0.00000000000E+00 0. -1.
         25    2    1    2    0    0 -0.14474006568E+02 -0.16039026476E+03  0.59613025770E+03  0.63002413097E+03  0.12499835025E+03 0.  0.
          2    1    1    2  501    0  0.13412236135E+02  0.13652329628E+03  0.88929899310E+02  0.16348402214E+03  0.00000000000E+00 0. -1.
          1    1    1    2  502    0  0.10617704337E+01  0.23866968483E+02  0.68308632150E+03  0.68350397377E+03  0.00000000000E+00 0. -1.
         22    1    3    3    0    0  0.88289002694E+01  0.81916532772E+01  0.22650270723E+01  0.12254917830E+02  0.00000000000E+00 0. -1.
         22    1    3    3    0    0 -0.23302906838E+02 -0.16858191804E+03  0.59386523063E+03  0.61776921314E+03  0.00000000000E+00 0. -1.
</event>
<event>
 7    1  0.6999029E-005  0.7215937E+02  0.7818608E-02  0.1393309E+00
          2   -1    0    0  502    0  0.00000000000E+00  0.00000000000E+00  0.34066194503E+04  0.34066194503E+04  0.00000000000E+00 0. -1.
          1   -1    0    0  501    0 -0.00000000000E+00 -0.00000000000E+00 -0.13688902056E+04  0.13688902056E+04  0.00000000000E+00 0. -1.
         25    2    1    2    0    0  0.15266023358E+02 -0.25433407837E+02  0.45279167009E+03  0.47066435622E+03  0.12499892004E+03 0.  0.
          2    1    1    2  501    0 -0.66957643687E+02  0.27169768872E+02 -0.13587666654E+04  0.13606867286E+04  0.00000000000E+00 0. -1.
          1    1    1    2  502    0  0.51691620329E+02 -0.17363610348E+01  0.29437042401E+04  0.29441585711E+04  0.00000000000E+00 0. -1.
         22    1    3    3    0    0  0.66518887460E+02 -0.32556296471E+02  0.31187260130E+03  0.32054515169E+03  0.00000000000E+00 0.  1.
         22    1    3    3    0    0 -0.51252864102E+02  0.71228886335E+01  0.14091906879E+03  0.15011920453E+03  0.00000000000E+00 0.  1.
</event>
<event>
 7    1  0.6999029E-005  0.1918467E+03  0.7818608E-02  0.1285695E+00
          2   -1    0    0  502    0  0.00000000000E+00  0.00000000000E+00  0.10337377562E+04  0.10337377562E+04  0.00000000000E+00 0. -1.
          1   -1    0    0  501    0 -0.00000000000E+00 -0.00000000000E+00 -0.10942099105E+04  0.10942099105E+04  0.00000000000E+00 0. -1.
         25    2    1    2    0    0  0.22404760480E+03 -0.37953816095E+02  0.39538965210E+03  0.47286041972E+03  0.12500471261E+03 0.  0.
          2    1    1    2  501    0 -0.45274090639E+02  0.20079128385E+02 -0.10414143271E+04  0.10425913463E+04  0.00000000000E+00 0. -1.
          1    1    1    2  502    0 -0.17877351416E+03  0.17874687710E+02  0.58555252074E+03  0.61249590070E+03  0.00000000000E+00 0. -1.
         22    1    3    3    0    0  0.18110909903E+03 -0.27391908400E+02  0.38657139372E+03  0.42777127631E+03  0.00000000000E+00 0.  1.
         22    1    3    3    0    0  0.42938505775E+02 -0.10561907695E+02  0.88182583837E+01  0.45089143408E+02  0.00000000000E+00 0.  1.
</event>
<event>
 7    1  0.6999029E-005  0.7982748E+02  0.7818608E-02  0.1379327E+00
          2   -1    0    0  502    0  0.00000000000E+00  0.00000000000E+00  0.15751665167E+04  0.15751665167E+04  0.00000000000E+00 0. -1.
          1   -1    0    0  501    0 -0.00000000000E+00 -0.00000000000E+00 -0.30301020939E+03  0.30301020939E+03  0.00000000000E+00 0. -1.
         25    2    1    2    0    0  0.50535577820E+02  0.54070759736E+02  0.20678775237E+03  0.25271315032E+03  0.12500108052E+03 0.  0.
          2    1    1    2  501    0 -0.45007771038E+02  0.26723853110E+02 -0.27637003695E+03  0.28128323999E+03  0.00000000000E+00 0. -1.
          1    1    1    2  502    0 -0.55278067821E+01 -0.80794612847E+02  0.13417385919E+04  0.13441803358E+04  0.00000000000E+00 0. -1.
         22    1    3    3    0    0  0.39292295016E+02  0.12362705192E+02  0.20540461812E+03  0.20949410033E+03  0.00000000000E+00 0. -1.
         22    1    3    3    0    0  0.11243282804E+02  0.41708054544E+02  0.13831342493E+01  0.43219049994E+02  0.00000000000E+00 0. -1.
</event>
<event>
 7    1  0.6999029E-005  0.4542260E+03  0.7818608E-02  0.1198746E+00
          2   -1    0    0  502    0  0.00000000000E+00  0.00000000000E+00  0.21496342432E+04  0.21496342432E+04  0.00000000000E+00 0. -1.
          1   -1    0    0  501    0 -0.00000000000E+00 -0.00000000000E+00 -0.83546256011E+03  0.83546256011E+03  0.00000000000E+00 0. -1.
         25    2    1    2    0    0  0.38217937718E+03  0.24702509916E+03  0.20489600000E+03  0.51448040869E+03  0.12500097661E+03 0.  0.
          2    1    1    2  501    0  0.24523483883E+02 -0.44115110631E+02 -0.65082470006E+03  0.65277893231E+03  0.00000000000E+00 0. -1.
          1    1    1    2  502    0 -0.40670286106E+03 -0.20290998853E+03  0.17601003831E+04  0.18178374623E+04  0.00000000000E+00 0. -1.
         22    1    3    3    0    0  0.34966276926E+03  0.25233334599E+03  0.21241970404E+03  0.48068524043E+03  0.00000000000E+00 0. -1.
         22    1    3    3    0    0  0.32516607915E+02 -0.53082468292E+01 -0.75237040456E+01  0.33795168253E+02  0.00000000000E+00 0. -1.
</event>
<event>
 7    1  0.6999029E-005  0.7435295E+02  0.7818608E-02  0.1474519E+00
          2   -1    0    0  502    0  0.00000000000E+00  0.00000000000E+00  0.49263080091E+03  0.49263080091E+03  0.00000000000E+00 0. -1.
          1   -1    0    0  501    0 -0.00000000000E+00 -0.00000000000E+00 -0.37191900515E+03  0.37191900515E+03  0.00000000000E+00 0. -1.
         25    2    1    2    0    0 -0.52197656294E+02  0.54471406100E+02  0.39861978197E+01  0.14605977568E+03  0.12500335553E+03 0.  0.
          2    1    1    2  501    0 -0.15159898230E+02 -0.22584240928E+02 -0.29693084050E+03  0.29817410098E+03  0.00000000000E+00 0. -1.
          1    1    1    2  502    0  0.67357554524E+02 -0.31887165172E+02  0.41365643844E+03  0.42031592941E+03  0.00000000000E+00 0. -1.
         22    1    3    3    0    0 -0.56254731815E+02  0.82497900962E+02  0.33341263937E+02  0.10527173598E+03  0.00000000000E+00 0.  1.
         22    1    3    3    0    0  0.40570755209E+01 -0.28026494862E+02 -0.29355066118E+02  0.40788039703E+02  0.00000000000E+00 0.  1.
</event>
<event>
 7    1  0.8458925E-005  0.2831992E+03  0.7818608E-02  0.1177271E+00
          2   -1    0    0  502    0  0.00000000000E+00  0.00000000000E+00  0.23764646628E+04  0.23764646628E+04  0.00000000000E+00 0. -1.
          1   -1    0    0  501    0 -0.00000000000E+00 -0.00000000000E+00 -0.16240496646E+04  0.16240496646E+04  0.00000000000E+00 0. -1.
         25    2    1    2    0    0  0.37371412761E+03 -0.17163780063E+02 -0.33404807240E+03  0.51688410400E+03  0.12499687105E+03 0.  0.
          2    1    1    2  501    0 -0.96966622907E+02 -0.33878253990E+02 -0.11876941294E+04  0.11921273451E+04  0.00000000000E+00 0. -1.
          1    1    1    2  502    0 -0.27674750471E+03  0.51042034053E+02  0.22741572000E+04  0.22915028782E+04  0.00000000000E+00 0. -1.
         22    1    3    3    0    0  0.43195223208E+02  0.15086109858E+02  0.13852789934E+00  0.45754094993E+02  0.00000000000E+00 0. -1.
         22    1    3    3    0    0  0.33051890441E+03 -0.32249889921E+02 -0.33418660030E+03  0.47113000901E+03  0.00000000000E+00 0. -1.
</event>
<event>
 7    1  0.6999029E-005  0.2054809E+03  0.7818608E-02  0.1280434E+00
          2   -1    0    0  502    0  0.00000000000E+00  0.00000000000E+00  0.35514361870E+03  0.35514361870E+03  0.00000000000E+00 0. -1.
          1   -1    0    0  501    0 -0.00000000000E+00 -0.00000000000E+00 -0.40858707612E+03  0.40858707612E+03  0.00000000000E+00 0. -1.
         25    2    1    2    0    0  0.20052316605E+03 -0.12258833655E+03  0.79281770389E+02  0.27775490181E+03  0.12499898391E+03 0.  0.
          2    1    1    2  501    0 -0.18533875624E+03  0.76418934207E+02 -0.27232433709E+03  0.33815802910E+03  0.00000000000E+00 0. -1.
          1    1    1    2  502    0 -0.15184409805E+02  0.46169402347E+02  0.13959910929E+03  0.14781776392E+03  0.00000000000E+00 0. -1.
         22    1    3    3    0    0  0.12340614346E+03 -0.77147361482E+02 -0.16725830678E+02  0.14649418091E+03  0.00000000000E+00 0.  1.
         22    1    3    3    0    0  0.77117022586E+02 -0.45440975072E+02  0.96007601067E+02  0.13126072090E+03  0.00000000000E+00 0.  1.
</event>
<event>
 7    1  0.6999029E-005  0.4716304E+03  0.7818608E-02  0.1145764E+00
          2   -1    0    0  502    0  0.00000000000E+00  0.00000000000E+00  0.34590613056E+04  0.34590613056E+04  0.00000000000E+00 0. -1.
          1   -1    0    0  501    0 -0.00000000000E+00 -0.00000000000E+00 -0.13709569479E+04  0.13709569479E+04  0.00000000000E+00 0. -1.
         25    2    1    2    0    0 -0.32733790188E+03  0.39201789759E+03 -0.77598133960E+03  0.93733671951E+03  0.12499980919E+03 0.  0.
          2    1    1    2  501    0  0.24961754363E+03 -0.34881991154E+03 -0.42415760657E+03  0.60323620911E+03  0.00000000000E+00 0. -1.
          1    1    1    2  502    0  0.77720358249E+02 -0.43197986046E+02  0.32882433038E+04  0.32894453249E+04  0.00000000000E+00 0. -1.
         22    1    3    3    0    0 -0.21379004769E+03  0.29865971380E+03 -0.45849502176E+03  0.58747041978E+03  0.00000000000E+00 0. -1.
         22    1    3    3    0    0 -0.11354785420E+03  0.93358183788E+02 -0.31748631783E+03  0.34986629973E+03  0.00000000000E+00 0. -1.
</event>
<event>
 7    1  0.6999029E-005  0.1483118E+03  0.7818608E-02  0.1364319E+00
          2   -1    0    0  502    0  0.00000000000E+00  0.00000000000E+00  0.14485911936E+04  0.14485911936E+04  0.00000000000E+00 0. -1.
          1   -1    0    0  501    0 -0.00000000000E+00 -0.00000000000E+00 -0.15312410574E+03  0.15312410574E+03  0.00000000000E+00 0. -1.
         25    2    1    2    0    0  0.98127096531E+02  0.13816055617E+03  0.25715556455E+03  0.33238166037E+03  0.12502526711E+03 0.  0.
          2    1    1    2  501    0 -0.67751219908E+02 -0.12845207326E+03 -0.69545441427E+02  0.16101779823E+03  0.00000000000E+00 0. -1.
          1    1    1    2  502    0 -0.30375876623E+02 -0.97084829094E+01  0.11078569647E+04  0.11083158407E+04  0.00000000000E+00 0. -1.
         22    1    3    3    0    0 -0.16793987356E+02  0.47904194310E+02  0.21566886410E+02  0.55154151550E+02  0.00000000000E+00 0. -1.
         22    1    3    3    0    0  0.11492108389E+03  0.90256361857E+02  0.23558867814E+03  0.27722750882E+03  0.00000000000E+00 0. -1.
</event>
<event>
 7    1  0.6999029E-005  0.1045211E+04  0.7818608E-02  0.1042441E+00
          2   -1    0    0  502    0  0.00000000000E+00  0.00000000000E+00  0.26979976564E+04  0.26979976564E+04  0.00000000000E+00 0. -1.
          1   -1    0    0  501    0 -0.00000000000E+00 -0.00000000000E+00 -0.97373075402E+03  0.97373075402E+03  0.00000000000E+00 0. -1.
         25    2    1    2    0    0 -0.10119447533E+04  0.19239531250E+02 -0.92859814230E+02  0.10240409528E+04  0.12503833210E+03 0.  0.
          2    1    1    2  501    0 -0.34273687233E+02 -0.15226209115E+03 -0.26850415183E+03  0.31056868739E+03  0.00000000000E+00 0. -1.
          1    1    1    2  502    0  0.10462184406E+04  0.13302255990E+03  0.20856308684E+04  0.23371187703E+04  0.00000000000E+00 0. -1.
         22    1    3    3    0    0 -0.63415818059E+03  0.52899320070E+02 -0.13280355981E+02  0.63649925682E+03  0.00000000000E+00 0.  1.
         22    1    3    3    0    0 -0.37778657275E+03 -0.33659788820E+02 -0.79579458250E+02  0.38754169596E+03  0.00000000000E+00 0.  1.
</event>
<event>
 7    1  0.6999029E-005  0.2610224E+03  0.7818608E-02  0.1119962E+00
          2   -1    0    0  502    0  0.00000000000E+00  0.00000000000E+00  0.19468915504E+04  0.19468915504E+04  0.00000000000E+00 0. -1.
          1   -1    0    0  501    0 -0.00000000000E+00 -0.00000000000E+00 -0.13873642735E+04  0.13873642735E+04  0.00000000000E+00 0. -1.
         25    2    1    2    0    0  0.21081259576E+03  0.32276885756E+03 -0.25678543877E+02  0.40608712377E+03  0.12500271412E+03 0.  0.
          2    1    1    2  501    0 -0.21050129608E+03 -0.64644695592E+02 -0.11515098110E+04  0.11723756127E+04  0.00000000000E+00 0. -1.
          1    1    1    2  502    0 -0.31129968180E+00 -0.25812416197E+03  0.17367156318E+04  0.17557930874E+04  0.00000000000E+00 0. -1.
         22    1    3    3    0    0  0.95265348071E+01  0.98886550796E+02  0.20683187946E+02  0.10147462273E+03  0.00000000000E+00 0.  1.
         22    1    3    3    0    0  0.20128606095E+03  0.22388230676E+03 -0.46361731824E+02  0.30461250105E+03  0.00000000000E+00 0.  1.
</event>
<event>
 7    1  0.6999029E-005  0.4751791E+03  0.7818608E-02  0.1098553E+00
          2   -1    0    0  502    0  0.00000000000E+00  0.00000000000E+00  0.60265667854E+03  0.60265667854E+03  0.00000000000E+00 0. -1.
          1   -1    0    0  501    0 -0.00000000000E+00 -0.00000000000E+00 -0.79974610219E+03  0.79974610219E+03  0.00000000000E+00 0. -1.
         25    2    1    2    0    0 -0.32387761602E+03 -0.50525420449E+03 -0.32955679480E+03  0.69599753973E+03  0.12500549183E+03 0.  0.
          2    1    1    2  501    0  0.10512886618E+03  0.11920470066E+03 -0.11700742817E+03  0.19736407325E+03  0.00000000000E+00 0. -1.
          1    1    1    2  502    0  0.21874874984E+03  0.38604950384E+03  0.24947479933E+03  0.50904116775E+03  0.00000000000E+00 0. -1.
         22    1    3    3    0    0 -0.30254572939E+03 -0.45826038271E+03 -0.25530463415E+03  0.60557159193E+03  0.00000000000E+00 0.  1.
         22    1    3    3    0    0 -0.21331886631E+02 -0.46993821786E+02 -0.74252160658E+02  0.90425947801E+02  0.00000000000E+00 0.  1.
</event>
<event>
 7    1  0.6999029E-005  0.4213831E+03  0.7818608E-02  0.1267411E+00
          2   -1    0    0  502    0  0.00000000000E+00  0.00000000000E+00  0.33554145449E+03  0.33554145449E+03  0.00000000000E+00 0. -1.
          1   -1    0    0  501    0 -0.00000000000E+00 -0.00000000000E+00 -0.22069360543E+04  0.22069360543E+04  0.00000000000E+00 0. -1.
         25    2    1    2    0    0  0.17938433036E+03  0.38189010011E+03 -0.20228386334E+04  0.20701493945E+04  0.12499436856E+03 0.  0.
          2    1    1    2  501    0 -0.19990401501E+03 -0.36455866349E+03  0.12385955687E+03  0.43382695187E+03  0.00000000000E+00 0. -1.
          1    1    1    2  502    0  0.20519684648E+02 -0.17331436625E+02  0.27584476713E+02  0.38501162438E+02  0.00000000000E+00 0. -1.
         22    1    3    3    0    0  0.15663381033E+03  0.34157357827E+03 -0.15436416367E+04  0.15887215497E+04  0.00000000000E+00 0.  1.
         22    1    3    3    0    0  0.22750520037E+02  0.40316521840E+02 -0.47919699663E+03  0.48142784473E+03  0.00000000000E+00 0.  1.
</event>
<event>
 7    1  0.6999029E-005  0.1777229E+03  0.7818608E-02  0.1238707E+00
          2   -1    0    0  502    0  0.00000000000E+00  0.00000000000E+00  0.58934646003E+03  0.58934646003E+03  0.00000000000E+00 0. -1.
          1   -1    0    0  501    0 -0.00000000000E+00 -0.00000000000E+00 -0.25517534633E+03  0.25517534633E+03  0.00000000000E+00 0. -1.
         25    2    1    2    0    0 -0.17964846213E+03 -0.28245992164E+02  0.18561507375E+03  0.28835447332E+03  0.12499576258E+03 0.  0.
          2    1    1    2  501    0  0.17101469443E+03 -0.56025652182E+02 -0.15716531119E+03  0.23892642059E+03  0.00000000000E+00 0. -1.
          1    1    1    2  502    0  0.86337676945E+01  0.84271644346E+02  0.30572135113E+03  0.31724091244E+03  0.00000000000E+00 0. -1.
         22    1    3    3    0    0 -0.66202354976E+02  0.40697654881E+02  0.11270007594E+03  0.13689542737E+03  0.00000000000E+00 0. -1.
         22    1    3    3    0    0 -0.11344610715E+03 -0.68943647045E+02  0.72914997811E+02  0.15145904595E+03  0.00000000000E+00 0. -1.
</event>
<event>
 7    1  0.6999029E-005  0.6028724E+03  0.7818608E-02  0.1087536E+00
          2   -1    0    0  502    0  0.00000000000E+00  0.00000000000E+00  0.14451911734E+04  0.14451911734E+04  0.00000000000E+00 0. -1.
          1   -1    0    0  501    0 -0.00000000000E+00 -0.00000000000E+00 -0.49520266842E+03  0.49520266842E+03  0.00000000000E+00 0. -1.
         25    2    1    2    0    0  0.67667261226E+02  0.54640929486E+03  0.21267679533E+03  0.60332345709E+03  0.12500319534E+03 0.  0.
          2    1    1    2  501    0 -0.18862602578E+03 -0.62599878596E+03  0.73809685467E+02  0.65795298258E+03  0.00000000000E+00 0. -1.
          1    1    1    2  502    0  0.12095876456E+03  0.79589491093E+02  0.66350202413E+03  0.67911740211E+03  0.00000000000E+00 0. -1.
         22    1    3    3    0    0  0.77383452143E+02  0.23099827220E+03  0.13427402859E+03  0.27816886091E+03  0.00000000000E+00 0.  1.
         22    1    3    3    0    0 -0.97161909173E+01  0.31541102267E+03  0.78402766738E+02  0.32515459618E+03  0.00000000000E+00 0.  1.
</event>
<event>
 7    1  0.6999029E-005  0.4385922E+03  0.7818608E-02  0.1049316E+00
          2   -1    0    0  502    0  0.00000000000E+00  0.00000000000E+00  0.28323823281E+04  0.28323823281E+04  0.00000000000E+00 0. -1.
          1   -1    0    0  501    0 -0.00000000000E+00 -0.00000000000E+00 -0.38732042764E+03  0.38732042764E+03  0.00000000000E+00 0. -1.
         25    2    1    2    0    0  0.20129235826E+03  0.59661246191E+03  0.14175437150E+04  0.15561236037E+04  0.12500177166E+03 0.  0.
          2    1    1    2  501    0 -0.25202901617E+03 -0.22359963357E+03 -0.19165039983E+03  0.38761488217E+03  0.00000000000E+00 0. -1.
          1    1    1    2  502    0  0.50736657918E+02 -0.37301282834E+03  0.12191685854E+04  0.12759642699E+04  0.00000000000E+00 0. -1.
         22    1    3    3    0    0  0.16368418899E+03  0.48975147655E+03  0.10274614413E+04  0.11499243609E+04  0.00000000000E+00 0.  1.
         22    1    3    3    0    0  0.37608169265E+02  0.10686098536E+03  0.39008227366E+03  0.40619924275E+03  0.00000000000E+00 0.  1.
</event>
<event>
 7    1  0.6999029E-005  0.5287706E+03  0.7818608E-02  0.1160777E+00
          2   -1    0    0  502    0  0.00000000000E+00  0.00000000000E+00  0.22651231779E+04  0.22651231779E+04  0.00000000000E+00 0. -1.
          1   -1    0    0  501    0 -0.00000000000E+00 -0.00000000000E+00 -0.74648032760E+03  0.74648032760E+03  0.00000000000E+00 0. -1.
         25    2    1    2    0    0 -0.46222593425E+03 -0.29391242869E+03  0.12990526958E+04  0.14153443640E+04  0.12499772882E+03 0.  0.
          2    1    1    2  501    0  0.94006803162E+01  0.65786742429E+02 -0.61561541894E+03  0.61919190265E+03  0.00000000000E+00 0. -1.
          1    1    1    2  502    0  0.45282525394E+03  0.22812568626E+03  0.83520557347E+03  0.97706723888E+03  0.00000000000E+00 0. -1.
         22    1    3    3    0    0 -0.44126883572E+03 -0.29971100385E+03  0.12789394639E+04  0.13857240070E+04  0.00000000000E+00 0. -1.
         22    1    3    3    0    0 -0.20957098533E+02  0.57985751549E+01  0.20113231915E+02  0.29620357034E+02  0.00000000000E+00 0. -1.
</event>
<event>
 7    1  0.6999029E-005  0.7902766E+02  0.7818608E-02  0.1378521E+00
          2   -1    0    0  502    0  0.00000000000E+00  0.00000000000E+00  0.15981750764E+04  0.15981750764E+04  0.00000000000E+00 0. -1.
          1   -1    0    0  501    0 -0.00000000000E+00 -0.00000000000E+00 -0.12507138041E+03  0.12507138041E+03  0.00000000000E+00 0. -1.
         25    2    1    2    0    0 -0.50880119199E+02  0.10613821378E+03  0.16804697024E+03  0.24025038306E+03  0.12500542147E+03 0.  0.
          2    1    1    2  501    0  0.69324183151E+01 -0.76117624134E+02 -0.71944617509E+02  0.10496656189E+03  0.00000000000E+00 0. -1.
          1    1    1    2  502    0  0.43947700884E+02 -0.30020589650E+02  0.13770013433E+04  0.13780295119E+04  0.00000000000E+00 0. -1.
         22    1    3    3    0    0  0.41926947518E+01 -0.10316452145E+01  0.10343991886E+03  0.10352999466E+03  0.00000000000E+00 0. -1.
         22    1    3    3    0    0 -0.55072813951E+02  0.10716985900E+03  0.64607051381E+02  0.13672038839E+03  0.00000000000E+00 0. -1.
</event>
<event>
 7    1  0.6999029E-005  0.1059951E+03  0.7818608E-02  0.1296582E+00
          2   -1    0    0  502    0  0.00000000000E+00  0.00000000000E+00  0.21117038766E+04  0.21117038766E+04  0.00000000000E+00 0. -1.
          1   -1    0    0  501    0 -0.00000000000E+00 -0.00000000000E+00 -0.74595070883E+03  0.74595070883E+03  0.00000000000E+00 0. -1.
         25    2    1    2    0    0 -0.36102350937E+02  0.16215816961E+03  0.12816904030E+02  0.20829673377E+03  0.12499841822E+03 0.  0.
          2    1    1    2  501    0  0.60365723765E+02 -0.84911831678E+02 -0.64319862069E+03  0.65158154165E+03  0.00000000000E+00 0. -1.
          1    1    1    2  502    0 -0.24263372828E+02 -0.77246337931E+02  0.19961348845E+04  0.19977763100E+04  0.00000000000E+00 0. -1.
         22    1    3    3    0    0 -0.34577781644E+02  0.94361151626E+01 -0.33126950728E+02  0.48806332758E+02  0.00000000000E+00 0. -1.
         22    1    3    3    0    0 -0.15245692931E+01  0.15272205445E+03  0.45943854758E+02  0.15949040101E+03  0.00000000000E+00 0. -1.
</event>
<event>
 7    1  0.6999029E-005  0.2821328E+03  0.7818608E-02  0.1307054E+00
          2   -1    0    0  502    0  0.00000000000E+00  0.00000000000E+00  0.23779972695E+04  0.23779972695E+04  0.00000000000E+00 0. -1.
          1   -1    0    0  501    0 -0.00000000000E+00 -0.00000000000E+00 -0.65087438497E+02  0.65087438497E+02  0.00000000000E+00 0. -1.
         25    2    1    2    0    0 -0.27178340643E+03  0.27525319474E+02  0.57499544078E+03  0.64874381210E+03  0.12499965441E+03 0.  0.
          2    1    1    2  501    0  0.28969899263E+03 -0.48556450692E+02  0.74176681620E+03  0.79781028124E+03  0.00000000000E+00 0. -1.
          1    1    1    2  502    0 -0.17915586201E+02  0.21031131217E+02  0.99614757403E+03  0.99653061466E+03  0.00000000000E+00 0. -1.
         22    1    3    3    0    0 -0.13298634571E+03  0.37418503105E+02  0.16184200517E+03  0.21278709349E+03  0.00000000000E+00 0. -1.
         22    1    3    3    0    0 -0.13879706072E+03 -0.98931836307E+01  0.41315343561E+03  0.43595671861E+03  0.00000000000E+00 0. -1.
</event>
<event>
 7    1  0.6999029E-005  0.1319099E+03  0.7818608E-02  0.1342908E+00
          2   -1    0    0  502    0  0.00000000000E+00  0.00000000000E+00  0.44634785082E+02  0.44634785082E+02  0.00000000000E+00 0. -1.
          1   -1    0    0  501    0 -0.00000000000E+00 -0.00000000000E+00 -0.17802195773E+04  0.17802195773E+04  0.00000000000E+00 0. -1.
         25    2    1    2    0    0  0.16998215197E+03 -0.23745222674E+02 -0.14385826741E+04  0.14541674913E+04  0.12500085991E+03 0.  0.
          2    1    1    2  501    0 -0.42569845006E+02  0.60532922072E+01 -0.21243698755E+03  0.21674479862E+03  0.00000000000E+00 0. -1.
          1    1    1    2  502    0 -0.12741230696E+03  0.17691930467E+02 -0.84565130622E+02  0.15394207250E+03  0.00000000000E+00 0. -1.
         22    1    3    3    0    0  0.18990972782E+03 -0.16467260147E+02 -0.13216256969E+04  0.13353019726E+04  0.00000000000E+00 0. -1.
         22    1    3    3    0    0 -0.19927575850E+02 -0.72779625269E+01 -0.11695697713E+03  0.11886551862E+03  0.00000000000E+00 0. -1.
</event>
<event>
 7    1  0.6999029E-005  0.2162494E+03  0.7818608E-02  0.1149884E+00
          2   -1    0    0  502    0  0.00000000000E+00  0.00000000000E+00  0.20627753267E+04  0.20627753267E+04  0.00000000000E+00 0. -1.
          1   -1    0    0  501    0 -0.00000000000E+00 -0.00000000000E+00 -0.11541175037E+03  0.11541175037E+03  0.00000000000E+00 0. -1.
         25    2    1    2    0    0  0.38788893920E+02 -0.19572191371E+03  0.43378876100E+03  0.49356579568E+03  0.12499143847E+03 0.  0.
          2    1    1    2  501    0  0.14586506625E+03  0.19512201000E+03  0.10717286892E+03  0.26614890601E+03  0.00000000000E+00 0. -1.
          1    1    1    2  502    0 -0.18465396017E+03  0.59990371815E+00  0.14064019464E+04  0.14184723754E+04  0.00000000000E+00 0. -1.
         22    1    3    3    0    0 -0.42346265868E+02 -0.33586744748E+02  0.93857863692E+02  0.10830777549E+03  0.00000000000E+00 0. -1.
         22    1    3    3    0    0  0.81135159787E+02 -0.16213516897E+03  0.33993089731E+03  0.38525802018E+03  0.00000000000E+00 0. -1.
</event>
<event>
 7    1  0.6999029E-005  0.1608425E+04  0.7818608E-02  0.9893922E-01
          2   -1    0    0  502    0  0.00000000000E+00  0.00000000000E+00  0.19592654883E+04  0.19592654883E+04  0.00000000000E+00 0. -1.
          1   -1    0    0  501    0 -0.00000000000E+00 -0.00000000000E+00 -0.35848236756E+04  0.35848236756E+04  0.00000000000E+00 0. -1.
         25    2    1    2    0    0 -0.11950320736E+04  0.12930069651E+04 -0.42973148950E+03  0.18166628054E+04  0.12500370701E+03 0.  0.
          2    1    1    2  501    0  0.98567910222E+03 -0.12027143692E+04 -0.22020158061E+04  0.26957297262E+04  0.00000000000E+00 0. -1.
          1    1    1    2  502    0  0.20935297138E+03 -0.90292595835E+02  0.10061891083E+04  0.10316966324E+04  0.00000000000E+00 0. -1.
         22    1    3    3    0    0 -0.52316881826E+03  0.50322687985E+03 -0.13142279609E+03  0.73770919496E+03  0.00000000000E+00 0. -1.
         22    1    3    3    0    0 -0.67186325534E+03  0.78978008521E+03 -0.29830869341E+03  0.10789536104E+04  0.00000000000E+00 0. -1.
</event>
<event>
 7    1  0.6999029E-005  0.1114957E+04  0.7818608E-02  0.1084740E+00
          2   -1    0    0  502    0  0.00000000000E+00  0.00000000000E+00  0.31513737976E+04  0.31513737976E+04  0.00000000000E+00 0. -1.
          1   -1    0    0  501    0 -0.00000000000E+00 -0.00000000000E+00 -0.27424352998E+04  0.27424352998E+04  0.00000000000E+00 0. -1.
         25    2    1    2    0    0  0.10283895337E+04 -0.22388665740E+03  0.16490308186E+04  0.19602654238E+04  0.12501049094E+03 0.  0.
          2    1    1    2  501    0 -0.10824282593E+04  0.28457600912E+03 -0.24643485721E+04  0.27065934911E+04  0.00000000000E+00 0. -1.
          1    1    1    2  502    0  0.54038725622E+02 -0.60689351726E+02  0.12242562513E+04  0.12269501824E+04  0.00000000000E+00 0. -1.
         22    1    3    3    0    0  0.19572379095E+02 -0.18873953926E+02  0.72160841771E+02  0.77113495870E+02  0.00000000000E+00 0.  1.
         22    1    3    3    0    0  0.10088171546E+04 -0.20501270347E+03  0.15768699768E+04  0.18831519279E+04  0.00000000000E+00 0.  1.
</event>
<event>
 7    1  0.6999029E-005  0.3142039E+03  0.7818608E-02  0.1215900E+00
          2   -1    0    0  502    0  0.00000000000E+00  0.00000000000E+00  0.12915474272E+04  0.12915474272E+04  0.00000000000E+00 0. -1.
          1   -1    0    0  501    0 -0.00000000000E+00 -0.00000000000E+00 -0.11132713528E+04  0.11132713528E+04  0.00000000000E+00 0. -1.
         25    2    1    2    0    0 -0.39028762181E+02 -0.31319794219E+03 -0.66896778463E+03  0.75017278031E+03  0.12500043272E+03 0.  0.
          2    1    1    2  501    0  0.98256428923E+02  0.29989306264E+03 -0.34113457806E+03  0.46471816749E+03  0.00000000000E+00 0. -1.
          1    1    1    2  502    0 -0.59227666741E+02  0.13304879545E+02  0.11883784371E+04  0.11899278323E+04  0.00000000000E+00 0. -1.
         22    1    3    3    0    0 -0.76538397513E+02 -0.12274729995E+03 -0.26190476805E+03  0.29919748239E+03  0.00000000000E+00 0.  1.
         22    1    3    3    0    0  0.37509635331E+02 -0.19045064224E+03 -0.40706301658E+03  0.45097529793E+03  0.00000000000E+00 0.  1.
</event>
<event>
 7    1  0.6999029E-005  0.8328115E+03  0.7818608E-02  0.1095588E+00
          2   -1    0    0  502    0  0.00000000000E+00  0.00000000000E+00  0.37782778864E+04  0.37782778864E+04  0.00000000000E+00 0. -1.
          1   -1    0    0  501    0 -0.00000000000E+00 -0.00000000000E+00 -0.11862247811E+04  0.11862247811E+04  0.00000000000E+00 0. -1.
         25    2    1    2    0    0  0.90283633927E+03 -0.54720731437E+02  0.19249064895E+04  0.21304924292E+04  0.12500073531E+03 0.  0.
          2    1    1    2  501    0 -0.82108088207E+03  0.10164205584E+03 -0.92388489358E+03  0.12401887836E+04  0.00000000000E+00 0. -1.
          1    1    1    2  502    0 -0.81755457197E+02 -0.46921324405E+02  0.15910315094E+04  0.15938214547E+04  0.00000000000E+00 0. -1.
         22    1    3    3    0    0  0.16320078622E+03  0.20643111530E+02  0.44275285579E+03  0.47232480984E+03  0.00000000000E+00 0. -1.
         22    1    3    3    0    0  0.73963555304E+03 -0.75363842968E+02  0.14821536337E+04  0.16581676194E+04  0.00000000000E+00 0. -1.
</event>
<event>
 7    1  0.6999029E-005  0.2234484E+03  0.7818608E-02  0.1242066E+00
          2   -1    0    0  502    0  0.00000000000E+00  0.00000000000E+00  0.21511043857E+04  0.21511043857E+04  0.00000000000E+00 0. -1.
          1   -1    0    0  501    0 -0.00000000000E+00 -0.00000000000E+00 -0.39676937271E+03  0.39676937271E+03  0.00000000000E+00 0. -1.
         25    2    1    2    0    0  0.22193742349E+03  0.85087224514E+02  0.93912117624E+03  0.97676537767E+03  0.12500385441E+03 0.  0.
          2    1    1    2  501    0 -0.46432255811E+02  0.45658158619E+02 -0.36500562151E+03  0.37076910006E+03  0.00000000000E+00 0. -1.
          1    1    1    2  502    0 -0.17550516767E+03 -0.13074538313E+03  0.11802194582E+04  0.12003392807E+04  0.00000000000E+00 0. -1.
         22    1    3    3    0    0  0.11862733178E+02 -0.27055465397E+02  0.81152706157E+02  0.86362517118E+02  0.00000000000E+00 0. -1.
         22    1    3    3    0    0  0.21007469031E+03  0.11214268991E+03  0.85796847009E+03  0.89040286055E+03  0.00000000000E+00 0. -1.
</event>
<event>
 7    1  0.6999029E-005  0.1405542E+03  0.7818608E-02  0.1390795E+00
          2   -1    0    0  502    0  0.00000000000E+00  0.00000000000E+00  0.14637479502E+04  0.14637479502E+04  0.00000000000E+00 0. -1.
          1   -1    0    0  501    0 -0.00000000000E+00 -0.00000000000E+00 -0.80600792168E+02  0.80600792168E+02  0.00000000000E+00 0. -1.
         25    2    1    2    0    0 -0.96235100085E+02 -0.82705789008E+02  0.90750436326E+03  0.92481913002E+03  0.12499924752E+03 0.  0.
          2    1    1    2  501    0  0.90395071190E+02  0.10916201030E+03 -0.13805419390E+01  0.14173750134E+03  0.00000000000E+00 0. -1.
          1    1    1    2  502    0  0.58400288947E+01 -0.26456221296E+02  0.47702333672E+03  0.47779211102E+03  0.00000000000E+00 0. -1.
         22    1    3    3    0    0 -0.91593367641E+02 -0.35323912593E+02  0.81394087663E+03  0.81983954189E+03  0.00000000000E+00 0. -1.
         22    1    3    3    0    0 -0.46417324444E+01 -0.47381876414E+02  0.93563486636E+02  0.10497958813E+03  0.00000000000E+00 0. -1.
</event>
<event>
 7    1  0.6999029E-005  0.7497234E+02  0.7818608E-02  0.1380225E+00
          2   -1    0    0  502    0  0.00000000000E+00  0.00000000000E+00  0.12336132642E+04  0.12336132642E+04  0.00000000000E+00 0. -1.
          1   -1    0    0  501    0 -0.00000000000E+00 -0.00000000000E+00 -0.30743295425E+03  0.30743295425E+03  0.00000000000E+00 0. -1.
         25    2    1    2    0    0  0.10092015970E+03 -0.23507011656E+02 -0.15672477934E+03  0.22566979078E+03  0.12500695892E+03 0.  0.
          2    1    1    2  501    0 -0.50822027541E+02  0.46984747045E+02 -0.10523125492E+03  0.12595261787E+03  0.00000000000E+00 0. -1.
          1    1    1    2  502    0 -0.50098132163E+02 -0.23477735390E+02  0.11881363442E+04  0.11894238098E+04  0.00000000000E+00 0. -1.
         22    1    3    3    0    0  0.30521402643E+02  0.16795069300E+02  0.13296621329E+02  0.37288476918E+02  0.00000000000E+00 0. -1.
         22    1    3    3    0    0  0.70398757061E+02 -0.40302080956E+02 -0.17002140067E+03  0.18838131386E+03  0.00000000000E+00 0. -1.
</event>
<event>
 7    1  0.6999029E-005  0.1267776E+03  0.7818608E-02  0.1251483E+00
          2   -1    0    0  502    0  0.00000000000E+00  0.00000000000E+00  0.96857090347E+03  0.96857090347E+03  0.00000000000E+00 0. -1.
          1   -1    0    0  501    0 -0.00000000000E+00 -0.00000000000E+00 -0.20627711400E+04  0.20627711400E+04  0.00000000000E+00 0. -1.
         25    2    1    2    0    0 -0.20195494446E+03 -0.36719769609E+02 -0.28337818764E+03  0.37156822801E+03  0.12500243903E+03 0.  0.
          2    1    1    2  501    0  0.98378219744E+02 -0.34998881256E+02 -0.17294238300E+04  0.17325732249E+04  0.00000000000E+00 0. -1.
          1    1    1    2  502    0  0.10357672472E+03  0.71718650865E+02  0.91860178114E+03  0.92720059054E+03  0.00000000000E+00 0. -1.
         22    1    3    3    0    0 -0.13079332902E+03  0.28343005066E+02 -0.21541433319E+03  0.25360117467E+03  0.00000000000E+00 0. -1.
         22    1    3    3    0    0 -0.71161615448E+02 -0.65062774675E+02 -0.67963854446E+02  0.11796705334E+03  0.00000000000E+00 0. -1.
</event>
<event>
 7    1  0.6999029E-005  0.5338310E+03  0.7818608E-02  0.1268751E+00
          2   -1    0    0  502    0  0.00000000000E+00  0.00000000000E+00  0.74817263255E+03  0.74817263255E+03  0.00000000000E+00 0. -1.
          1   -1    0    0  501    0 -0.00000000000E+00 -0.00000000000E+00 -0.66634033896E+03  0.66634033896E+03  0.00000000000E+00 0. -1.
         25    2    1    2    0    0  0.34635341275E+03 -0.40955940329E+03 -0.19202536132E+03  0.58326702422E+03  0.12500836297E+03 0.  0.
          2    1    1    2  501    0  0.13347541875E+02  0.16119175355E+02 -0.14921759652E+03  0.15067805347E+03  0.00000000000E+00 0. -1.
          1    1    1    2  502    0 -0.35970095462E+03  0.39344022794E+03  0.42307525142E+03  0.68056789381E+03  0.00000000000E+00 0. -1.
         22    1    3    3    0    0  0.19884485301E+03 -0.29712953076E+03 -0.79260866469E+02  0.36620693408E+03  0.00000000000E+00 0.  1.
         22    1    3    3    0    0  0.14750855973E+03 -0.11242987253E+03 -0.11276449485E+03  0.21706009014E+03  0.00000000000E+00 0.  1.
</event>
<event>
 7    1  0.6999029E-005  0.4963318E+03  0.7818608E-02  0.1100046E+00
          2   -1    0    0  502    0  0.00000000000E+00  0.00000000000E+00  0.24109825325E+04  0.24109825325E+04  0.00000000000E+00 0. -1.
          1   -1    0    0  501    0 -0.00000000000E+00 -0.00000000000E+00 -0.24268148124E+03  0.24268148124E+03  0.00000000000E+00 0. -1.
         25    2    1    2    0    0 -0.34510324166E+02  0.54151314434E+03  0.23048865056E+03  0.60264145204E+03  0.12499701480E+03 0.  0.
          2    1    1    2  501    0 -0.32767904539E+02 -0.40829460623E+03  0.75608740506E+03  0.85991068439E+03  0.00000000000E+00 0. -1.
          1    1    1    2  502    0  0.67278228705E+02 -0.13321853811E+03  0.11817249957E+04  0.11911118773E+04  0.00000000000E+00 0. -1.
         22    1    3    3    0    0  0.41945625485E+02  0.31439410330E+03  0.13163861866E+03  0.34341201728E+03  0.00000000000E+00 0. -1.
         22    1    3    3    0    0 -0.76455949650E+02  0.22711904104E+03  0.98850031898E+02  0.25922943476E+03  0.00000000000E+00 0. -1.
</event>
<event>
 7    1  0.6999029E-005  0.7795758E+02  0.7818608E-02  0.1378906E+00
          2   -1    0    0  502    0  0.00000000000E+00  0.00000000000E+00  0.15367895923E+04  0.15367895923E+04  0.00000000000E+00 0. -1.
          1   -1    0    0  501    0 -0.00000000000E+00 -0.00000000000E+00 -0.47999323427E+03  0.47999323427E+03  0.00000000000E+00 0. -1.
         25    2    1    2    0    0 -0.77818620192E+02  0.10048990956E+03 -0.13154104565E+03  0.22154317101E+03  0.12499748141E+03 0.  0.
          2    1    1    2  501    0  0.44400544472E+02 -0.30352236829E+02 -0.30004683027E+03  0.30482907831E+03  0.00000000000E+00 0. -1.
          1    1    1    2  502    0  0.33418075720E+02 -0.70137672731E+02  0.14883842339E+04  0.14904105772E+04  0.00000000000E+00 0. -1.
         22    1    3    3    0    0  0.27955103266E+02 -0.15119363666E+01 -0.38564685041E+02  0.47655101327E+02  0.00000000000E+00 0. -1.
         22    1    3    3    0    0 -0.10577372346E+03  0.10200184593E+03 -0.92976360606E+02  0.17388806968E+03  0.00000000000E+00 0. -1.
</event>
<event>
 7    1  0.6999029E-005  0.1480899E+03  0.7818608E-02  0.1237877E+00
          2   -1    0    0  502    0  0.00000000000E+00  0.00000000000E+00  0.10677012631E+04  0.10677012631E+04  0.00000000000E+00 0. -1.
          1   -1    0    0  501    0 -0.00000000000E+00 -0.00000000000E+00 -0.10099369415E+04  0.10099369415E+04  0.00000000000E+00 0. -1.
         25    2    1    2    0    0 -0.11796166977E+03 -0.16427601545E+03 -0.59080748171E+02  0.24498293876E+03  0.12499816275E+03 0.  0.
          2    1    1    2  501    0  0.10088573765E+03  0.18275506585E+02 -0.84926241322E+03  0.85542888233E+03  0.00000000000E+00 0. -1.
          1    1    1    2  502    0  0.17075932122E+02  0.14600050886E+03  0.96610748296E+03  0.97722638353E+03  0.00000000000E+00 0. -1.
         22    1    3    3    0    0 -0.49364620249E+02 -0.13050528012E+03 -0.86022626981E+02  0.16391579004E+03  0.00000000000E+00 0. -1.
         22    1    3    3    0    0 -0.68597049525E+02 -0.33770735331E+02  0.26941878810E+02  0.81067148723E+02  0.00000000000E+00 0. -1.
</event>
<event>
 7    1  0.6999029E-005  0.1321165E+03  0.7818608E-02  0.1226497E+00
          2   -1    0    0  502    0  0.00000000000E+00  0.00000000000E+00  0.30728830776E+04  0.30728830776E+04  0.00000000000E+00 0. -1.
          1   -1    0    0  501    0 -0.00000000000E+00 -0.00000000000E+00 -0.54327710146E+02  0.54327710146E+02  0.00000000000E+00 0. -1.
         25    2    1    2    0    0  0.11372301553E+03  0.26396231156E+02  0.92167529465E+03  0.93741120832E+03  0.12499895776E+03 0.  0.
          2    1    1    2  501    0 -0.57847651460E+02  0.11552139679E+03  0.52045722710E+02  0.13928496383E+03  0.00000000000E+00 0. -1.
          1    1    1    2  502    0 -0.55875364068E+02 -0.14191762795E+03  0.20448343501E+04  0.20505146156E+04  0.00000000000E+00 0. -1.
         22    1    3    3    0    0  0.56742832770E+02  0.62188351432E+02  0.71776936716E+03  0.72268942469E+03  0.00000000000E+00 0. -1.
         22    1    3    3    0    0  0.56980182759E+02 -0.35792120276E+02  0.20390592749E+03  0.21472178363E+03  0.00000000000E+00 0. -1.
</event>
<event>
 7    1  0.6999029E-005  0.5915078E+03  0.7818608E-02  0.1050201E+00
          2   -1    0    0  502    0  0.00000000000E+00  0.00000000000E+00  0.24439328714E+04  0.24439328714E+04  0.00000000000E+00 0. -1.
          1   -1    0    0  501    0 -0.00000000000E+00 -0.00000000000E+00 -0.31471565988E+03  0.31471565988E+03  0.00000000000E+00 0. -1.
         25    2    1    2    0    0  0.54944531459E+03 -0.48485828408E+03  0.13816801849E+04  0.15689624420E+04  0.12500120739E+03 0.  0.
          2    1    1    2  501    0 -0.16584867344E+03  0.18261221464E+03 -0.52653410147E+02  0.25224072831E+03  0.00000000000E+00 0. -1.
          1    1    1    2  502    0 -0.38359664115E+03  0.30224606944E+03  0.80019043676E+03  0.93744536090E+03  0.00000000000E+00 0. -1.
         22    1    3    3    0    0  0.17716146328E+03 -0.20513746797E+03  0.41045284663E+03  0.49187305694E+03  0.00000000000E+00 0. -1.
         22    1    3    3    0    0  0.37228385131E+03 -0.27972081611E+03  0.97122733824E+03  0.10770893851E+04  0.00000000000E+00 0. -1.
</event>
<event>
 7    1  0.6999029E-005  0.7759322E+03  0.7818608E-02  0.9784018E-01
          2   -1    0    0  502    0  0.00000000000E+00  0.00000000000E+00  0.15457230491E+04  0.15457230491E+04  0.00000000000E+00 0. -1.
          1   -1    0    0  501    0 -0.00000000000E+00 -0.00000000000E+00 -0.17553393605E+04  0.17553393605E+04  0.00000000000E+00 0. -1.
         25    2    1    2    0    0 -0.10508362611E+04 -0.66023651950E+03  0.19564082213E+03  0.12625643926E+04  0.12499761934E+03 0.  0.
          2    1    1    2  501    0  0.66092387544E+03  0.25097966313E+03 -0.99565911054E+03  0.12211258022E+04  0.00000000000E+00 0. -1.
          1    1    1    2  502    0  0.38991238564E+03  0.40925685637E+03  0.59040197705E+03  0.81737221476E+03  0.00000000000E+00 0. -1.
         22    1    3    3    0    0 -0.31146683718E+03 -0.13545832306E+03  0.75807275756E+02  0.34800472843E+03  0.00000000000E+00 0. -1.
         22    1    3    3    0    0 -0.73936942389E+03 -0.52477819644E+03  0.11983354637E+03  0.91455966415E+03  0.00000000000E+00 0. -1.
</event>
<event>
 7    1  0.6999029E-005  0.7386232E+03  0.7818608E-02  0.1153914E+00
          2   -1    0    0  502    0  0.00000000000E+00  0.00000000000E+00  0.23659682790E+04  0.23659682790E+04  0.00000000000E+00 0. -1.
          1   -1    0    0  501    0 -0.00000000000E+00 -0.00000000000E+00 -0.39104833060E+03  0.39104833060E+03  0.00000000000E+00 0. -1.
         25    2    1    2    0    0  0.53877337488E+03  0.50703774408E+03  0.39993155322E+03  0.85025536910E+03  0.12499968808E+03 0.  0.
          2    1    1    2  501    0 -0.37434543326E+02  0.35440709056E+02 -0.79567389295E+02  0.94806952971E+02  0.00000000000E+00 0. -1.
          1    1    1    2  502    0 -0.50133883156E+03 -0.54247845314E+03  0.16545557845E+04  0.18119542875E+04  0.00000000000E+00 0. -1.
         22    1    3    3    0    0  0.34167741728E+03  0.39399436300E+03  0.25269854899E+03  0.57950976887E+03  0.00000000000E+00 0. -1.
         22    1    3    3    0    0  0.19709595760E+03  0.11304338108E+03  0.14723300424E+03  0.27074560023E+03  0.00000000000E+00 0. -1.
</event>
<event>
 7    1  0.6999029E-005  0.3216595E+03  0.7818608E-02  0.1159666E+00
          2   -1    0    0  502    0  0.00000000000E+00  0.00000000000E+00  0.43714099966E+03  0.43714099966E+03  0.00000000000E+00 0. -1.
          1   -1    0    0  501    0 -0.00000000000E+00 -0.00000000000E+00 -0.35784644198E+03  0.35784644198E+03  0.00000000000E+00 0. -1.
         25    2    1    2    0    0 -0.26843667735E+03  0.20304738884E+03  0.31285672515E+02  0.36040284810E+03  0.12499971102E+03 0.  0.
          2    1    1    2  501    0  0.30213820193E+03 -0.97638453826E+02  0.10365225482E+02  0.31769198704E+03  0.00000000000E+00 0. -1.
          1    1    1    2  502    0 -0.33701524580E+02 -0.10540893501E+03  0.37643659684E+02  0.11689260650E+03  0.00000000000E+00 0. -1.
         22    1    3    3    0    0 -0.32915648412E+02  0.93749185822E+02  0.63683051857E+01  0.99563572975E+02  0.00000000000E+00 0. -1.
         22    1    3    3    0    0 -0.23552102893E+03  0.10929820302E+03  0.24917367329E+02  0.26083927513E+03  0.00000000000E+00 0. -1.
</event>
<event>
 7    1  0.6999029E-005  0.4438955E+03  0.7818608E-02  0.1171731E+00
          2   -1    0    0  502    0  0.00000000000E+00  0.00000000000E+00  0.74281153627E+03  0.74281153627E+03  0.00000000000E+00 0. -1.
          1   -1    0    0  501    0 -0.00000000000E+00 -0.00000000000E+00 -0.25243928302E+04  0.25243928302E+04  0.00000000000E+00 0. -1.
         25    2    1    2    0    0  0.37894701851E+03  0.33036375561E+03 -0.27944681648E+03  0.58860673598E+03  0.12500525004E+03 0.  0.
          2    1    1    2  501    0 -0.55118444569E+02 -0.42797290615E+02 -0.20099651531E+04  0.20111761653E+04  0.00000000000E+00 0. -1.
          1    1    1    2  502    0 -0.32382857394E+03 -0.28756646499E+03  0.50783067567E+03  0.66742146523E+03  0.00000000000E+00 0. -1.
         22    1    3    3    0    0  0.24569143508E+03  0.23271676821E+03 -0.12013213073E+03  0.35910040979E+03  0.00000000000E+00 0.  1.
         22    1    3    3    0    0  0.13325558343E+03  0.97646987401E+02 -0.15931468575E+03  0.22950632619E+03  0.00000000000E+00 0.  1.
</event>
<event>
 7    1  0.6999029E-005  0.1738088E+03  0.7818608E-02  0.1269044E+00
          2   -1    0    0  502    0  0.00000000000E+00  0.00000000000E+00  0.90861604044E+03  0.90861604044E+03  0.00000000000E+00 0. -1.
          1   -1    0    0  501    0 -0.00000000000E+00 -0.00000000000E+00 -0.94350201205E+03  0.94350201205E+03  0.00000000000E+00 0. -1.
         25    2    1    2    0    0 -0.86789157526E+02  0.21346023766E+03  0.14549933294E+03  0.29982127188E+03  0.12500043304E+03 0.  0.
          2    1    1    2  501    0  0.26312108299E+02 -0.58445789589E+02 -0.85503320853E+03  0.85743222767E+03  0.00000000000E+00 0. -1.
          1    1    1    2  502    0  0.60477049227E+02 -0.15501444807E+03  0.67464790397E+03  0.69486455294E+03  0.00000000000E+00 0. -1.
         22    1    3    3    0    0 -0.97933739078E+02  0.18262176134E+03  0.72062530527E+02  0.21939629274E+03  0.00000000000E+00 0. -1.
         22    1    3    3    0    0  0.11144581553E+02  0.30838476320E+02  0.73436802417E+02  0.80424979136E+02  0.00000000000E+00 0. -1.
</event>
<event>
 7    1  0.6999029E-005  0.8749044E+02  0.7818608E-02  0.1350975E+00
          2   -1    0    0  502    0  0.00000000000E+00  0.00000000000E+00  0.17551499397E+03  0.17551499397E+03  0.00000000000E+00 0. -1.
          1   -1    0    0  501    0 -0.00000000000E+00 -0.00000000000E+00 -0.61181211515E+03  0.61181211515E+03  0.00000000000E+00 0. -1.
         25    2    1    2    0    0  0.74238820478E+02 -0.77012134999E+02 -0.34202555639E+03  0.37953935252E+03  0.12500546983E+03 0.  0.
          2    1    1    2  501    0 -0.83102126977E+02  0.17167678718E+02 -0.23755513624E+03  0.25225609102E+03  0.00000000000E+00 0. -1.
          1    1    1    2  502    0  0.88633064984E+01  0.59844456282E+02  0.14328357146E+03  0.15553166558E+03  0.00000000000E+00 0. -1.
         22    1    3    3    0    0  0.16753534551E+02 -0.10033689064E+03 -0.19436613932E+03  0.21937722912E+03  0.00000000000E+00 0. -1.
         22    1    3    3    0    0  0.57485285927E+02  0.23324755637E+02 -0.14765941707E+03  0.16016212340E+03  0.00000000000E+00 0. -1.
</event>
<event>
 7    1  0.6999029E-005  0.3758076E+03  0.7818608E-02  0.1141773E+00
          2   -1    0    0  502    0  0.00000000000E+00  0.00000000000E+00  0.59055884109E+03  0.59055884109E+03  0.00000000000E+00 0. -1.
          1   -1    0    0  501    0 -0.00000000000E+00 -0.00000000000E+00 -0.66609331687E+03  0.66609331687E+03  0.00000000000E+00 0. -1.
         25    2    1    2    0    0  0.33663534849E+03  0.25123261920E+03 -0.24138301641E+03  0.50033125572E+03  0.12499767213E+03 0.  0.
          2    1    1    2  501    0 -0.10994275014E+03  0.40180132208E+02 -0.20306921205E+03  0.23439060607E+03  0.00000000000E+00 0. -1.
          1    1    1    2  502    0 -0.22669259834E+03 -0.29141275141E+03  0.36891775267E+03  0.52193029617E+03  0.00000000000E+00 0. -1.
         22    1    3    3    0    0  0.15044070866E+03  0.72811767115E+02 -0.36756770477E+02  0.17112866630E+03  0.00000000000E+00 0. -1.
         22    1    3    3    0    0  0.18619463983E+03  0.17842085209E+03 -0.20462624593E+03  0.32920258942E+03  0.00000000000E+00 0. -1.
</event>
<event>
 7    1  0.6999029E-005  0.1626415E+03  0.7818608E-02  0.1304706E+00
          2   -1    0    0  502    0  0.00000000000E+00  0.00000000000E+00  0.98341643927E+02  0.98341643927E+02  0.00000000000E+00 0. -1.
          1   -1    0    0  501    0 -0.00000000000E+00 -0.00000000000E+00 -0.99541779523E+03  0.99541779523E+03  0.00000000000E+00 0. -1.
         25    2    1    2    0    0 -0.28248578856E+02 -0.17216414460E+03 -0.34585404575E+03  0.40703748298E+03  0.12500406671E+03 0.  0.
          2    1    1    2  501    0  0.47387014630E+02  0.12325993797E+02 -0.52054798347E+03  0.52284573477E+03  0.00000000000E+00 0. -1.
          1    1    1    2  502    0 -0.19138435773E+02  0.15983815080E+03 -0.30674122082E+02  0.16387622140E+03  0.00000000000E+00 0. -1.
         22    1    3    3    0    0  0.33110446369E+02 -0.41764445124E+02 -0.17798346401E+03  0.18579204503E+03  0.00000000000E+00 0. -1.
         22    1    3    3    0    0 -0.61359025225E+02 -0.13039969947E+03 -0.16787058174E+03  0.22124543795E+03  0.00000000000E+00 0. -1.
</event>
<event>
 7    1  0.6999029E-005  0.1982293E+03  0.7818608E-02  0.1166794E+00
          2   -1    0    0  502    0  0.00000000000E+00  0.00000000000E+00  0.19870736549E+04  0.19870736549E+04  0.00000000000E+00 0. -1.
          1   -1    0    0  501    0 -0.00000000000E+00 -0.00000000000E+00 -0.54372757029E+03  0.54372757029E+03  0.00000000000E+00 0. -1.
         25    2    1    2    0    0  0.28692804261E+03  0.20509498349E+03 -0.26345554336E+03  0.45761982845E+03  0.12496171484E+03 0.  0.
          2    1    1    2  501    0 -0.10772492497E+03 -0.12544744217E+03 -0.13959553242E+03  0.21639924417E+03  0.00000000000E+00 0. -1.
          1    1    1    2  502    0 -0.17920311764E+03 -0.79647541310E+02  0.18463971604E+04  0.18567821526E+04  0.00000000000E+00 0. -1.
         22    1    3    3    0    0  0.62130254055E+02  0.11254852179E+03 -0.11688097753E+03  0.17374838455E+03  0.00000000000E+00 0.  1.
         22    1    3    3    0    0  0.22479778855E+03  0.92546461696E+02 -0.14657456583E+03  0.28387144390E+03  0.00000000000E+00 0.  1.
</event>
<event>
 7    1  0.6999029E-005  0.4530060E+02  0.7818608E-02  0.1574757E+00
          2   -1    0    0  502    0  0.00000000000E+00  0.00000000000E+00  0.11247537707E+04  0.11247537707E+04  0.00000000000E+00 0. -1.
          1   -1    0    0  501    0 -0.00000000000E+00 -0.00000000000E+00 -0.78573132075E+02  0.78573132075E+02  0.00000000000E+00 0. -1.
         25    2    1    2    0    0 -0.20969830003E+02  0.18137310310E+02  0.40777950247E+03  0.42740992524E+03  0.12500570294E+03 0.  0.
          2    1    1    2  501    0 -0.16487655856E+01  0.22859086601E+02 -0.66049122302E+02  0.69912393930E+02  0.00000000000E+00 0. -1.
          1    1    1    2  502    0  0.22618595589E+02 -0.40996396911E+02  0.70445025848E+03  0.70600458363E+03  0.00000000000E+00 0. -1.
         22    1    3    3    0    0  0.46781448537E+02  0.34429480790E+02  0.17150684835E+03  0.18107592911E+03  0.00000000000E+00 0. -1.
         22    1    3    3    0    0 -0.67751278541E+02 -0.16292170480E+02  0.23627265412E+03  0.24633399613E+03  0.00000000000E+00 0. -1.
</event>
<event>
 7    1  0.6999029E-005  0.2161964E+03  0.7818608E-02  0.1317468E+00
          2   -1    0    0  502    0  0.00000000000E+00  0.00000000000E+00  0.59925518907E+03  0.59925518907E+03  0.00000000000E+00 0. -1.
          1   -1    0    0  501    0 -0.00000000000E+00 -0.00000000000E+00 -0.19381886037E+04  0.19381886037E+04  0.00000000000E+00 0. -1.
         25    2    1    2    0    0 -0.48599083607E+02  0.21920517399E+03  0.13710297279E+03  0.29126362495E+03  0.12499797934E+03 0.  0.
          2    1    1    2  501    0  0.32216962120E+02 -0.62267285397E+01 -0.18313268297E+04  0.18316207746E+04  0.00000000000E+00 0. -1.
          1    1    1    2  502    0  0.16382121487E+02 -0.21297844545E+03  0.35529044228E+03  0.41455939322E+03  0.00000000000E+00 0. -1.
         22    1    3    3    0    0 -0.39743244712E+02  0.21732422805E+02  0.68309958489E+02  0.81963858682E+02  0.00000000000E+00 0.  1.
         22    1    3    3    0    0 -0.88558388948E+01  0.19747275118E+03  0.68793014302E+02  0.20929976626E+03  0.00000000000E+00 0.  1.
</event>
<event>
 7    1  0.6999029E-005  0.1133870E+04  0.7818608E-02  0.1184368E+00
          2   -1    0    0  502    0  0.00000000000E+00  0.00000000000E+00  0.16520323731E+04  0.16520323731E+04  0.00000000000E+00 0. -1.
          1   -1    0    0  501    0 -0.00000000000E+00 -0.00000000000E+00 -0.26721058736E+04  0.26721058736E+04  0.00000000000E+00 0. -1.
         25    2    1    2    0    0  0.71221507363E+03  0.86878832664E+03 -0.10852934620E+04  0.15670136114E+04  0.12500516845E+03 0.  0.
          2    1    1    2  501    0 -0.73400244251E+03 -0.87809082800E+03 -0.11025249171E+04  0.15891394780E+04  0.00000000000E+00 0. -1.
          1    1    1    2  502    0  0.21787368886E+02  0.93025013597E+01  0.11677448786E+04  0.11679851572E+04  0.00000000000E+00 0. -1.
         22    1    3    3    0    0  0.20257166851E+02  0.38435274968E+02 -0.79314555047E+02  0.90434627289E+02  0.00000000000E+00 0.  1.
         22    1    3    3    0    0  0.69195790678E+03  0.83035305168E+03 -0.10059789069E+04  0.14765789841E+04  0.00000000000E+00 0.  1.
</event>
<event>
 7    1  0.6999029E-005  0.2864668E+03  0.7818608E-02  0.1307623E+00
          2   -1    0    0  502    0  0.00000000000E+00  0.00000000000E+00  0.31526336181E+03  0.31526336181E+03  0.00000000000E+00 0. -1.
          1   -1    0    0  501    0 -0.00000000000E+00 -0.00000000000E+00 -0.22561415436E+04  0.22561415436E+04  0.00000000000E+00 0. -1.
         25    2    1    2    0    0  0.28358656360E+03  0.12319779144E+03 -0.83380688938E+03  0.89803016038E+03  0.12500082122E+03 0.  0.
          2    1    1    2  501    0 -0.18409912370E+02 -0.19843934147E+02 -0.13185319814E+04  0.13188098015E+04  0.00000000000E+00 0. -1.
          1    1    1    2  502    0 -0.26517665123E+03 -0.10335385729E+03  0.21146068900E+03  0.35456494351E+03  0.00000000000E+00 0. -1.
         22    1    3    3    0    0  0.96797591860E+00 -0.16343495281E+02 -0.24054712423E+02  0.29097697591E+02  0.00000000000E+00 0.  1.
         22    1    3    3    0    0  0.28261858768E+03  0.13954128672E+03 -0.80975217696E+03  0.86893246279E+03  0.00000000000E+00 0.  1.
</event>
<event>
 7    1  0.6999029E-005  0.6874053E+02  0.7818608E-02  0.1511848E+00
          2   -1    0    0  502    0  0.00000000000E+00  0.00000000000E+00  0.30770741457E+03  0.30770741457E+03  0.00000000000E+00 0. -1.
          1   -1    0    0  501    0 -0.00000000000E+00 -0.00000000000E+00 -0.23849996390E+03  0.23849996390E+03  0.00000000000E+00 0. -1.
         25    2    1    2    0    0 -0.67062097792E+02  0.57476165047E+02 -0.11086666083E+03  0.18898567457E+03  0.12499333663E+03 0.  0.
          2    1    1    2  501    0  0.97584752606E+01 -0.20505676178E+02 -0.82690463087E+02  0.85752103650E+02  0.00000000000E+00 0. -1.
          1    1    1    2  502    0  0.57303622531E+02 -0.36970488869E+02  0.26276457458E+03  0.27146960025E+03  0.00000000000E+00 0. -1.
         22    1    3    3    0    0  0.35959202144E+02  0.23456677358E+02 -0.44342608669E+02  0.61721526837E+02  0.00000000000E+00 0. -1.
         22    1    3    3    0    0 -0.10302129994E+03  0.34019487689E+02 -0.66524052163E+02  0.12726414774E+03  0.00000000000E+00 0. -1.
</event>
<event>
 7    1  0.6999029E-005  0.3766340E+03  0.7818608E-02  0.1267796E+00
          2   -1    0    0  502    0  0.00000000000E+00  0.00000000000E+00  0.13260663172E+04  0.13260663172E+04  0.00000000000E+00 0. -1.
          1   -1    0    0  501    0 -0.00000000000E+00 -0.00000000000E+00 -0.86890882739E+03  0.86890882739E+03  0.00000000000E+00 0. -1.
         25    2    1    2    0    0  0.24044013820E+02 -0.35180157440E+03  0.55774310953E+02  0.37825663984E+03  0.12499939787E+03 0.  0.
          2    1    1    2  501    0 -0.29726884550E+02  0.38119596332E+03 -0.65579383692E+03  0.75911765008E+03  0.00000000000E+00 0. -1.
          1    1    1    2  502    0  0.56828707306E+01 -0.29394388921E+02  0.10571770158E+04  0.10576008547E+04  0.00000000000E+00 0. -1.
         22    1    3    3    0    0  0.13950591104E+02 -0.35445569457E+02  0.48481037411E+02  0.61655643495E+02  0.00000000000E+00 0. -1.
         22    1    3    3    0    0  0.10093422715E+02 -0.31635600494E+03  0.72932735414E+01  0.31660099634E+03  0.00000000000E+00 0. -1.
</event>
<event>
 7    1  0.6999029E-005  0.4861774E+03  0.7818608E-02  0.1119092E+00
          2   -1    0    0  502    0  0.00000000000E+00  0.00000000000E+00  0.54215656963E+03  0.54215656963E+03  0.00000000000E+00 0. -1.
          1   -1    0    0  501    0 -0.00000000000E+00 -0.00000000000E+00 -0.10328002482E+04  0.10328002482E+04  0.00000000000E+00 0. -1.
         25    2    1    2    0    0 -0.37312399652E+03 -0.15386234478E+03  0.25566712512E+03  0.49384856715E+03  0.12500236194E+03 0.  0.
          2    1    1    2  501    0  0.48803430984E+03  0.12099018222E+03 -0.80409024101E+03  0.94835501130E+03  0.00000000000E+00 0. -1.
          1    1    1    2  502    0 -0.11491031332E+03  0.32872162560E+02  0.57779437352E+02  0.13275323935E+03  0.00000000000E+00 0. -1.
         22    1    3    3    0    0 -0.18912357661E+03 -0.17207291301E+02  0.84840214220E+02  0.20799442313E+03  0.00000000000E+00 0.  1.
         22    1    3    3    0    0 -0.18400041991E+03 -0.13665505348E+03  0.17082691090E+03  0.28585414402E+03  0.00000000000E+00 0.  1.
</event>
<event>
 7    1  0.6999029E-005  0.3565256E+03  0.7818608E-02  0.1286643E+00
          2   -1    0    0  502    0  0.00000000000E+00  0.00000000000E+00  0.13233678574E+04  0.13233678574E+04  0.00000000000E+00 0. -1.
          1   -1    0    0  501    0 -0.00000000000E+00 -0.00000000000E+00 -0.11642743760E+04  0.11642743760E+04  0.00000000000E+00 0. -1.
         25    2    1    2    0    0 -0.21753318766E+03  0.31099469037E+03 -0.35358366453E+02  0.40114029193E+03  0.12499973823E+03 0.  0.
          2    1    1    2  501    0  0.19021681938E+02 -0.18326131867E+02 -0.91841626583E+03  0.91879601046E+03  0.00000000000E+00 0. -1.
          1    1    1    2  502    0  0.19851150572E+03 -0.29266855850E+03  0.11128681137E+04  0.11677059311E+04  0.00000000000E+00 0. -1.
         22    1    3    3    0    0 -0.16789433946E+03  0.24167093678E+03 -0.79930277502E+02  0.30492982827E+03  0.00000000000E+00 0. -1.
         22    1    3    3    0    0 -0.49638848204E+02  0.69323753586E+02  0.44571911050E+02  0.96210463656E+02  0.00000000000E+00 0. -1.
</event>
<event>
 7    1  0.6999029E-005  0.2208172E+03  0.7818608E-02  0.1204377E+00
          2   -1    0    0  502    0  0.00000000000E+00  0.00000000000E+00  0.78829647943E+03  0.78829647943E+03  0.00000000000E+00 0. -1.
          1   -1    0    0  501    0 -0.00000000000E+00 -0.00000000000E+00 -0.60221223470E+03  0.60221223470E+03  0.00000000000E+00 0. -1.
         25    2    1    2    0    0 -0.18378215672E+03  0.71095942809E+02  0.50151368268E+03  0.55314517125E+03  0.12499236915E+03 0.  0.
          2    1    1    2  501    0  0.15134784741E+03 -0.16323566673E+03 -0.54454890533E+03  0.58829037397E+03  0.00000000000E+00 0. -1.
          1    1    1    2  502    0  0.32434309312E+02  0.92139723916E+02  0.22911946738E+03  0.24907316892E+03  0.00000000000E+00 0. -1.
         22    1    3    3    0    0 -0.14166744650E+03 -0.82958231354E+01  0.33754615021E+03  0.36616374698E+03  0.00000000000E+00 0.  1.
         22    1    3    3    0    0 -0.42114710216E+02  0.79391765945E+02  0.16396753247E+03  0.18698142427E+03  0.00000000000E+00 0.  1.
</event>
<event>
 7    1  0.6999029E-005  0.9084770E+02  0.7818608E-02  0.1333681E+00
          2   -1    0    0  502    0  0.00000000000E+00  0.00000000000E+00  0.12215975173E+04  0.12215975173E+04  0.00000000000E+00 0. -1.
          1   -1    0    0  501    0 -0.00000000000E+00 -0.00000000000E+00 -0.92000853767E+02  0.92000853767E+02  0.00000000000E+00 0. -1.
         25    2    1    2    0    0 -0.14510108435E+03 -0.39396668269E+02  0.94860590901E+02  0.21732531225E+03  0.12500134994E+03 0.  0.
          2    1    1    2  501    0  0.56007084874E+02  0.37929363336E+02  0.10837613773E+02  0.68504627811E+02  0.00000000000E+00 0. -1.
          1    1    1    2  502    0  0.89093999474E+02  0.14673049332E+01  0.10238984589E+04  0.10277684311E+04  0.00000000000E+00 0. -1.
         22    1    3    3    0    0 -0.21806293624E+01  0.14943111771E+02 -0.20730374778E+02  0.25647615333E+02  0.00000000000E+00 0. -1.
         22    1    3    3    0    0 -0.14292045499E+03 -0.54339780040E+02  0.11559096568E+03  0.19167769692E+03  0.00000000000E+00 0. -1.
</event>
<event>
 7    1  0.6999029E-005  0.6108574E+03  0.7818608E-02  0.1157756E+00
          2   -1    0    0  502    0  0.00000000000E+00  0.00000000000E+00  0.22761571924E+04  0.22761571924E+04  0.00000000000E+00 0. -1.
          1   -1    0    0  501    0 -0.00000000000E+00 -0.00000000000E+00 -0.33214502604E+03  0.33214502604E+03  0.00000000000E+00 0. -1.
         25    2    1    2    0    0 -0.48515434052E+03  0.41465532407E+03  0.12068862291E+04  0.13709523466E+04  0.12498877858E+03 0.  0.
          2    1    1    2  501    0  0.30095262700E+02 -0.51427095518E+02 -0.15836985073E+03  0.16920839403E+03  0.00000000000E+00 0. -1.
          1    1    1    2  502    0  0.45505907782E+03 -0.36322822856E+03  0.89549578805E+03  0.10681414779E+04  0.00000000000E+00 0. -1.
         22    1    3    3    0    0 -0.14970709236E+03  0.10885628517E+03  0.24239378140E+03  0.30498631049E+03  0.00000000000E+00 0.  1.
         22    1    3    3    0    0 -0.33544724816E+03  0.30579903890E+03  0.96449244766E+03  0.10659660361E+04  0.00000000000E+00 0.  1.
</event>
<event>
 7    1  0.6999029E-005  0.7391970E+03  0.7818608E-02  0.1087618E+00
          2   -1    0    0  502    0  0.00000000000E+00  0.00000000000E+00  0.13410330984E+04  0.13410330984E+04  0.00000000000E+00 0. -1.
          1   -1    0    0  501    0 -0.00000000000E+00 -0.00000000000E+00 -0.97099574932E+03  0.97099574932E+03  0.00000000000E+00 0. -1.
         25    2    1    2    0    0  0.69315788239E+03 -0.32139689457E+03  0.10969510480E+03  0.78193441432E+03  0.12499839406E+03 0.  0.
          2    1    1    2  501    0 -0.84224242772E+02 -0.82591303405E+02 -0.47736349737E+03  0.49172243704E+03  0.00000000000E+00 0. -1.
          1    1    1    2  502    0 -0.60893363962E+03  0.40398819798E+03  0.73770574163E+03  0.10383719963E+04  0.00000000000E+00 0. -1.
         22    1    3    3    0    0  0.56853196294E+03 -0.30975002298E+03  0.73245128108E+02  0.65156620416E+03  0.00000000000E+00 0. -1.
         22    1    3    3    0    0  0.12462591945E+03 -0.11646871587E+02  0.36449976688E+02  0.13036821015E+03  0.00000000000E+00 0. -1.
</event>
<event>
 7    1  0.6999029E-005  0.2969286E+03  0.7818608E-02  0.1172912E+00
          2   -1    0    0  502    0  0.00000000000E+00  0.00000000000E+00  0.86136879302E+03  0.86136879302E+03  0.00000000000E+00 0. -1.
          1   -1    0    0  501    0 -0.00000000000E+00 -0.00000000000E+00 -0.38815241745E+03  0.38815241745E+03  0.00000000000E+00 0. -1.
         25    2    1    2    0    0  0.34797414533E+03  0.15053135075E+03  0.14563924050E+03  0.42494886922E+03  0.12500023881E+03 0.  0.
          2    1    1    2  501    0 -0.89777535355E+02 -0.50339524760E+02 -0.20213264956E+03  0.22682963128E+03  0.00000000000E+00 0. -1.
          1    1    1    2  502    0 -0.25819660997E+03 -0.10019182599E+03  0.52970978463E+03  0.59774270998E+03  0.00000000000E+00 0. -1.
         22    1    3    3    0    0  0.58127051400E+02  0.72892056960E+02  0.44787830533E+01  0.93338446365E+02  0.00000000000E+00 0.  1.
         22    1    3    3    0    0  0.28984709393E+03  0.77639293791E+02  0.14116045745E+03  0.33161042285E+03  0.00000000000E+00 0.  1.
</event>
<event>
 7    1  0.6999029E-005  0.5946137E+03  0.7818608E-02  0.1013459E+00
          2   -1    0    0  502    0  0.00000000000E+00  0.00000000000E+00  0.27196400172E+04  0.27196400172E+04  0.00000000000E+00 0. -1.
          1   -1    0    0  501    0 -0.00000000000E+00 -0.00000000000E+00 -0.40084662792E+03  0.40084662792E+03  0.00000000000E+00 0. -1.
         25    2    1    2    0    0  0.48378391524E+03  0.19893065197E+02  0.50807815548E+03  0.71288884532E+03  0.12499793201E+03 0.  0.
          2    1    1    2  501    0 -0.61895898531E+03  0.38040835669E+03  0.21611890616E+03  0.75797633534E+03  0.00000000000E+00 0. -1.
          1    1    1    2  502    0  0.13517507007E+03 -0.40030142189E+03  0.15945963277E+04  0.16496214645E+04  0.00000000000E+00 0. -1.
         22    1    3    3    0    0  0.21755256801E+03 -0.50607356651E+02  0.25319474504E+03  0.33763560729E+03  0.00000000000E+00 0.  1.
         22    1    3    3    0    0  0.26623134723E+03  0.70500421848E+02  0.25488341045E+03  0.37525323803E+03  0.00000000000E+00 0.  1.
</event>
<event>
 7    1  0.1122605E-004  0.3104531E+03  0.7818608E-02  0.1129628E+00
          2   -1    0    0  502    0  0.00000000000E+00  0.00000000000E+00  0.26329743446E+04  0.26329743446E+04  0.00000000000E+00 0. -1.
          1   -1    0    0  501    0 -0.00000000000E+00 -0.00000000000E+00 -0.16118880095E+04  0.16118880095E+04  0.00000000000E+00 0. -1.
         25    2    1    2    0    0 -0.32655586941E+03  0.31554431790E+03 -0.76753850229E+03  0.90052612862E+03  0.12500001373E+03 0.  0.
          2    1    1    2  501    0  0.65242072907E+02 -0.15072299929E+03 -0.75975137628E+03  0.77730052383E+03  0.00000000000E+00 0. -1.
          1    1    1    2  502    0  0.26131379651E+03 -0.16482131861E+03  0.25483762137E+04  0.25670357017E+04  0.00000000000E+00 0. -1.
         22    1    3    3    0    0 -0.21382642316E+03  0.25429355677E+03 -0.46124312361E+03  0.56844715791E+03  0.00000000000E+00 0. -1.
         22    1    3    3    0    0 -0.11272944625E+03  0.61250761126E+02 -0.30629537868E+03  0.33207897071E+03  0.00000000000E+00 0. -1.
</event>
<event>
 7    1  0.6999029E-005  0.2039888E+03  0.7818608E-02  0.1363071E+00
          2   -1    0    0  502    0  0.00000000000E+00  0.00000000000E+00  0.24225521855E+03  0.24225521855E+03  0.00000000000E+00 0. -1.
          1   -1    0    0  501    0 -0.00000000000E+00 -0.00000000000E+00 -0.29383319526E+03  0.29383319526E+03  0.00000000000E+00 0. -1.
         25    2    1    2    0    0  0.54557723539E+02 -0.20236686187E+03  0.11014858829E+03  0.26774360474E+03  0.12500013758E+03 0.  0.
          2    1    1    2  501    0  0.73935536192E+01  0.22231404136E+02 -0.14080669104E+02  0.27334322881E+02  0.00000000000E+00 0. -1.
          1    1    1    2  502    0 -0.61951277159E+02  0.18013545774E+03 -0.14764589590E+03  0.24101048618E+03  0.00000000000E+00 0. -1.
         22    1    3    3    0    0  0.57653248876E+01  0.17531644917E+02  0.47473103271E+01  0.19056088263E+02  0.00000000000E+00 0.  1.
         22    1    3    3    0    0  0.48792398652E+02 -0.21989850679E+03  0.10540127796E+03  0.24868751648E+03  0.00000000000E+00 0.  1.
</event>
<event>
 7    1  0.6999029E-005  0.2171792E+03  0.7818608E-02  0.1263100E+00
          2   -1    0    0  502    0  0.00000000000E+00  0.00000000000E+00  0.37352828259E+03  0.37352828259E+03  0.00000000000E+00 0. -1.
          1   -1    0    0  501    0 -0.00000000000E+00 -0.00000000000E+00 -0.20139070091E+04  0.20139070091E+04  0.00000000000E+00 0. -1.
         25    2    1    2    0    0  0.23873803806E+03 -0.11605338911E+03 -0.32653561652E+03  0.43899330867E+03  0.12500150504E+03 0.  0.
          2    1    1    2  501    0 -0.42588412614E+02  0.33766340032E+02 -0.15949784339E+04  0.15959041774E+04  0.00000000000E+00 0. -1.
          1    1    1    2  502    0 -0.19614962544E+03  0.82287049080E+02  0.28113532398E+03  0.35253780563E+03  0.00000000000E+00 0. -1.
         22    1    3    3    0    0  0.72556355621E+01  0.69736513060E+01  0.87892510818E+01  0.13361399422E+02  0.00000000000E+00 0. -1.
         22    1    3    3    0    0  0.23148240250E+03 -0.12302704042E+03 -0.33532486761E+03  0.42563190925E+03  0.00000000000E+00 0. -1.
</event>
<event>
 7    1  0.6999029E-005  0.1398158E+04  0.7818608E-02  0.1148535E+00
          2   -1    0    0  502    0  0.00000000000E+00  0.00000000000E+00  0.27460123122E+04  0.27460123122E+04  0.00000000000E+00 0. -1.
          1   -1    0    0  501    0 -0.00000000000E+00 -0.00000000000E+00 -0.12473650568E+04  0.12473650568E+04  0.00000000000E+00 0. -1.
         25    2    1    2    0    0  0.12683247123E+04 -0.54481919417E+03  0.24836459871E+03  0.14081137347E+04  0.12499514264E+03 0.  0.
          2    1    1    2  501    0  0.18161924650E+02 -0.22635171014E+02 -0.40917987455E+03  0.41020772324E+03  0.00000000000E+00 0. -1.
          1    1    1    2  502    0 -0.12864866370E+04  0.56745436518E+03  0.16594625313E+04  0.21750559111E+04  0.00000000000E+00 0. -1.
         22    1    3    3    0    0  0.25916100285E+03 -0.96565590519E+02  0.12847778724E+01  0.27657004416E+03  0.00000000000E+00 0. -1.
         22    1    3    3    0    0  0.10091637095E+04 -0.44825360365E+03  0.24707982084E+03  0.11315436905E+04  0.00000000000E+00 0. -1.
</event>
<event>
 7    1  0.6999029E-005  0.2291668E+03  0.7818608E-02  0.1241199E+00
          2   -1    0    0  502    0  0.00000000000E+00  0.00000000000E+00  0.15399573939E+04  0.15399573939E+04  0.00000000000E+00 0. -1.
          1   -1    0    0  501    0 -0.00000000000E+00 -0.00000000000E+00 -0.14089267766E+03  0.14089267766E+03  0.00000000000E+00 0. -1.
         25    2    1    2    0    0  0.21606308429E+03  0.13085396779E+03  0.46840804799E+03  0.54665931270E+03  0.12499714984E+03 0.  0.
          2    1    1    2  501    0 -0.21464946646E+03 -0.66814993956E+02  0.24912180007E+02  0.22618411434E+03  0.00000000000E+00 0. -1.
          1    1    1    2  502    0 -0.14136178310E+01 -0.64038973835E+02  0.90574448827E+03  0.90800664453E+03  0.00000000000E+00 0. -1.
         22    1    3    3    0    0  0.22905884523E+03  0.11493080553E+03  0.45472102626E+03  0.52196576168E+03  0.00000000000E+00 0.  1.
         22    1    3    3    0    0 -0.12995760936E+02  0.15923162263E+02  0.13687021721E+02  0.24693551027E+02  0.00000000000E+00 0.  1.
</event>
<event>
 7    1  0.6999029E-005  0.2410186E+03  0.7818608E-02  0.1137602E+00
          2   -1    0    0  502    0  0.00000000000E+00  0.00000000000E+00  0.16535232168E+04  0.16535232168E+04  0.00000000000E+00 0. -1.
          1   -1    0    0  501    0 -0.00000000000E+00 -0.00000000000E+00 -0.32744336340E+03  0.32744336340E+03  0.00000000000E+00 0. -1.
         25    2    1    2    0    0  0.40894546424E+02 -0.29717861369E+03  0.14302940173E+02  0.32529514788E+03  0.12499946708E+03 0.  0.
          2    1    1    2  501    0  0.12364707273E+03  0.19834917816E+03 -0.82786680881E+02  0.24796094370E+03  0.00000000000E+00 0. -1.
          1    1    1    2  502    0 -0.16454161916E+03  0.98829435538E+02  0.13945635941E+04  0.14077104886E+04  0.00000000000E+00 0. -1.
         22    1    3    3    0    0  0.12171903774E+02 -0.22441022737E+03  0.62675797830E+02  0.23331601107E+03  0.00000000000E+00 0. -1.
         22    1    3    3    0    0  0.28722642651E+02 -0.72768386323E+02 -0.48372857658E+02  0.91979136802E+02  0.00000000000E+00 0. -1.
</event>
<event>
 7    1  0.6999029E-005  0.3144219E+03  0.7818608E-02  0.1094778E+00
          2   -1    0    0  502    0  0.00000000000E+00  0.00000000000E+00  0.13152874723E+04  0.13152874723E+04  0.00000000000E+00 0. -1.
          1   -1    0    0  501    0 -0.00000000000E+00 -0.00000000000E+00 -0.54983228303E+03  0.54983228303E+03  0.00000000000E+00 0. -1.
         25    2    1    2    0    0  0.28547234575E+03 -0.44226814468E+03  0.24060396510E+03  0.59212392810E+03  0.12499962486E+03 0.  0.
          2    1    1    2  501    0 -0.10443614151E+03  0.26648568020E+03 -0.29748331344E+03  0.41281696571E+03  0.00000000000E+00 0. -1.
          1    1    1    2  502    0 -0.18103620425E+03  0.17578246448E+03  0.82233453762E+03  0.86017886153E+03  0.00000000000E+00 0. -1.
         22    1    3    3    0    0  0.15321713079E+03 -0.15541815845E+03  0.14530411809E+03  0.26218996906E+03  0.00000000000E+00 0. -1.
         22    1    3    3    0    0  0.13225521496E+03 -0.28684998622E+03  0.95299847013E+02  0.32993395903E+03  0.00000000000E+00 0. -1.
</event>
<event>
 7    1  0.6999029E-005  0.6476647E+03  0.7818608E-02  0.1122373E+00
          2   -1    0    0  502    0  0.00000000000E+00  0.00000000000E+00  0.10700617407E+04  0.10700617407E+04  0.00000000000E+00 0. -1.
          1   -1    0    0  501    0 -0.00000000000E+00 -0.00000000000E+00 -0.74030155057E+03  0.74030155057E+03  0.00000000000E+00 0. -1.
         25    2    1    2    0    0  0.69953659232E+03  0.13209254181E+03  0.52041286255E+03  0.89064833963E+03  0.12500013511E+03 0.  0.
          2    1    1    2  501    0 -0.62482564921E+03 -0.89263085676E+02 -0.36223894057E+03  0.72773074722E+03  0.00000000000E+00 0. -1.
          1    1    1    2  502    0 -0.74710943105E+02 -0.42829456131E+02  0.17158626811E+03  0.19198420439E+03  0.00000000000E+00 0. -1.
         22    1    3    3    0    0  0.50037627947E+02  0.37047207959E+02  0.74541990699E+02  0.97122439248E+02  0.00000000000E+00 0. -1.
         22    1    3    3    0    0  0.64949896437E+03  0.95045333848E+02  0.44587087185E+03  0.79352590038E+03  0.00000000000E+00 0. -1.
</event>
<event>
 7    1  0.6999029E-005  0.2492092E+03  0.7818608E-02  0.1254358E+00
          2   -1    0    0  502    0  0.00000000000E+00  0.00000000000E+00  0.11151099452E+04  0.11151099452E+04  0.00000000000E+00 0. -1.
          1   -1    0    0  501    0 -0.00000000000E+00 -0.00000000000E+00 -0.45144228476E+03  0.45144228476E+03  0.00000000000E+00 0. -1.
         25    2    1    2    0    0 -0.32709829438E+02  0.28033289135E+03  0.34932470756E+03  0.46616534591E+03  0.12500366192E+03 0.  0.
          2    1    1    2  501    0  0.62582906877E+02 -0.23823127358E+03 -0.35333505215E+03  0.43071616991E+03  0.00000000000E+00 0. -1.
          1    1    1    2  502    0 -0.29873077439E+02 -0.42101617775E+02  0.66767800504E+03  0.66967071415E+03  0.00000000000E+00 0. -1.
         22    1    3    3    0    0  0.26053295008E+02  0.15508761342E+03  0.11792647908E+03  0.19656448429E+03  0.00000000000E+00 0.  1.
         22    1    3    3    0    0 -0.58763124447E+02  0.12524527794E+03  0.23139822848E+03  0.26960086161E+03  0.00000000000E+00 0.  1.
</event>
<event>
 7    1  0.6999029E-005  0.1540111E+03  0.7818608E-02  0.1291769E+00
          2   -1    0    0  502    0  0.00000000000E+00  0.00000000000E+00  0.19504783868E+04  0.19504783868E+04  0.00000000000E+00 0. -1.
          1   -1    0    0  501    0 -0.00000000000E+00 -0.00000000000E+00 -0.22557683322E+03  0.22557683322E+03  0.00000000000E+00 0. -1.
         25    2    1    2    0    0 -0.16926265233E+03  0.70294742763E+02  0.59448324289E+03  0.63452860123E+03  0.12500009347E+03 0.  0.
          2    1    1    2  501    0  0.20961936500E+02 -0.54375503715E+02 -0.19716191737E+03  0.20559406569E+03  0.00000000000E+00 0. -1.
          1    1    1    2  502    0  0.14830071583E+03 -0.15919239049E+02  0.13275802280E+04  0.13359325531E+04  0.00000000000E+00 0. -1.
         22    1    3    3    0    0 -0.24480417157E+02 -0.33879963457E+02  0.84912874717E+02  0.94643219729E+02  0.00000000000E+00 0.  1.
         22    1    3    3    0    0 -0.14478223517E+03  0.10417470622E+03  0.50957036818E+03  0.53988538150E+03  0.00000000000E+00 0.  1.
</event>
<event>
 7    1  0.6999029E-005  0.3182123E+03  0.7818608E-02  0.1312620E+00
          2   -1    0    0  502    0  0.00000000000E+00  0.00000000000E+00  0.28976247100E+03  0.28976247100E+03  0.00000000000E+00 0. -1.
          1   -1    0    0  501    0 -0.00000000000E+00 -0.00000000000E+00 -0.20439910596E+04  0.20439910596E+04  0.00000000000E+00 0. -1.
         25    2    1    2    0    0  0.17407834765E+03  0.26619594954E+03 -0.11036991585E+04  0.11553961753E+04  0.12499973931E+03 0.  0.
          2    1    1    2  501    0 -0.19351456823E+03 -0.25336736715E+03 -0.88606349200E+03  0.94167479668E+03  0.00000000000E+00 0. -1.
          1    1    1    2  502    0  0.19436220580E+02 -0.12828582395E+02  0.23553406193E+03  0.23668255856E+03  0.00000000000E+00 0. -1.
         22    1    3    3    0    0  0.11476338830E+03  0.20536834999E+03 -0.59804872172E+03  0.64265781565E+03  0.00000000000E+00 0.  1.
         22    1    3    3    0    0  0.59314959348E+02  0.60827599556E+02 -0.50565043677E+03  0.51273835967E+03  0.00000000000E+00 0.  1.
</event>
<event>
 7    1  0.6999029E-005  0.1418878E+03  0.7818608E-02  0.1339348E+00
          2   -1    0    0  502    0  0.00000000000E+00  0.00000000000E+00  0.98512355173E+02  0.98512355173E+02  0.00000000000E+00 0. -1.
          1   -1    0    0  501    0 -0.00000000000E+00 -0.00000000000E+00 -0.12351732318E+04  0.12351732318E+04  0.00000000000E+00 0. -1.
         25    2    1    2    0    0  0.11151411521E+03  0.19690464064E+02 -0.10435592668E+03  0.19833894995E+03  0.12500026946E+03 0.  0.
          2    1    1    2  501    0 -0.14503727411E+03  0.43020979489E+01 -0.10698154714E+04  0.10796107919E+04  0.00000000000E+00 0. -1.
          1    1    1    2  502    0  0.33523158897E+02 -0.23992562013E+02  0.37510521501E+02  0.55735845177E+02  0.00000000000E+00 0. -1.
         22    1    3    3    0    0  0.13656329650E+03  0.60862190019E+01 -0.10029642478E+03  0.16954630293E+03  0.00000000000E+00 0.  1.
         22    1    3    3    0    0 -0.25049181287E+02  0.13604245062E+02 -0.40595019039E+01  0.28792647023E+02  0.00000000000E+00 0.  1.
</event>
<event>
 7    1  0.6999029E-005  0.8384423E+03  0.7818608E-02  0.1210712E+00
          2   -1    0    0  502    0  0.00000000000E+00  0.00000000000E+00  0.17564141248E+04  0.17564141248E+04  0.00000000000E+00 0. -1.
          1   -1    0    0  501    0 -0.00000000000E+00 -0.00000000000E+00 -0.20892595400E+04  0.20892595400E+04  0.00000000000E+00 0. -1.
         25    2    1    2    0    0  0.27195948647E+03 -0.79013895355E+03 -0.17358122809E+04  0.19305314528E+04  0.12500355010E+03 0.  0.
          2    1    1    2  501    0 -0.27544994713E+03  0.81392100278E+03  0.46528848019E+03  0.97715579205E+03  0.00000000000E+00 0. -1.
          1    1    1    2  502    0  0.34904606547E+01 -0.23782049232E+02  0.93767838559E+03  0.93798641994E+03  0.00000000000E+00 0. -1.
         22    1    3    3    0    0  0.40144628542E+02 -0.33197274936E+02 -0.13413427353E+03  0.14389459197E+03  0.00000000000E+00 0. -1.
         22    1    3    3    0    0  0.23181485793E+03 -0.75694167861E+03 -0.16016780074E+04  0.17866368609E+04  0.00000000000E+00 0. -1.
</event>
<event>
 7    1  0.6999029E-005  0.1782165E+03  0.7818608E-02  0.1242554E+00
          2   -1    0    0  502    0  0.00000000000E+00  0.00000000000E+00  0.69302229647E+03  0.69302229647E+03  0.00000000000E+00 0. -1.
          1   -1    0    0  501    0 -0.00000000000E+00 -0.00000000000E+00 -0.10515359191E+04  0.10515359191E+04  0.00000000000E+00 0. -1.
         25    2    1    2    0    0 -0.18486406019E+02  0.10585260310E+03  0.92705760959E+02  0.18910508981E+03  0.12497942265E+03 0.  0.
          2    1    1    2  501    0  0.70206390697E+02 -0.16850929879E+03 -0.99197304119E+03  0.10086301778E+04  0.00000000000E+00 0. -1.
          1    1    1    2  502    0 -0.51719984678E+02  0.62656695690E+02  0.54075365756E+03  0.54682294803E+03  0.00000000000E+00 0. -1.
         22    1    3    3    0    0 -0.58063262177E+01  0.12205387624E+03  0.10830894029E+03  0.16328407355E+03  0.00000000000E+00 0.  1.
         22    1    3    3    0    0 -0.12680079801E+02 -0.16201273137E+02 -0.15603179334E+02  0.25821016253E+02  0.00000000000E+00 0.  1.
</event>
<event>
 7    1  0.6999029E-005  0.2623307E+03  0.7818608E-02  0.1287391E+00
          2   -1    0    0  502    0  0.00000000000E+00  0.00000000000E+00  0.19848351971E+04  0.19848351971E+04  0.00000000000E+00 0. -1.
          1   -1    0    0  501    0 -0.00000000000E+00 -0.00000000000E+00 -0.45571576481E+03  0.45571576481E+03  0.00000000000E+00 0. -1.
         25    2    1    2    0    0 -0.24301542411E+03 -0.12031899304E+02 -0.91010568583E+02  0.28828565542E+03  0.12499773027E+03 0.  0.
          2    1    1    2  501    0  0.27631632939E+03 -0.68385808998E+00 -0.19410495596E+03  0.33768019705E+03  0.00000000000E+00 0. -1.
          1    1    1    2  502    0 -0.33300905277E+02  0.12715757394E+02  0.18142349569E+04  0.18145851095E+04  0.00000000000E+00 0. -1.
         22    1    3    3    0    0 -0.73571285339E+02  0.34868855817E+02 -0.76756756365E+02  0.11189356898E+03  0.00000000000E+00 0. -1.
         22    1    3    3    0    0 -0.16944413877E+03 -0.46900755122E+02 -0.14253812218E+02  0.17639208644E+03  0.00000000000E+00 0. -1.
</event>
<event>
 7    1  0.6999029E-005  0.2325944E+03  0.7818608E-02  0.1328060E+00
          2   -1    0    0  502    0  0.00000000000E+00  0.00000000000E+00  0.79998338594E+03  0.79998338594E+03  0.00000000000E+00 0. -1.
          1   -1    0    0  501    0 -0.00000000000E+00 -0.00000000000E+00 -0.76665665399E+03  0.76665665399E+03  0.00000000000E+00 0. -1.
         25    2    1    2    0    0  0.11155680780E+03  0.22262239078E+03  0.15586701604E+03  0.31926029732E+03  0.12500784183E+03 0.  0.
          2    1    1    2  501    0  0.59465166192E+01 -0.27112877787E+02 -0.66152880707E+03  0.66211089085E+03  0.00000000000E+00 0. -1.
          1    1    1    2  502    0 -0.11750332442E+03 -0.19550951299E+03  0.53898852299E+03  0.58526885175E+03  0.00000000000E+00 0. -1.
         22    1    3    3    0    0  0.11715345274E+03  0.13726538116E+03  0.58618365836E+02  0.18974411497E+03  0.00000000000E+00 0.  1.
         22    1    3    3    0    0 -0.55966449383E+01  0.85357009616E+02  0.97248650200E+02  0.12951618235E+03  0.00000000000E+00 0.  1.
</event>
<event>
 7    1  0.6999029E-005  0.4405465E+03  0.7818608E-02  0.1164014E+00
          2   -1    0    0  502    0  0.00000000000E+00  0.00000000000E+00  0.72125025983E+03  0.72125025983E+03  0.00000000000E+00 0. -1.
          1   -1    0    0  501    0 -0.00000000000E+00 -0.00000000000E+00 -0.50170419975E+03  0.50170419975E+03  0.00000000000E+00 0. -1.
         25    2    1    2    0    0  0.41344403440E+03 -0.59098783676E+02 -0.15308643748E+03  0.46206487702E+03  0.12505941558E+03 0.  0.
          2    1    1    2  501    0 -0.47749923116E+03  0.10151604591E+03  0.12828004502E+03  0.50474428505E+03  0.00000000000E+00 0. -1.
          1    1    1    2  502    0  0.64055196767E+02 -0.42417262239E+02  0.24435245254E+03  0.25614529750E+03  0.00000000000E+00 0. -1.
         22    1    3    3    0    0  0.33809342453E+03 -0.92434090682E+02 -0.10169418634E+03  0.36495606909E+03  0.00000000000E+00 0.  1.
         22    1    3    3    0    0  0.75350609865E+02  0.33335307006E+02 -0.51392251141E+02  0.97108807930E+02  0.00000000000E+00 0.  1.
</event>
<event>
 7    1  0.6999029E-005  0.1336315E+04  0.7818608E-02  0.1127647E+00
          2   -1    0    0  502    0  0.00000000000E+00  0.00000000000E+00  0.27218368462E+04  0.27218368462E+04  0.00000000000E+00 0. -1.
          1   -1    0    0  501    0 -0.00000000000E+00 -0.00000000000E+00 -0.16885863616E+04  0.16885863616E+04  0.00000000000E+00 0. -1.
         25    2    1    2    0    0 -0.30840060474E+03 -0.13308540101E+04  0.70868658734E+03  0.15440666789E+04  0.12498760139E+03 0.  0.
          2    1    1    2  501    0  0.30257555679E+03  0.12921929318E+04 -0.92403595188E+03  0.16171447001E+04  0.00000000000E+00 0. -1.
          1    1    1    2  502    0  0.58250479414E+01  0.38661078308E+02  0.12485998491E+04  0.12492118289E+04  0.00000000000E+00 0. -1.
         22    1    3    3    0    0 -0.17218327693E+03 -0.93723401018E+03  0.45078996893E+03  0.10541661476E+04  0.00000000000E+00 0.  1.
         22    1    3    3    0    0 -0.13621732781E+03 -0.39361999996E+03  0.25789661841E+03  0.48990053129E+03  0.00000000000E+00 0.  1.
</event>
<event>
 7    1  0.6999029E-005  0.1794055E+03  0.7818608E-02  0.1225455E+00
          2   -1    0    0  502    0  0.00000000000E+00  0.00000000000E+00  0.25284588800E+04  0.25284588800E+04  0.00000000000E+00 0. -1.
          1   -1    0    0  501    0 -0.00000000000E+00 -0.00000000000E+00 -0.86138364207E+02  0.86138364207E+02  0.00000000000E+00 0. -1.
         25    2    1    2    0    0 -0.22286144958E+03  0.13984925174E+02  0.19060766358E+03  0.31909039899E+03  0.12499838989E+03 0.  0.
          2    1    1    2  501    0  0.13293652910E+03 -0.48097626273E+02  0.21992005783E+03  0.26143896852E+03  0.00000000000E+00 0. -1.
          1    1    1    2  502    0  0.89924920479E+02  0.34112701099E+02  0.20317927944E+04  0.20340678767E+04  0.00000000000E+00 0. -1.
         22    1    3    3    0    0 -0.90538086726E+02 -0.32813582952E+02  0.20330701487E+02  0.98423644503E+02  0.00000000000E+00 0. -1.
         22    1    3    3    0    0 -0.13232336285E+03  0.46798508126E+02  0.17027696209E+03  0.22066675449E+03  0.00000000000E+00 0. -1.
</event>
<event>
 7    1  0.6999029E-005  0.4983899E+03  0.7818608E-02  0.1140427E+00
          2   -1    0    0  502    0  0.00000000000E+00  0.00000000000E+00  0.89367046106E+03  0.89367046106E+03  0.00000000000E+00 0. -1.
          1   -1    0    0  501    0 -0.00000000000E+00 -0.00000000000E+00 -0.94421949428E+03  0.94421949428E+03  0.00000000000E+00 0. -1.
         25    2    1    2    0    0 -0.47473389590E+03 -0.32164249784E+03  0.26677922892E+03  0.64468440113E+03  0.12498260579E+03 0.  0.
          2    1    1    2  501    0  0.41084286630E+03  0.25867267903E+03 -0.67106562820E+03  0.82827078484E+03  0.00000000000E+00 0. -1.
          1    1    1    2  502    0  0.63891029597E+02  0.62969818805E+02  0.35373736606E+03  0.36493476936E+03  0.00000000000E+00 0. -1.
         22    1    3    3    0    0 -0.58303262404E+02 -0.38688415045E+02  0.83393016441E+02  0.10885981378E+03  0.00000000000E+00 0.  1.
         22    1    3    3    0    0 -0.41643063350E+03 -0.28295408279E+03  0.18338621248E+03  0.53582458735E+03  0.00000000000E+00 0.  1.
</event>
<event>
 7    1  0.6999029E-005  0.9389637E+03  0.7818608E-02  0.1054015E+00
          2   -1    0    0  502    0  0.00000000000E+00  0.00000000000E+00  0.18332872186E+04  0.18332872186E+04  0.00000000000E+00 0. -1.
          1   -1    0    0  501    0 -0.00000000000E+00 -0.00000000000E+00 -0.21640151634E+04  0.21640151634E+04  0.00000000000E+00 0. -1.
         25    2    1    2    0    0  0.10007186629E+04 -0.29592896009E+03 -0.59254280196E+03  0.12065422818E+04  0.12500205626E+03 0.  0.
          2    1    1    2  501    0 -0.14130428158E+03 -0.41260139294E+02 -0.11196109737E+04  0.11292466655E+04  0.00000000000E+00 0. -1.
          1    1    1    2  502    0 -0.85941438130E+03  0.33718909939E+03  0.13814258308E+04  0.16615134347E+04  0.00000000000E+00 0. -1.
         22    1    3    3    0    0  0.46935045790E+03 -0.15122132721E+03 -0.35046637627E+03  0.60496646439E+03  0.00000000000E+00 0.  1.
         22    1    3    3    0    0  0.53136820498E+03 -0.14470763288E+03 -0.24207642568E+03  0.60157581746E+03  0.00000000000E+00 0.  1.
</event>
<event>
 7    1  0.6999029E-005  0.2381688E+03  0.7818608E-02  0.1127534E+00
          2   -1    0    0  502    0  0.00000000000E+00  0.00000000000E+00  0.36661364948E+04  0.36661364948E+04  0.00000000000E+00 0. -1.
          1   -1    0    0  501    0 -0.00000000000E+00 -0.00000000000E+00 -0.64949424476E+03  0.64949424476E+03  0.00000000000E+00 0. -1.
         25    2    1    2    0    0  0.32346328667E+03  0.31313965936E+03  0.61437199712E+03  0.77185692743E+03  0.12500088593E+03 0.  0.
          2    1    1    2  501    0 -0.17279953469E+03 -0.15327384696E+03 -0.54312341378E+03  0.59019962211E+03  0.00000000000E+00 0. -1.
          1    1    1    2  502    0 -0.15066375198E+03 -0.15986581240E+03  0.29453936667E+04  0.29535741900E+04  0.00000000000E+00 0. -1.
         22    1    3    3    0    0  0.25344314153E+03  0.29687698474E+03  0.47308084256E+03  0.61333094953E+03  0.00000000000E+00 0. -1.
         22    1    3    3    0    0  0.70020145144E+02  0.16262674624E+02  0.14129115455E+03  0.15852597789E+03  0.00000000000E+00 0. -1.
</event>
<event>
 7    1  0.6999029E-005  0.2012264E+03  0.7818608E-02  0.1340549E+00
          2   -1    0    0  502    0  0.00000000000E+00  0.00000000000E+00  0.31347533608E+04  0.31347533608E+04  0.00000000000E+00 0. -1.
          1   -1    0    0  501    0 -0.00000000000E+00 -0.00000000000E+00 -0.24884867262E+03  0.24884867262E+03  0.00000000000E+00 0. -1.
         25    2    1    2    0    0 -0.13199028267E+03 -0.18705155668E+03  0.15778461544E+04  0.15992603517E+04  0.12500186348E+03 0.  0.
          2    1    1    2  501    0  0.11226539715E+03  0.16611202313E+03 -0.19578127952E+03  0.28022675289E+03  0.00000000000E+00 0. -1.
          1    1    1    2  502    0  0.19724885525E+02  0.20939533552E+02  0.15038398133E+04  0.15041149288E+04  0.00000000000E+00 0. -1.
         22    1    3    3    0    0 -0.14267668697E+03 -0.10309429205E+03  0.10377171967E+04  0.10525407594E+04  0.00000000000E+00 0. -1.
         22    1    3    3    0    0  0.10686404303E+02 -0.83957264633E+02  0.54012895776E+03  0.54671959224E+03  0.00000000000E+00 0. -1.
</event>
<event>
 7    1  0.6999029E-005  0.3196588E+03  0.7818608E-02  0.1218172E+00
          2   -1    0    0  502    0  0.00000000000E+00  0.00000000000E+00  0.41376705262E+03  0.41376705262E+03  0.00000000000E+00 0. -1.
          1   -1    0    0  501    0 -0.00000000000E+00 -0.00000000000E+00 -0.20529006438E+04  0.20529006438E+04  0.00000000000E+00 0. -1.
         25    2    1    2    0    0 -0.19648210811E+02  0.28705912819E+03 -0.76172133188E+03  0.82379192206E+03  0.12499899257E+03 0.  0.
          2    1    1    2  501    0  0.70616079861E+01 -0.34393765801E+03 -0.12342600187E+04  0.12813043248E+04  0.00000000000E+00 0. -1.
          1    1    1    2  502    0  0.12586602825E+02  0.56878529818E+02  0.35684775943E+03  0.36157144956E+03  0.00000000000E+00 0. -1.
         22    1    3    3    0    0  0.33760176132E+02  0.16433914319E+03 -0.53309845036E+03  0.55887481716E+03  0.00000000000E+00 0. -1.
         22    1    3    3    0    0 -0.53408386943E+02  0.12271998500E+03 -0.22862288152E+03  0.26491710490E+03  0.00000000000E+00 0. -1.
</event>
<event>
 7    1  0.6999029E-005  0.2235572E+03  0.7818608E-02  0.1352458E+00
          2   -1    0    0  502    0  0.00000000000E+00  0.00000000000E+00  0.55302885000E+03  0.55302885000E+03  0.00000000000E+00 0. -1.
          1   -1    0    0  501    0 -0.00000000000E+00 -0.00000000000E+00 -0.11424592152E+04  0.11424592152E+04  0.00000000000E+00 0. -1.
         25    2    1    2    0    0 -0.12992166297E+03 -0.16873107256E+03 -0.78108274386E+03  0.81918610520E+03  0.12500323533E+03 0.  0.
          2    1    1    2  501    0  0.10703573628E+02 -0.20784950980E+02 -0.31840759806E+03  0.31926474778E+03  0.00000000000E+00 0. -1.
          1    1    1    2  502    0  0.11921808934E+03  0.18951602354E+03  0.51005997669E+03  0.55703721225E+03  0.00000000000E+00 0. -1.
         22    1    3    3    0    0 -0.11512174767E+03 -0.78315091286E+02 -0.31828988017E+03  0.34741145366E+03  0.00000000000E+00 0. -1.
         22    1    3    3    0    0 -0.14799915294E+02 -0.90415981271E+02 -0.46279286368E+03  0.47177465154E+03  0.00000000000E+00 0. -1.
</event>
<event>
 7    1  0.6999029E-005  0.7647774E+02  0.7818608E-02  0.1471176E+00
          2   -1    0    0  502    0  0.00000000000E+00  0.00000000000E+00  0.15749890188E+04  0.15749890188E+04  0.00000000000E+00 0. -1.
          1   -1    0    0  501    0 -0.00000000000E+00 -0.00000000000E+00 -0.10736565940E+04  0.10736565940E+04  0.00000000000E+00 0. -1.
         25    2    1    2    0    0 -0.25200941308E+02  0.60024165317E+02  0.23117823386E+03  0.27075117678E+03  0.12499934421E+03 0.  0.
          2    1    1    2  501    0  0.20927986596E+02  0.17190696026E+02 -0.10525665781E+04  0.10529149547E+04  0.00000000000E+00 0. -1.
          1    1    1    2  502    0  0.42729547122E+01 -0.77214861342E+02  0.13227207690E+04  0.13249794813E+04  0.00000000000E+00 0. -1.
         22    1    3    3    0    0 -0.40492691056E+02 -0.36423048791E+01  0.18793691272E+03  0.19228418441E+03  0.00000000000E+00 0.  1.
         22    1    3    3    0    0  0.15291749748E+02  0.63666470196E+02  0.43241321146E+02  0.78466992372E+02  0.00000000000E+00 0.  1.
</event>
<event>
 7    1  0.6999029E-005  0.1163042E+04  0.7818608E-02  0.9788410E-01
          2   -1    0    0  502    0  0.00000000000E+00  0.00000000000E+00  0.14158515027E+04  0.14158515027E+04  0.00000000000E+00 0. -1.
          1   -1    0    0  501    0 -0.00000000000E+00 -0.00000000000E+00 -0.23214835717E+04  0.23214835717E+04  0.00000000000E+00 0. -1.
         25    2    1    2    0    0  0.66961008303E+03 -0.11310658522E+04  0.41995000477E+03  0.13855219647E+04  0.12500193180E+03 0.  0.
          2    1    1    2  501    0 -0.29646292050E+03  0.11004392116E+04 -0.15434631236E+04  0.19186284517E+04  0.00000000000E+00 0. -1.
          1    1    1    2  502    0 -0.37314716253E+03  0.30626640575E+02  0.21788104989E+03  0.43318465800E+03  0.00000000000E+00 0. -1.
         22    1    3    3    0    0  0.13302142351E+02 -0.91119603799E+00  0.60818268160E+01  0.14654892930E+02  0.00000000000E+00 0. -1.
         22    1    3    3    0    0  0.65630794068E+03 -0.11301546562E+04  0.41386817796E+03  0.13708670718E+04  0.00000000000E+00 0. -1.
</event>
<event>
 7    1  0.6999029E-005  0.3423842E+03  0.7818608E-02  0.1230973E+00
          2   -1    0    0  502    0  0.00000000000E+00  0.00000000000E+00  0.92623690594E+03  0.92623690594E+03  0.00000000000E+00 0. -1.
          1   -1    0    0  501    0 -0.00000000000E+00 -0.00000000000E+00 -0.55793363723E+03  0.55793363723E+03  0.00000000000E+00 0. -1.
         25    2    1    2    0    0  0.31772679800E+03 -0.17074666017E+03 -0.17700124960E+03  0.42078454238E+03  0.12500179445E+03 0.  0.
          2    1    1    2  501    0 -0.39868827991E+02 -0.25999635023E+02 -0.22035812759E+03  0.22544003385E+03  0.00000000000E+00 0. -1.
          1    1    1    2  502    0 -0.27785797001E+03  0.19674629520E+03  0.76566264590E+03  0.83794596693E+03  0.00000000000E+00 0. -1.
         22    1    3    3    0    0  0.19562521661E+03 -0.10015625116E+03 -0.38515893338E+02  0.22312322618E+03  0.00000000000E+00 0.  1.
         22    1    3    3    0    0  0.12210158139E+03 -0.70590409016E+02 -0.13848535627E+03  0.19766131620E+03  0.00000000000E+00 0.  1.
</event>
<event>
 7    1  0.6999029E-005  0.4759096E+03  0.7818608E-02  0.1058384E+00
          2   -1    0    0  502    0  0.00000000000E+00  0.00000000000E+00  0.21371103105E+04  0.21371103105E+04  0.00000000000E+00 0. -1.
          1   -1    0    0  501    0 -0.00000000000E+00 -0.00000000000E+00 -0.81442798403E+03  0.81442798403E+03  0.00000000000E+00 0. -1.
         25    2    1    2    0    0 -0.14660281257E+03  0.62048642947E+03 -0.18176334871E+03  0.67465634347E+03  0.12500989178E+03 0.  0.
          2    1    1    2  501    0 -0.26326178392E+02 -0.40913290757E+03 -0.26390192687E+03  0.48757259021E+03  0.00000000000E+00 0. -1.
          1    1    1    2  502    0  0.17292899096E+03 -0.21135352190E+03  0.17683476020E+04  0.17893093608E+04  0.00000000000E+00 0. -1.
         22    1    3    3    0    0 -0.62988403525E+02  0.28502709845E+03 -0.14802535051E+03  0.32729113985E+03  0.00000000000E+00 0.  1.
         22    1    3    3    0    0 -0.83614409040E+02  0.33545933102E+03 -0.33737998209E+02  0.34736520362E+03  0.00000000000E+00 0.  1.
</event>
<event>
 7    1  0.6999029E-005  0.1977440E+03  0.7818608E-02  0.1164768E+00
          2   -1    0    0  502    0  0.00000000000E+00  0.00000000000E+00  0.36256162112E+03  0.36256162112E+03  0.00000000000E+00 0. -1.
          1   -1    0    0  501    0 -0.00000000000E+00 -0.00000000000E+00 -0.48389536911E+03  0.48389536911E+03  0.00000000000E+00 0. -1.
         25    2    1    2    0    0  0.15310059239E+03 -0.22754900837E+03 -0.40356112328E+02  0.30408962297E+03  0.12499416144E+03 0.  0.
          2    1    1    2  501    0  0.12145119124E+02  0.18903911018E+03 -0.24276307370E+03  0.30792401506E+03  0.00000000000E+00 0. -1.
          1    1    1    2  502    0 -0.16524571152E+03  0.38509898193E+02  0.16178543803E+03  0.23444335221E+03  0.00000000000E+00 0. -1.
         22    1    3    3    0    0  0.12219448727E+03 -0.20490371062E+03 -0.77381485446E+02  0.25080852783E+03  0.00000000000E+00 0.  1.
         22    1    3    3    0    0  0.30906105125E+02 -0.22645297753E+02  0.37025373118E+02  0.53281095135E+02  0.00000000000E+00 0.  1.
</event>
<event>
 7    1  0.6999029E-005  0.5952110E+03  0.7818608E-02  0.1145834E+00
          2   -1    0    0  502    0  0.00000000000E+00  0.00000000000E+00  0.10364394916E+04  0.10364394916E+04  0.00000000000E+00 0. -1.
          1   -1    0    0  501    0 -0.00000000000E+00 -0.00000000000E+00 -0.12373332969E+04  0.12373332969E+04  0.00000000000E+00 0. -1.
         25    2    1    2    0    0 -0.15367843866E+03 -0.62214863620E+03 -0.23107559410E+03  0.69260902955E+03  0.12500139836E+03 0.  0.
          2    1    1    2  501    0  0.53448856140E+02  0.45816426208E+02 -0.66720849959E+03  0.67091214555E+03  0.00000000000E+00 0. -1.
          1    1    1    2  502    0  0.10022958252E+03  0.57633221000E+03  0.69739028830E+03  0.91025161340E+03  0.00000000000E+00 0. -1.
         22    1    3    3    0    0 -0.30345015318E+02 -0.27571240493E+03 -0.46841762934E+02  0.28130464081E+03  0.00000000000E+00 0.  1.
         22    1    3    3    0    0 -0.12333342335E+03 -0.34643623127E+03 -0.18423383116E+03  0.41130438874E+03  0.00000000000E+00 0.  1.
</event>
<event>
 7    1  0.6999029E-005  0.1041423E+03  0.7818608E-02  0.1305566E+00
          2   -1    0    0  502    0  0.00000000000E+00  0.00000000000E+00  0.34628123708E+04  0.34628123708E+04  0.00000000000E+00 0. -1.
          1   -1    0    0  501    0 -0.00000000000E+00 -0.00000000000E+00 -0.31356463149E+02  0.31356463149E+02  0.00000000000E+00 0. -1.
         25    2    1    2    0    0  0.27070589890E+02 -0.27893669807E+02  0.45721676047E+03  0.47558555766E+03  0.12499433164E+03 0.  0.
          2    1    1    2  501    0  0.71687058307E+02 -0.24839746507E+02  0.47091278237E+02  0.89295217236E+02  0.00000000000E+00 0. -1.
          1    1    1    2  502    0 -0.98757648197E+02  0.52733416314E+02  0.29271478690E+04  0.29292880591E+04  0.00000000000E+00 0. -1.
         22    1    3    3    0    0  0.90896795097E+01 -0.43775407613E+02  0.47739718550E+02  0.65406340002E+02  0.00000000000E+00 0.  1.
         22    1    3    3    0    0  0.17980910380E+02  0.15881737807E+02  0.40947704192E+03  0.41017921766E+03  0.00000000000E+00 0.  1.
</event>
<event>
 7    1  0.6999029E-005  0.6067295E+03  0.7818608E-02  0.1106253E+00
          2   -1    0    0  502    0  0.00000000000E+00  0.00000000000E+00  0.11998737429E+04  0.11998737429E+04  0.00000000000E+00 0. -1.
          1   -1    0    0  501    0 -0.00000000000E+00 -0.00000000000E+00 -0.15004469830E+04  0.15004469830E+04  0.00000000000E+00 0. -1.
         25    2    1    2    0    0  0.40325136076E+03 -0.49897708846E+03  0.39801249705E+01  0.65362855949E+03  0.12499863046E+03 0.  0.
          2    1    1    2  501    0  0.44943105510E+02  0.10334537917E+03 -0.10697373165E+04  0.10756570441E+04  0.00000000000E+00 0. -1.
          1    1    1    2  502    0 -0.44819446627E+03  0.39563170930E+03  0.76518395148E+03  0.97103512222E+03  0.00000000000E+00 0. -1.
         22    1    3    3    0    0  0.11365012874E+03 -0.67131492886E+02  0.19540663367E+02  0.13343472796E+03  0.00000000000E+00 0.  1.
         22    1    3    3    0    0  0.28960123202E+03 -0.43184559558E+03 -0.15560538397E+02  0.52019383153E+03  0.00000000000E+00 0.  1.
</event>
<event>
 7    1  0.6999029E-005  0.4598240E+03  0.7818608E-02  0.1084877E+00
          2   -1    0    0  502    0  0.00000000000E+00  0.00000000000E+00  0.10054293510E+04  0.10054293510E+04  0.00000000000E+00 0. -1.
          1   -1    0    0  501    0 -0.00000000000E+00 -0.00000000000E+00 -0.79345613083E+03  0.79345613083E+03  0.00000000000E+00 0. -1.
         25    2    1    2    0    0 -0.25416966470E+03  0.39630238461E+03  0.35139185982E+03  0.60063180178E+03  0.12499809462E+03 0.  0.
          2    1    1    2  501    0  0.67798827629E+02 -0.45914146224E+03 -0.56395066738E+03  0.73037519030E+03  0.00000000000E+00 0. -1.
          1    1    1    2  502    0  0.18637083708E+03  0.62839077621E+02  0.42453202773E+03  0.46787848974E+03  0.00000000000E+00 0. -1.
         22    1    3    3    0    0 -0.23237986554E+03  0.36574532272E+03  0.35854310994E+03  0.56242617710E+03  0.00000000000E+00 0. -1.
         22    1    3    3    0    0 -0.21789799162E+02  0.30557061893E+02 -0.71512501225E+01  0.38205624683E+02  0.00000000000E+00 0. -1.
</event>
<event>
 7    1  0.6999029E-005  0.5581562E+02  0.7818608E-02  0.1496744E+00
          2   -1    0    0  502    0  0.00000000000E+00  0.00000000000E+00  0.37799869538E+03  0.37799869538E+03  0.00000000000E+00 0. -1.
          1   -1    0    0  501    0 -0.00000000000E+00 -0.00000000000E+00 -0.10236306650E+04  0.10236306650E+04  0.00000000000E+00 0. -1.
         25    2    1    2    0    0  0.77144567389E+02  0.27426318000E+02 -0.26480564112E+03  0.30405607725E+03  0.12499833337E+03 0.  0.
          2    1    1    2  501    0 -0.54170703192E+02 -0.66015533058E+01 -0.73751909356E+03  0.73953529934E+03  0.00000000000E+00 0. -1.
          1    1    1    2  502    0 -0.22973864197E+02 -0.20824764695E+02  0.35669276501E+03  0.35803798384E+03  0.00000000000E+00 0. -1.
         22    1    3    3    0    0  0.93951896592E+02  0.39986781816E+02 -0.11923273392E+03  0.15697880886E+03  0.00000000000E+00 0.  1.
         22    1    3    3    0    0 -0.16807329203E+02 -0.12560463815E+02 -0.14557290720E+03  0.14707726839E+03  0.00000000000E+00 0.  1.
</event>
<event>
 7    1  0.6999029E-005  0.1314716E+03  0.7818608E-02  0.1363967E+00
          2   -1    0    0  502    0  0.00000000000E+00  0.00000000000E+00  0.34087675206E+03  0.34087675206E+03  0.00000000000E+00 0. -1.
          1   -1    0    0  501    0 -0.00000000000E+00 -0.00000000000E+00 -0.32992956396E+03  0.32992956396E+03  0.00000000000E+00 0. -1.
         25    2    1    2    0    0 -0.12641698176E+03 -0.99942126512E+02 -0.16368648565E+03  0.26151047495E+03  0.12499912399E+03 0.  0.
          2    1    1    2  501    0  0.15917917482E+02  0.32379059311E+02 -0.99644403339E+02  0.10597542496E+03  0.00000000000E+00 0. -1.
          1    1    1    2  502    0  0.11049906428E+03  0.67563067201E+02  0.27427807708E+03  0.30332041610E+03  0.00000000000E+00 0. -1.
         22    1    3    3    0    0 -0.68052242884E+02 -0.10552021518E+03 -0.15913182953E+03  0.20270313945E+03  0.00000000000E+00 0.  1.
         22    1    3    3    0    0 -0.58364738877E+02  0.55780886658E+01 -0.45546561212E+01  0.58807335509E+02  0.00000000000E+00 0.  1.
</event>
<event>
 7    1  0.6999029E-005  0.6461410E+02  0.7818608E-02  0.1417871E+00
          2   -1    0    0  502    0  0.00000000000E+00  0.00000000000E+00  0.17801220741E+03  0.17801220741E+03  0.00000000000E+00 0. -1.
          1   -1    0    0  501    0 -0.00000000000E+00 -0.00000000000E+00 -0.18111705955E+03  0.18111705955E+03  0.00000000000E+00 0. -1.
         25    2    1    2    0    0  0.65445740755E+02 -0.49411171836E+02 -0.41465213728E+02  0.15514098816E+03  0.12499901348E+03 0.  0.
          2    1    1    2  501    0 -0.19107777534E+02  0.60415786046E+02 -0.64634910501E+02  0.90514341523E+02  0.00000000000E+00 0. -1.
          1    1    1    2  502    0 -0.46337963221E+02 -0.11004614210E+02  0.10299527209E+03  0.11347393728E+03  0.00000000000E+00 0. -1.
         22    1    3    3    0    0 -0.36556495427E+02 -0.25799183977E+02 -0.14332415581E+02  0.46982905276E+02  0.00000000000E+00 0. -1.
         22    1    3    3    0    0  0.10200223618E+03 -0.23611987859E+02 -0.27132798147E+02  0.10815808288E+03  0.00000000000E+00 0. -1.
</event>
<event>
 7    1  0.6999029E-005  0.7499559E+03  0.7818608E-02  0.1120698E+00
          2   -1    0    0  502    0  0.00000000000E+00  0.00000000000E+00  0.38531552907E+04  0.38531552907E+04  0.00000000000E+00 0. -1.
          1   -1    0    0  501    0 -0.00000000000E+00 -0.00000000000E+00 -0.12521937147E+04  0.12521937147E+04  0.00000000000E+00 0. -1.
         25    2    1    2    0    0 -0.50692065826E+03  0.62600824673E+03  0.32645657651E+03  0.87809721788E+03  0.12500379570E+03 0.  0.
          2    1    1    2  501    0  0.10342839358E+02 -0.75232495877E+02 -0.93251788990E+03  0.93560489404E+03  0.00000000000E+00 0. -1.
          1    1    1    2  502    0  0.49657781891E+03 -0.55077575086E+03  0.32070228894E+04  0.32916468934E+04  0.00000000000E+00 0. -1.
         22    1    3    3    0    0 -0.41369872628E+03  0.42993865170E+03  0.21632087714E+03  0.63465628670E+03  0.00000000000E+00 0. -1.
         22    1    3    3    0    0 -0.93221931981E+02  0.19606959503E+03  0.11013569937E+03  0.24344093118E+03  0.00000000000E+00 0. -1.
</event>
<event>
 7    1  0.6999029E-005  0.1382489E+03  0.7818608E-02  0.1358821E+00
          2   -1    0    0  502    0  0.00000000000E+00  0.00000000000E+00  0.15700382065E+04  0.15700382065E+04  0.00000000000E+00 0. -1.
          1   -1    0    0  501    0 -0.00000000000E+00 -0.00000000000E+00 -0.71705537775E+03  0.71705537775E+03  0.00000000000E+00 0. -1.
         25    2    1    2    0    0  0.14171280544E+03 -0.47655957914E+02 -0.32617387092E+03  0.37995809423E+03  0.12500059899E+03 0.  0.
          2    1    1    2  501    0 -0.24737540570E+02 -0.25912286936E+02 -0.36000497612E+03  0.36178305012E+03  0.00000000000E+00 0. -1.
          1    1    1    2  502    0 -0.11697526487E+03  0.73568244850E+02  0.15391616758E+04  0.15453524399E+04  0.00000000000E+00 0. -1.
         22    1    3    3    0    0  0.15319332304E+03 -0.65359779767E+02 -0.24618153039E+03  0.29722960980E+03  0.00000000000E+00 0.  1.
         22    1    3    3    0    0 -0.11480517596E+02  0.17703821853E+02 -0.79992340538E+02  0.82728484437E+02  0.00000000000E+00 0.  1.
</event>
<event>
 7    1  0.6999029E-005  0.2586024E+03  0.7818608E-02  0.1266595E+00
          2   -1    0    0  502    0  0.00000000000E+00  0.00000000000E+00  0.36454548444E+03  0.36454548444E+03  0.00000000000E+00 0. -1.
          1   -1    0    0  501    0 -0.00000000000E+00 -0.00000000000E+00 -0.10169228195E+04  0.10169228195E+04  0.00000000000E+00 0. -1.
         25    2    1    2    0    0  0.14853517017E+02 -0.22978564506E+03 -0.28065482888E+03  0.38394518790E+03  0.12499881878E+03 0.  0.
          2    1    1    2  501    0 -0.91808921624E+01  0.27353457107E+03 -0.65549745170E+03  0.71033960859E+03  0.00000000000E+00 0. -1.
          1    1    1    2  502    0 -0.56726248542E+01 -0.43748926001E+02  0.28377494556E+03  0.28718350740E+03  0.00000000000E+00 0. -1.
         22    1    3    3    0    0 -0.52834127206E+02 -0.12575032387E+03 -0.12644674783E+03  0.18599292725E+03  0.00000000000E+00 0.  1.
         22    1    3    3    0    0  0.67687644223E+02 -0.10403532120E+03 -0.15420808104E+03  0.19795226065E+03  0.00000000000E+00 0.  1.
</event>
<event>
 7    1  0.6999029E-005  0.8240993E+02  0.7818608E-02  0.1364418E+00
          2   -1    0    0  502    0  0.00000000000E+00  0.00000000000E+00  0.71365526694E+03  0.71365526694E+03  0.00000000000E+00 0. -1.
          1   -1    0    0  501    0 -0.00000000000E+00 -0.00000000000E+00 -0.88581150048E+02  0.88581150048E+02  0.00000000000E+00 0. -1.
         25    2    1    2    0    0 -0.98203686061E+02 -0.20445877839E+01  0.24590541217E+03  0.29281777121E+03  0.12499852442E+03 0.  0.
          2    1    1    2  501    0  0.32308816513E+02 -0.47375908278E+02 -0.47753035020E+02  0.74623646810E+02  0.00000000000E+00 0. -1.
          1    1    1    2  502    0  0.65894869549E+02  0.49420496062E+02  0.42692173974E+03  0.43479499896E+03  0.00000000000E+00 0. -1.
         22    1    3    3    0    0 -0.12200750475E+03 -0.10173945840E+02  0.23583965340E+03  0.26572482478E+03  0.00000000000E+00 0. -1.
         22    1    3    3    0    0  0.23803818690E+02  0.81293580562E+01  0.10065758772E+02  0.27092946430E+02  0.00000000000E+00 0. -1.
</event>
<event>
 7    1  0.6999029E-005  0.6788519E+02  0.7818608E-02  0.1381961E+00
          2   -1    0    0  502    0  0.00000000000E+00  0.00000000000E+00  0.42054643436E+03  0.42054643436E+03  0.00000000000E+00 0. -1.
          1   -1    0    0  501    0 -0.00000000000E+00 -0.00000000000E+00 -0.27414484746E+03  0.27414484746E+03  0.00000000000E+00 0. -1.
         25    2    1    2    0    0  0.31778594910E+01 -0.55744108236E+02 -0.77015952644E+02  0.15707987793E+03  0.12500050678E+03 0.  0.
          2    1    1    2  501    0  0.56399798978E+02  0.21177970777E+02 -0.14803624479E+03  0.15982544710E+03  0.00000000000E+00 0. -1.
          1    1    1    2  502    0 -0.59577658469E+02  0.34566137459E+02  0.37145378434E+03  0.37778595679E+03  0.00000000000E+00 0. -1.
         22    1    3    3    0    0 -0.13317642697E+02 -0.90156888604E+02 -0.28776100364E+02  0.95570330762E+02  0.00000000000E+00 0.  1.
         22    1    3    3    0    0  0.16495502188E+02  0.34412780367E+02 -0.48239852280E+02  0.61509547170E+02  0.00000000000E+00 0.  1.
</event>
<event>
 7    1  0.6999029E-005  0.1312184E+03  0.7818608E-02  0.1351451E+00
          2   -1    0    0  502    0  0.00000000000E+00  0.00000000000E+00  0.10302779357E+04  0.10302779357E+04  0.00000000000E+00 0. -1.
          1   -1    0    0  501    0 -0.00000000000E+00 -0.00000000000E+00 -0.21320129722E+03  0.21320129722E+03  0.00000000000E+00 0. -1.
         25    2    1    2    0    0 -0.89802846118E+02  0.14044708172E+03 -0.37068013858E+02  0.21163344429E+03  0.12499897262E+03 0.  0.
          2    1    1    2  501    0  0.81350915052E+01 -0.39341434317E+02 -0.79566001649E+02  0.89132916402E+02  0.00000000000E+00 0. -1.
          1    1    1    2  502    0  0.81667754612E+02 -0.10110564741E+03  0.93371065401E+03  0.94271287224E+03  0.00000000000E+00 0. -1.
         22    1    3    3    0    0 -0.42562762304E+02  0.70768829977E+02  0.45017190293E+02  0.94055108596E+02  0.00000000000E+00 0. -1.
         22    1    3    3    0    0 -0.47240083814E+02  0.69678251746E+02 -0.82085204150E+02  0.11757833570E+03  0.00000000000E+00 0. -1.
</event>
<event>
 7    1  0.6999029E-005  0.1441080E+03  0.7818608E-02  0.1387980E+00
          2   -1    0    0  502    0  0.00000000000E+00  0.00000000000E+00  0.19986017736E+03  0.19986017736E+03  0.00000000000E+00 0. -1.
          1   -1    0    0  501    0 -0.00000000000E+00 -0.00000000000E+00 -0.80291857064E+03  0.80291857064E+03  0.00000000000E+00 0. -1.
         25    2    1    2    0    0  0.13623699961E+03 -0.12569387951E+02  0.81801288472E+02  0.20257008454E+03  0.12499871511E+03 0.  0.
          2    1    1    2  501    0  0.21579075201E+02  0.16277924435E+02 -0.63368515817E+03  0.63426138696E+03  0.00000000000E+00 0. -1.
          1    1    1    2  502    0 -0.15781607481E+03 -0.37085364841E+01 -0.51174523581E+02  0.16594727649E+03  0.00000000000E+00 0. -1.
         22    1    3    3    0    0  0.15418256917E+03 -0.28382376838E+02  0.53808420867E+02  0.16575032461E+03  0.00000000000E+00 0. -1.
         22    1    3    3    0    0 -0.17945569565E+02  0.15812988887E+02  0.27992867605E+02  0.36819759930E+02  0.00000000000E+00 0. -1.
</event>
<event>
 7    1  0.6999029E-005  0.8092984E+03  0.7818608E-02  0.1142718E+00
          2   -1    0    0  502    0  0.00000000000E+00  0.00000000000E+00  0.35221178697E+04  0.35221178697E+04  0.00000000000E+00 0. -1.
          1   -1    0    0  501    0 -0.00000000000E+00 -0.00000000000E+00 -0.15466735704E+04  0.15466735704E+04  0.00000000000E+00 0. -1.
         25    2    1    2    0    0  0.59949478660E+03 -0.56191120660E+03 -0.96081530013E+03  0.12704064486E+04  0.12501320101E+03 0.  0.
          2    1    1    2  501    0 -0.59346574991E+03  0.50850803743E+03 -0.76395602580E+02  0.78525047503E+03  0.00000000000E+00 0. -1.
          1    1    1    2  502    0 -0.60290366898E+01  0.53403169174E+02  0.30126552020E+04  0.30131345164E+04  0.00000000000E+00 0. -1.
         22    1    3    3    0    0  0.10391307203E+03 -0.12803943989E+03 -0.26632329400E+03  0.31324131534E+03  0.00000000000E+00 0. -1.
         22    1    3    3    0    0  0.49558171458E+03 -0.43387176671E+03 -0.69449200612E+03  0.95716513326E+03  0.00000000000E+00 0. -1.
</event>
<event>
 7    1  0.6999029E-005  0.4972943E+03  0.7818608E-02  0.1245015E+00
          2   -1    0    0  502    0  0.00000000000E+00  0.00000000000E+00  0.20048324126E+04  0.20048324126E+04  0.00000000000E+00 0. -1.
          1   -1    0    0  501    0 -0.00000000000E+00 -0.00000000000E+00 -0.85663651052E+03  0.85663651052E+03  0.00000000000E+00 0. -1.
         25    2    1    2    0    0 -0.26048569561E+03 -0.41754858327E+03  0.31638869403E+03  0.59826999056E+03  0.12500223550E+03 0.  0.
          2    1    1    2  501    0 -0.26737896976E+02  0.95787056972E+01 -0.67517366184E+03  0.67577077503E+03  0.00000000000E+00 0. -1.
          1    1    1    2  502    0  0.28722359259E+03  0.40796987757E+03  0.15069808699E+04  0.15874281576E+04  0.00000000000E+00 0. -1.
         22    1    3    3    0    0 -0.56094727169E+02 -0.20363850964E+03  0.14713803139E+03  0.25741962106E+03  0.00000000000E+00 0.  1.
         22    1    3    3    0    0 -0.20439096845E+03 -0.21391007363E+03  0.16925066264E+03  0.34085036950E+03  0.00000000000E+00 0.  1.
</event>
<event>
 7    1  0.6999029E-005  0.3266328E+03  0.7818608E-02  0.1104367E+00
          2   -1    0    0  502    0  0.00000000000E+00  0.00000000000E+00  0.78614166997E+03  0.78614166997E+03  0.00000000000E+00 0. -1.
          1   -1    0    0  501    0 -0.00000000000E+00 -0.00000000000E+00 -0.26327018830E+04  0.26327018830E+04  0.00000000000E+00 0. -1.
         25    2    1    2    0    0 -0.46932167646E+03 -0.23296483392E+03  0.15681369411E+03  0.56101820198E+03  0.12496174796E+03 0.  0.
          2    1    1    2  501    0  0.30737838601E+03  0.92354689181E+02 -0.23922741204E+04  0.24137080039E+04  0.00000000000E+00 0. -1.
          1    1    1    2  502    0  0.16194329045E+03  0.14061014474E+03  0.38890021327E+03  0.44411734711E+03  0.00000000000E+00 0. -1.
         22    1    3    3    0    0 -0.19649300550E+03 -0.16719802726E+03  0.76963777345E+02  0.26923615016E+03  0.00000000000E+00 0. -1.
         22    1    3    3    0    0 -0.27282867096E+03 -0.65766806660E+02  0.79849916766E+02  0.29178205182E+03  0.00000000000E+00 0. -1.
</event>
<event>
 7    1  0.6999029E-005  0.1966060E+03  0.7818608E-02  0.1273046E+00
          2   -1    0    0  502    0  0.00000000000E+00  0.00000000000E+00  0.39940938162E+04  0.39940938162E+04  0.00000000000E+00 0. -1.
          1   -1    0    0  501    0 -0.00000000000E+00 -0.00000000000E+00 -0.44096087916E+02  0.44096087916E+02  0.00000000000E+00 0. -1.
         25    2    1    2    0    0  0.21281190607E+03 -0.15315679559E+02  0.45816177367E+03  0.52063540790E+03  0.12500215880E+03 0.  0.
          2    1    1    2  501    0 -0.17585631239E+03 -0.24762900064E+02  0.61310629353E+03  0.63830868003E+03  0.00000000000E+00 0. -1.
          1    1    1    2  502    0 -0.36955593678E+02  0.40078579622E+02  0.28787296611E+04  0.28792458162E+04  0.00000000000E+00 0. -1.
         22    1    3    3    0    0  0.12977860281E+03  0.52276792344E+02  0.27227471777E+03  0.30611904661E+03  0.00000000000E+00 0. -1.
         22    1    3    3    0    0  0.83033303255E+02 -0.67592471902E+02  0.18588705590E+03  0.21451636128E+03  0.00000000000E+00 0. -1.
</event>
<event>
 7    1  0.6999029E-005  0.2292556E+03  0.7818608E-02  0.1277606E+00
          2   -1    0    0  502    0  0.00000000000E+00  0.00000000000E+00  0.12960806883E+04  0.12960806883E+04  0.00000000000E+00 0. -1.
          1   -1    0    0  501    0 -0.00000000000E+00 -0.00000000000E+00 -0.34016650854E+03  0.34016650854E+03  0.00000000000E+00 0. -1.
         25    2    1    2    0    0 -0.24242932153E+03  0.32506665787E+02  0.96682119191E+03  0.10050841531E+04  0.12498911304E+03 0.  0.
          2    1    1    2  501    0  0.39942710382E+02 -0.20182422675E+02 -0.28593335807E+03  0.28941429743E+03  0.00000000000E+00 0. -1.
          1    1    1    2  502    0  0.20248661115E+03 -0.12324243112E+02  0.27502634591E+03  0.34174874632E+03  0.00000000000E+00 0. -1.
         22    1    3    3    0    0 -0.40818603110E+02 -0.15001801058E+02  0.55439671050E+02  0.70461120634E+02  0.00000000000E+00 0. -1.
         22    1    3    3    0    0 -0.20161071842E+03  0.47508466845E+02  0.91138152086E+03  0.93462303244E+03  0.00000000000E+00 0. -1.
</event>
<event>
 7    1  0.6999029E-005  0.1057796E+03  0.7818608E-02  0.1377473E+00
          2   -1    0    0  502    0  0.00000000000E+00  0.00000000000E+00  0.16137947935E+04  0.16137947935E+04  0.00000000000E+00 0. -1.
          1   -1    0    0  501    0 -0.00000000000E+00 -0.00000000000E+00 -0.22467334170E+03  0.22467334170E+03  0.00000000000E+00 0. -1.
         25    2    1    2    0    0 -0.26733305881E+02  0.80304548577E+02  0.61359599778E+03  0.63189273686E+03  0.12499956894E+03 0.  0.
          2    1    1    2  501    0 -0.37474816880E+02  0.14283775705E+02 -0.21032704013E+03  0.21411644486E+03  0.00000000000E+00 0. -1.
          1    1    1    2  502    0  0.64208122761E+02 -0.94588324282E+02  0.98585249413E+03  0.99245895346E+03  0.00000000000E+00 0. -1.
         22    1    3    3    0    0  0.12384605432E+02  0.10369554567E+03  0.45821050606E+03  0.46996064996E+03  0.00000000000E+00 0. -1.
         22    1    3    3    0    0 -0.39117911313E+02 -0.23390997097E+02  0.15538549172E+03  0.16193208690E+03  0.00000000000E+00 0. -1.
</event>
<event>
 7    1  0.6999029E-005  0.3254330E+03  0.7818608E-02  0.1270941E+00
          2   -1    0    0  502    0  0.00000000000E+00  0.00000000000E+00  0.66894632718E+03  0.66894632718E+03  0.00000000000E+00 0. -1.
          1   -1    0    0  501    0 -0.00000000000E+00 -0.00000000000E+00 -0.12826678473E+04  0.12826678473E+04  0.00000000000E+00 0. -1.
         25    2    1    2    0    0  0.79588325389E+01 -0.34286047992E+03 -0.21445375139E+03  0.42335840022E+03  0.12500108738E+03 0.  0.
          2    1    1    2  501    0  0.25758986171E+02  0.21589750693E+02 -0.91721402202E+03  0.91782961649E+03  0.00000000000E+00 0. -1.
          1    1    1    2  502    0 -0.33717818710E+02  0.32127072922E+03  0.51794625331E+03  0.61042615776E+03  0.00000000000E+00 0. -1.
         22    1    3    3    0    0  0.12528764702E+01 -0.24471972184E+03 -0.81432377718E+02  0.25791576939E+03  0.00000000000E+00 0.  1.
         22    1    3    3    0    0  0.67059560687E+01 -0.98140758075E+02 -0.13302137368E+03  0.16544263083E+03  0.00000000000E+00 0.  1.
</event>
<event>
 7    1  0.6999029E-005  0.1486507E+03  0.7818608E-02  0.1276183E+00
          2   -1    0    0  502    0  0.00000000000E+00  0.00000000000E+00  0.20496615802E+04  0.20496615802E+04  0.00000000000E+00 0. -1.
          1   -1    0    0  501    0 -0.00000000000E+00 -0.00000000000E+00 -0.20246567313E+04  0.20246567313E+04  0.00000000000E+00 0. -1.
         25    2    1    2    0    0 -0.17685359650E+03  0.11300983297E+03  0.18262869584E+03  0.30500220373E+03  0.12499874718E+03 0.  0.
          2    1    1    2  501    0  0.10787332526E+03 -0.10131437049E+03 -0.19600017053E+04  0.19655808151E+04  0.00000000000E+00 0. -1.
          1    1    1    2  502    0  0.68980271234E+02 -0.11695462481E+02  0.18023778584E+04  0.18037352926E+04  0.00000000000E+00 0. -1.
         22    1    3    3    0    0 -0.18718551506E+03  0.95860035519E+02  0.19024054070E+03  0.28358248674E+03  0.00000000000E+00 0.  1.
         22    1    3    3    0    0  0.10331918563E+02  0.17149797452E+02 -0.76118448670E+01  0.21419716994E+02  0.00000000000E+00 0.  1.
</event>
<event>
 7    1  0.6999029E-005  0.1111961E+03  0.7818608E-02  0.1280755E+00
          2   -1    0    0  502    0  0.00000000000E+00  0.00000000000E+00  0.75124904623E+02  0.75124904623E+02  0.00000000000E+00 0. -1.
          1   -1    0    0  501    0 -0.00000000000E+00 -0.00000000000E+00 -0.62829598951E+03  0.62829598951E+03  0.00000000000E+00 0. -1.
         25    2    1    2    0    0  0.64994303363E+02  0.12648771085E+03 -0.37486260705E+03  0.41995706871E+03  0.12497425707E+03 0.  0.
          2    1    1    2  501    0 -0.87581419367E+02 -0.18624053710E+02 -0.14116900877E+03  0.16717071943E+03  0.00000000000E+00 0. -1.
          1    1    1    2  502    0  0.22587116004E+02 -0.10786365714E+03 -0.37139469061E+02  0.11629310600E+03  0.00000000000E+00 0. -1.
         22    1    3    3    0    0 -0.20441903252E+02  0.92880493640E+02 -0.22402985467E+03  0.24338042914E+03  0.00000000000E+00 0. -1.
         22    1    3    3    0    0  0.85436206614E+02  0.33607217207E+02 -0.15083275238E+03  0.17657663957E+03  0.00000000000E+00 0. -1.
</event>
<event>
 7    1  0.6999029E-005  0.3741009E+03  0.7818608E-02  0.1170103E+00
          2   -1    0    0  502    0  0.00000000000E+00  0.00000000000E+00  0.11794814206E+04  0.11794814206E+04  0.00000000000E+00 0. -1.
          1   -1    0    0  501    0 -0.00000000000E+00 -0.00000000000E+00 -0.11591182311E+04  0.11591182311E+04  0.00000000000E+00 0. -1.
         25    2    1    2    0    0  0.15048151920E+03  0.29788966289E+03  0.37993923089E+03  0.52091146574E+03  0.12494797751E+03 0.  0.
          2    1    1    2  501    0 -0.74800863186E+01  0.84023159293E+02 -0.10297440700E+04  0.10331934440E+04  0.00000000000E+00 0. -1.
          1    1    1    2  502    0 -0.14300143288E+03 -0.38191282219E+03  0.67016802865E+03  0.78449474197E+03  0.00000000000E+00 0. -1.
         22    1    3    3    0    0 -0.11918638831E+02  0.10223681412E+02  0.56315573561E+02  0.58463847280E+02  0.00000000000E+00 0. -1.
         22    1    3    3    0    0  0.16240015803E+03  0.28766598148E+03  0.32362365733E+03  0.46244761846E+03  0.00000000000E+00 0. -1.
</event>
<event>
 7    1  0.8720441E-005  0.1144734E+03  0.7818608E-02  0.1283693E+00
          2   -1    0    0  502    0  0.00000000000E+00  0.00000000000E+00  0.13508769479E+04  0.13508769479E+04  0.00000000000E+00 0. -1.
          1   -1    0    0  501    0 -0.00000000000E+00 -0.00000000000E+00 -0.14496841802E+04  0.14496841802E+04  0.00000000000E+00 0. -1.
         25    2    1    2    0    0 -0.62155500786E+02  0.16587182003E+03 -0.72664172627E+03  0.75829422740E+03  0.12500067997E+03 0.  0.
          2    1    1    2  501    0  0.60313813197E+02 -0.81305033517E+02 -0.70224308339E+03  0.70950236977E+03  0.00000000000E+00 0. -1.
          1    1    1    2  502    0  0.18416875888E+01 -0.84566786512E+02  0.13300775773E+04  0.13327645309E+04  0.00000000000E+00 0. -1.
         22    1    3    3    0    0  0.18935142963E+02  0.12418545937E+03 -0.42182432788E+03  0.44013217509E+03  0.00000000000E+00 0. -1.
         22    1    3    3    0    0 -0.81090643750E+02  0.41686360663E+02 -0.30481739839E+03  0.31816205231E+03  0.00000000000E+00 0. -1.
</event>
<event>
 7    1  0.6999029E-005  0.2364147E+03  0.7818608E-02  0.1307377E+00
          2   -1    0    0  502    0  0.00000000000E+00  0.00000000000E+00  0.41174320110E+03  0.41174320110E+03  0.00000000000E+00 0. -1.
          1   -1    0    0  501    0 -0.00000000000E+00 -0.00000000000E+00 -0.73388450905E+03  0.73388450905E+03  0.00000000000E+00 0. -1.
         25    2    1    2    0    0  0.14401400391E+03 -0.18155984274E+03  0.21023999316E+03  0.33695035760E+03  0.12502271372E+03 0.  0.
          2    1    1    2  501    0  0.31445461378E+02  0.95826218904E+01 -0.56043088852E+03  0.56139417925E+03  0.00000000000E+00 0. -1.
          1    1    1    2  502    0 -0.17545946529E+03  0.17197722084E+03  0.28049587410E+02  0.24728317331E+03  0.00000000000E+00 0. -1.
         22    1    3    3    0    0  0.70366095043E+01 -0.65496654192E+02  0.11791052465E+03  0.13506375312E+03  0.00000000000E+00 0.  1.
         22    1    3    3    0    0  0.13697739440E+03 -0.11606318854E+03  0.92329468514E+02  0.20188660448E+03  0.00000000000E+00 0.  1.
</event>
<event>
 7    1  0.6999029E-005  0.1027500E+04  0.7818608E-02  0.1142424E+00
          2   -1    0    0  502    0  0.00000000000E+00  0.00000000000E+00  0.81944591658E+03  0.81944591658E+03  0.00000000000E+00 0. -1.
          1   -1    0    0  501    0 -0.00000000000E+00 -0.00000000000E+00 -0.22417361900E+04  0.22417361900E+04  0.00000000000E+00 0. -1.
         25    2    1    2    0    0 -0.57007490693E+03  0.88102012684E+03 -0.69380053353E+03  0.12641862380E+04  0.12500320259E+03 0.  0.
          2    1    1    2  501    0  0.56634729212E+03 -0.83870466983E+03 -0.10583941864E+04  0.14643677927E+04  0.00000000000E+00 0. -1.
          1    1    1    2  502    0  0.37276148137E+01 -0.42315457011E+02  0.32990444652E+03  0.33262807585E+03  0.00000000000E+00 0. -1.
         22    1    3    3    0    0 -0.23604848052E+02  0.33686175762E+02 -0.61729243798E+02  0.74178479554E+02  0.00000000000E+00 0.  1.
         22    1    3    3    0    0 -0.54647005888E+03  0.84733395108E+03 -0.63207128973E+03  0.11900077585E+04  0.00000000000E+00 0.  1.
</event>
<event>
 7    1  0.6999029E-005  0.5938715E+03  0.7818608E-02  0.1096194E+00
          2   -1    0    0  502    0  0.00000000000E+00  0.00000000000E+00  0.23626133721E+04  0.23626133721E+04  0.00000000000E+00 0. -1.
          1   -1    0    0  501    0 -0.00000000000E+00 -0.00000000000E+00 -0.75762382728E+03  0.75762382728E+03  0.00000000000E+00 0. -1.
         25    2    1    2    0    0 -0.37687239661E+03  0.56973610630E+03  0.43765209701E+03  0.82085710844E+03  0.12503999481E+03 0.  0.
          2    1    1    2  501    0  0.91741528741E+01 -0.13082505399E+03 -0.51021669182E+03  0.52680208090E+03  0.00000000000E+00 0. -1.
          1    1    1    2  502    0  0.36769824374E+03 -0.43891105232E+03  0.16775541396E+04  0.17725780100E+04  0.00000000000E+00 0. -1.
         22    1    3    3    0    0 -0.15561709881E+03  0.13261688693E+03  0.13414951254E+03  0.24454040945E+03  0.00000000000E+00 0.  1.
         22    1    3    3    0    0 -0.22125529781E+03  0.43711921937E+03  0.30350258448E+03  0.57631669899E+03  0.00000000000E+00 0.  1.
</event>
<event>
 7    1  0.6999029E-005  0.1200683E+03  0.7818608E-02  0.1256154E+00
          2   -1    0    0  502    0  0.00000000000E+00  0.00000000000E+00  0.95726167119E+03  0.95726167119E+03  0.00000000000E+00 0. -1.
          1   -1    0    0  501    0 -0.00000000000E+00 -0.00000000000E+00 -0.19540300463E+04  0.19540300463E+04  0.00000000000E+00 0. -1.
         25    2    1    2    0    0  0.26198256162E+02  0.18742154294E+03  0.36513436653E+03  0.42983988861E+03  0.12500416326E+03 0.  0.
          2    1    1    2  501    0 -0.64663725024E+02 -0.83053337432E+02 -0.19146918808E+04  0.19175829194E+04  0.00000000000E+00 0. -1.
          1    1    1    2  502    0  0.38465468862E+02 -0.10436820551E+03  0.55278913922E+03  0.56386890946E+03  0.00000000000E+00 0. -1.
         22    1    3    3    0    0  0.66683768990E+02  0.52857743665E+02  0.11688043374E+03  0.14457420898E+03  0.00000000000E+00 0. -1.
         22    1    3    3    0    0 -0.40485512828E+02  0.13456379928E+03  0.24825393279E+03  0.28526567962E+03  0.00000000000E+00 0. -1.
</event>
<event>
 7    1  0.6999029E-005  0.1957622E+03  0.7818608E-02  0.1218219E+00
          2   -1    0    0  502    0  0.00000000000E+00  0.00000000000E+00  0.15128836163E+03  0.15128836163E+03  0.00000000000E+00 0. -1.
          1   -1    0    0  501    0 -0.00000000000E+00 -0.00000000000E+00 -0.11322093361E+04  0.11322093361E+04  0.00000000000E+00 0. -1.
         25    2    1    2    0    0 -0.25680836271E+03  0.67292234449E+02 -0.53274916592E+03  0.60821809319E+03  0.12501517955E+03 0.  0.
          2    1    1    2  501    0  0.16329017987E+03 -0.50148937538E+02 -0.52560181272E+03  0.55266252299E+03  0.00000000000E+00 0. -1.
          1    1    1    2  502    0  0.93518182843E+02 -0.17143296911E+02  0.77430004145E+02  0.12261708157E+03  0.00000000000E+00 0. -1.
         22    1    3    3    0    0 -0.11243159798E+03  0.83991382103E+02 -0.19248690467E+03  0.23821550110E+03  0.00000000000E+00 0. -1.
         22    1    3    3    0    0 -0.14437676473E+03 -0.16699147654E+02 -0.34026226125E+03  0.37000259210E+03  0.00000000000E+00 0. -1.
</event>
<event>
 7    1  0.6999029E-005  0.3006899E+03  0.7818608E-02  0.1236297E+00
          2   -1    0    0  502    0  0.00000000000E+00  0.00000000000E+00  0.14496386634E+04  0.14496386634E+04  0.00000000000E+00 0. -1.
          1   -1    0    0  501    0 -0.00000000000E+00 -0.00000000000E+00 -0.26305052985E+03  0.26305052985E+03  0.00000000000E+00 0. -1.
         25    2    1    2    0    0 -0.56278312176E+02 -0.29226406770E+03 -0.11216420273E+03  0.34174707329E+03  0.12499888015E+03 0.  0.
          2    1    1    2  501    0  0.10582109744E+03  0.30563573021E+03  0.71281631760E+03  0.78276331473E+03  0.00000000000E+00 0. -1.
          1    1    1    2  502    0 -0.49542785260E+02 -0.13371662505E+02  0.58593601866E+03  0.58817880521E+03  0.00000000000E+00 0. -1.
         22    1    3    3    0    0 -0.33980274092E+02 -0.19796353170E+03 -0.13522944217E+03  0.24213884641E+03  0.00000000000E+00 0. -1.
         22    1    3    3    0    0 -0.22298038084E+02 -0.94300536000E+02  0.23065239438E+02  0.99608226882E+02  0.00000000000E+00 0. -1.
</event>
<event>
 7    1  0.6999029E-005  0.2719026E+03  0.7818608E-02  0.1137512E+00
          2   -1    0    0  502    0  0.00000000000E+00  0.00000000000E+00  0.73872806384E+03  0.73872806384E+03  0.00000000000E+00 0. -1.
          1   -1    0    0  501    0 -0.00000000000E+00 -0.00000000000E+00 -0.31278106444E+04  0.31278106444E+04  0.00000000000E+00 0. -1.
         25    2    1    2    0    0 -0.53852099168E+02  0.27204475770E+03 -0.11117797731E+04  0.11526439384E+04  0.12500154461E+03 0.  0.
          2    1    1    2  501    0 -0.11617922999E+03 -0.26206557906E+03 -0.19750065387E+04  0.19957020842E+04  0.00000000000E+00 0. -1.
          1    1    1    2  502    0  0.17003132916E+03 -0.99791786358E+01  0.69770373127E+03  0.71819268552E+03  0.00000000000E+00 0. -1.
         22    1    3    3    0    0 -0.75055882678E+02  0.86427108575E+02 -0.34780857468E+03  0.36616094172E+03  0.00000000000E+00 0.  1.
         22    1    3    3    0    0  0.21203783510E+02  0.18561764912E+03 -0.76397119843E+03  0.78648299673E+03  0.00000000000E+00 0.  1.
</event>
<event>
 7    1  0.6999029E-005  0.2126933E+03  0.7818608E-02  0.1285652E+00
          2   -1    0    0  502    0  0.00000000000E+00  0.00000000000E+00  0.11589720351E+04  0.11589720351E+04  0.00000000000E+00 0. -1.
          1   -1    0    0  501    0 -0.00000000000E+00 -0.00000000000E+00 -0.88475092984E+03  0.88475092984E+03  0.00000000000E+00 0. -1.
         25    2    1    2    0    0  0.10451864178E+03 -0.23334572724E+03  0.95511100145E+03  0.99661293333E+03  0.12500375546E+03 0.  0.
          2    1    1    2  501    0 -0.94921319893E+02  0.18969762739E+03 -0.84799975052E+03  0.87412746421E+03  0.00000000000E+00 0. -1.
          1    1    1    2  502    0 -0.95973218832E+01  0.43648099858E+02  0.16710985431E+03  0.17298256738E+03  0.00000000000E+00 0. -1.
         22    1    3    3    0    0 -0.18964871907E+02 -0.10420124706E+03  0.35090747522E+03  0.36654279753E+03  0.00000000000E+00 0. -1.
         22    1    3    3    0    0  0.12348351368E+03 -0.12914448019E+03  0.60420352623E+03  0.63007013580E+03  0.00000000000E+00 0. -1.
</event>
<event>
 7    1  0.6999029E-005  0.9509762E+03  0.7818608E-02  0.1142684E+00
          2   -1    0    0  502    0  0.00000000000E+00  0.00000000000E+00  0.28626079385E+04  0.28626079385E+04  0.00000000000E+00 0. -1.
          1   -1    0    0  501    0 -0.00000000000E+00 -0.00000000000E+00 -0.83554254448E+03  0.83554254448E+03  0.00000000000E+00 0. -1.
         25    2    1    2    0    0 -0.32505456172E+03 -0.89952831555E+03 -0.28516308541E+03  0.10058602126E+04  0.12500049387E+03 0.  0.
          2    1    1    2  501    0  0.35428133003E+03  0.86432491009E+03  0.96063492188E+03  0.13399224844E+04  0.00000000000E+00 0. -1.
          1    1    1    2  502    0 -0.29226768311E+02  0.35203405467E+02  0.13515935575E+04  0.13523677859E+04  0.00000000000E+00 0. -1.
         22    1    3    3    0    0 -0.14839557702E+03 -0.51181727866E+03 -0.21222604168E+03  0.57360096477E+03  0.00000000000E+00 0. -1.
         22    1    3    3    0    0 -0.17665898470E+03 -0.38771103689E+03 -0.72937043735E+02  0.43225924785E+03  0.00000000000E+00 0. -1.
</event>
<event>
 7    1  0.6999029E-005  0.4446703E+02  0.7818608E-02  0.1554472E+00
          2   -1    0    0  502    0  0.00000000000E+00  0.00000000000E+00  0.74332957646E+03  0.74332957646E+03  0.00000000000E+00 0. -1.
          1   -1    0    0  501    0 -0.00000000000E+00 -0.00000000000E+00 -0.12134807062E+03  0.12134807062E+03  0.00000000000E+00 0. -1.
         25    2    1    2    0    0  0.48849585340E+01  0.28768454605E+02  0.24763960407E+03  0.27892702014E+03  0.12499368889E+03 0.  0.
          2    1    1    2  501    0  0.26038219835E+02  0.50893722473E+01 -0.10292326540E+03  0.10628776582E+03  0.00000000000E+00 0. -1.
          1    1    1    2  502    0 -0.30923178369E+02 -0.33857826852E+02  0.47726516717E+03  0.47946286112E+03  0.00000000000E+00 0. -1.
         22    1    3    3    0    0 -0.52231358325E+02  0.20944844699E+02  0.18688501894E+03  0.19517379848E+03  0.00000000000E+00 0. -1.
         22    1    3    3    0    0  0.57116316859E+02  0.78236099062E+01  0.60754585136E+02  0.83753221661E+02  0.00000000000E+00 0. -1.
</event>
<event>
 7    1  0.6999029E-005  0.2303036E+03  0.7818608E-02  0.1253367E+00
          2   -1    0    0  502    0  0.00000000000E+00  0.00000000000E+00  0.85645966099E+03  0.85645966099E+03  0.00000000000E+00 0. -1.
          1   -1    0    0  501    0 -0.00000000000E+00 -0.00000000000E+00 -0.37968963755E+03  0.37968963755E+03  0.00000000000E+00 0. -1.
         25    2    1    2    0    0  0.26461348337E+03 -0.63027640032E+01  0.72050503032E+02  0.30145821879E+03  0.12500304907E+03 0.  0.
          2    1    1    2  501    0 -0.43503852592E+02 -0.35913877817E+02 -0.24274388157E+03  0.24921272811E+03  0.00000000000E+00 0. -1.
          1    1    1    2  502    0 -0.22110963078E+03  0.42216641820E+02  0.64746340198E+03  0.68547835164E+03  0.00000000000E+00 0. -1.
         22    1    3    3    0    0  0.72065452842E+01 -0.31430022887E+02  0.19051857568E+02  0.37453356464E+02  0.00000000000E+00 0. -1.
         22    1    3    3    0    0  0.25740693808E+03  0.25127258884E+02  0.52998645464E+02  0.26400486233E+03  0.00000000000E+00 0. -1.
</event>
<event>
 7    1  0.6999029E-005  0.1900384E+03  0.7818608E-02  0.1234650E+00
          2   -1    0    0  502    0  0.00000000000E+00  0.00000000000E+00  0.14530968587E+04  0.14530968587E+04  0.00000000000E+00 0. -1.
          1   -1    0    0  501    0 -0.00000000000E+00 -0.00000000000E+00 -0.33047872101E+03  0.33047872101E+03  0.00000000000E+00 0. -1.
         25    2    1    2    0    0 -0.91560465932E+01  0.25196155058E+03  0.92111665786E+02  0.29610645991E+03  0.12500408180E+03 0.  0.
          2    1    1    2  501    0  0.39111667916E+02 -0.17501239052E+03 -0.19168446716E+03  0.26249189388E+03  0.00000000000E+00 0. -1.
          1    1    1    2  502    0 -0.29955621322E+02 -0.76949160063E+02  0.12221909391E+04  0.12249772260E+04  0.00000000000E+00 0. -1.
         22    1    3    3    0    0 -0.29403468807E+02  0.25372089959E+03  0.67499283331E+02  0.26418745640E+03  0.00000000000E+00 0.  1.
         22    1    3    3    0    0  0.20247422214E+02 -0.17593490099E+01  0.24612382455E+02  0.31919003515E+02  0.00000000000E+00 0.  1.
</event>
<event>
 7    1  0.6999029E-005  0.1200556E+03  0.7818608E-02  0.1284682E+00
          2   -1    0    0  502    0  0.00000000000E+00  0.00000000000E+00  0.14807031088E+03  0.14807031088E+03  0.00000000000E+00 0. -1.
          1   -1    0    0  501    0 -0.00000000000E+00 -0.00000000000E+00 -0.74302021630E+03  0.74302021630E+03  0.00000000000E+00 0. -1.
         25    2    1    2    0    0 -0.99210722564E+02  0.38923722436E+02 -0.21877172943E+03  0.27357659915E+03  0.12500104945E+03 0.  0.
          2    1    1    2  501    0 -0.19527492722E+02 -0.77480633498E+02 -0.46016496462E+03  0.46705071052E+03  0.00000000000E+00 0. -1.
          1    1    1    2  502    0  0.11873821529E+03  0.38556911063E+02  0.83986788630E+02  0.15046321751E+03  0.00000000000E+00 0. -1.
         22    1    3    3    0    0 -0.12256906082E+03  0.10421137023E+02 -0.13843979605E+03  0.18519544243E+03  0.00000000000E+00 0. -1.
         22    1    3    3    0    0  0.23358338257E+02  0.28502585413E+02 -0.80331933384E+02  0.88381156717E+02  0.00000000000E+00 0. -1.
</event>
<event>
 7    1  0.7651892E-005  0.1688108E+03  0.7818608E-02  0.1266913E+00
          2   -1    0    0  502    0  0.00000000000E+00  0.00000000000E+00  0.23245508890E+04  0.23245508890E+04  0.00000000000E+00 0. -1.
          1   -1    0    0  501    0 -0.00000000000E+00 -0.00000000000E+00 -0.63584700082E+03  0.63584700082E+03  0.00000000000E+00 0. -1.
         25    2    1    2    0    0 -0.12425087729E+03  0.18463224638E+03 -0.19502098389E+03  0.32122444799E+03  0.12499845966E+03 0.  0.
          2    1    1    2  501    0  0.85032447898E+02 -0.12985268572E+03 -0.36125193812E+03  0.39318596107E+03  0.00000000000E+00 0. -1.
          1    1    1    2  502    0  0.39218429392E+02 -0.54779560660E+02  0.22449768102E+04  0.22459874807E+04  0.00000000000E+00 0. -1.
         22    1    3    3    0    0 -0.85895505368E+02  0.18162666960E+03 -0.11271706778E+03  0.23037235581E+03  0.00000000000E+00 0.  1.
         22    1    3    3    0    0 -0.38355371922E+02  0.30055767857E+01 -0.82303916107E+02  0.90852092181E+02  0.00000000000E+00 0.  1.
</event>
<event>
 7    1  0.6999029E-005  0.2814833E+03  0.7818608E-02  0.1129666E+00
          2   -1    0    0  502    0  0.00000000000E+00  0.00000000000E+00  0.13466592058E+04  0.13466592058E+04  0.00000000000E+00 0. -1.
          1   -1    0    0  501    0 -0.00000000000E+00 -0.00000000000E+00 -0.46251046330E+03  0.46251046330E+03  0.00000000000E+00 0. -1.
         25    2    1    2    0    0 -0.15586209852E+03  0.72177708335E+02  0.27810014386E+03  0.34995431072E+03  0.12500285693E+03 0.  0.
          2    1    1    2  501    0  0.17071760916E+03 -0.25262253592E+03 -0.36262204535E+03  0.47376934843E+03  0.00000000000E+00 0. -1.
          1    1    1    2  502    0 -0.14855510642E+02  0.18044482759E+03  0.96867064404E+03  0.98544601000E+03  0.00000000000E+00 0. -1.
         22    1    3    3    0    0 -0.11071849714E+03 -0.14960652349E+02  0.12074695098E+03  0.16450602694E+03  0.00000000000E+00 0. -1.
         22    1    3    3    0    0 -0.45143601379E+02  0.87138360684E+02  0.15735319287E+03  0.18544828377E+03  0.00000000000E+00 0. -1.
</event>
<event>
 7    1  0.6999029E-005  0.1357714E+04  0.7818608E-02  0.1141538E+00
          2   -1    0    0  502    0  0.00000000000E+00  0.00000000000E+00  0.17490419634E+04  0.17490419634E+04  0.00000000000E+00 0. -1.
          1   -1    0    0  501    0 -0.00000000000E+00 -0.00000000000E+00 -0.25376793564E+04  0.25376793564E+04  0.00000000000E+00 0. -1.
         25    2    1    2    0    0 -0.69716203651E+03  0.11500386942E+04 -0.91594627684E+03  0.16319333103E+04  0.12499937533E+03 0.  0.
          2    1    1    2  501    0  0.72720097497E+03 -0.11624241184E+04 -0.89148214325E+03  0.16354789821E+04  0.00000000000E+00 0. -1.
          1    1    1    2  502    0 -0.30038938460E+02  0.12385424204E+02  0.10187910271E+04  0.10193090274E+04  0.00000000000E+00 0. -1.
         22    1    3    3    0    0 -0.64329026187E+03  0.10384255630E+04 -0.87031314422E+03  0.14998649872E+04  0.00000000000E+00 0. -1.
         22    1    3    3    0    0 -0.53871774646E+02  0.11161313125E+03 -0.45633132623E+02  0.13206832309E+03  0.00000000000E+00 0. -1.
</event>
<event>
 7    1  0.6999029E-005  0.1098570E+03  0.7818608E-02  0.1373108E+00
          2   -1    0    0  502    0  0.00000000000E+00  0.00000000000E+00  0.61886241527E+01  0.61886241527E+01  0.00000000000E+00 0. -1.
          1   -1    0    0  501    0 -0.00000000000E+00 -0.00000000000E+00 -0.47338053812E+04  0.47338053812E+04  0.00000000000E+00 0. -1.
         25    2    1    2    0    0 -0.27131193454E+02  0.12277257466E+03 -0.16565697328E+04  0.16660302384E+04  0.12499707550E+03 0.  0.
          2    1    1    2  501    0  0.99281968076E+01 -0.38774829912E+02 -0.54776219772E+03  0.54922261586E+03  0.00000000000E+00 0. -1.
          1    1    1    2  502    0  0.17202996646E+02 -0.83997744752E+02 -0.25232848265E+04  0.25247411511E+04  0.00000000000E+00 0. -1.
         22    1    3    3    0    0 -0.60788302102E+02  0.48365420382E+02 -0.11766802143E+04  0.11792416031E+04  0.00000000000E+00 0.  1.
         22    1    3    3    0    0  0.33657108648E+02  0.74407154282E+02 -0.47988951847E+03  0.48678863536E+03  0.00000000000E+00 0.  1.
</event>
<event>
 7    1  0.6999029E-005  0.3062202E+03  0.7818608E-02  0.1258825E+00
          2   -1    0    0  502    0  0.00000000000E+00  0.00000000000E+00  0.33651447902E+04  0.33651447902E+04  0.00000000000E+00 0. -1.
          1   -1    0    0  501    0 -0.00000000000E+00 -0.00000000000E+00 -0.32149309548E+03  0.32149309548E+03  0.00000000000E+00 0. -1.
         25    2    1    2    0    0 -0.20779386155E+03  0.25621152048E+03  0.53358448809E+03  0.63965736939E+03  0.12500604851E+03 0.  0.
          2    1    1    2  501    0  0.39972038248E+02 -0.42539325623E+01 -0.25865356751E+03  0.26175852951E+03  0.00000000000E+00 0. -1.
          1    1    1    2  502    0  0.16782182330E+03 -0.25195758792E+03  0.27687207741E+04  0.27852219868E+04  0.00000000000E+00 0. -1.
         22    1    3    3    0    0 -0.17439051878E+03  0.16422120758E+03  0.45476921988E+03  0.51399970954E+03  0.00000000000E+00 0.  1.
         22    1    3    3    0    0 -0.33403342767E+02  0.91990312904E+02  0.78815268206E+02  0.12565765985E+03  0.00000000000E+00 0.  1.
</event>
<event>
 7    1  0.6999029E-005  0.2595137E+03  0.7818608E-02  0.1181482E+00
          2   -1    0    0  502    0  0.00000000000E+00  0.00000000000E+00  0.60036019596E+03  0.60036019596E+03  0.00000000000E+00 0. -1.
          1   -1    0    0  501    0 -0.00000000000E+00 -0.00000000000E+00 -0.12434895024E+04  0.12434895024E+04  0.00000000000E+00 0. -1.
         25    2    1    2    0    0  0.16478180728E+03 -0.32139797868E+03 -0.73797246298E+03  0.83106955656E+03  0.12499418794E+03 0.  0.
          2    1    1    2  501    0 -0.61176705897E+02  0.87666867521E+02 -0.42244478720E+03  0.43576102078E+03  0.00000000000E+00 0. -1.
          1    1    1    2  502    0 -0.10360510138E+03  0.23373111116E+03  0.51728794370E+03  0.57701912105E+03  0.00000000000E+00 0. -1.
         22    1    3    3    0    0 -0.33260120720E+01  0.15500288445E+00  0.39539943441E+01  0.51691830563E+01  0.00000000000E+00 0. -1.
         22    1    3    3    0    0  0.16810781935E+03 -0.32155298157E+03 -0.74192645732E+03  0.82590037351E+03  0.00000000000E+00 0. -1.
</event>
<event>
 7    1  0.6999029E-005  0.2789584E+03  0.7818608E-02  0.1275478E+00
          2   -1    0    0  502    0  0.00000000000E+00  0.00000000000E+00  0.42879412411E+03  0.42879412411E+03  0.00000000000E+00 0. -1.
          1   -1    0    0  501    0 -0.00000000000E+00 -0.00000000000E+00 -0.42123234705E+03  0.42123234705E+03  0.00000000000E+00 0. -1.
         25    2    1    2    0    0  0.23728760000E+03  0.15693272310E+03 -0.51220567128E+02  0.31493126164E+03  0.12499947345E+03 0.  0.
          2    1    1    2  501    0 -0.27785639824E+02  0.25235667862E+02 -0.17077731972E+03  0.17485357773E+03  0.00000000000E+00 0. -1.
          1    1    1    2  502    0 -0.20950196018E+03 -0.18216839096E+03  0.22955966390E+03  0.36024163179E+03  0.00000000000E+00 0. -1.
         22    1    3    3    0    0 -0.13879180796E+02 -0.10160457089E+01 -0.50694060463E+00  0.13925551954E+02  0.00000000000E+00 0. -1.
         22    1    3    3    0    0  0.25116678080E+03  0.15794876881E+03 -0.50713626523E+02  0.30100570968E+03  0.00000000000E+00 0. -1.
</event>
<event>
 7    1  0.6999029E-005  0.2053106E+03  0.7818608E-02  0.1338751E+00
          2   -1    0    0  502    0  0.00000000000E+00  0.00000000000E+00  0.37500189467E+03  0.37500189467E+03  0.00000000000E+00 0. -1.
          1   -1    0    0  501    0 -0.00000000000E+00 -0.00000000000E+00 -0.63465669985E+03  0.63465669985E+03  0.00000000000E+00 0. -1.
         25    2    1    2    0    0  0.16368819901E+03 -0.16441447900E+03 -0.38870616234E+03  0.46962525497E+03  0.12501780700E+03 0.  0.
          2    1    1    2  501    0 -0.19590784673E+02  0.20887794456E+02 -0.17329604404E+03  0.17564628570E+03  0.00000000000E+00 0. -1.
          1    1    1    2  502    0 -0.14409741434E+03  0.14352668454E+03  0.30234740120E+03  0.36438705384E+03  0.00000000000E+00 0. -1.
         22    1    3    3    0    0  0.64454565617E+01 -0.42752739520E+02 -0.16394913333E+03  0.16955429504E+03  0.00000000000E+00 0.  1.
         22    1    3    3    0    0  0.15724274245E+03 -0.12166173948E+03 -0.22475702901E+03  0.30007095994E+03  0.00000000000E+00 0.  1.
</event>
<event>
 7    1  0.6999029E-005  0.1046355E+03  0.7818608E-02  0.1459822E+00
          2   -1    0    0  502    0  0.00000000000E+00  0.00000000000E+00  0.72313035180E+03  0.72313035180E+03  0.00000000000E+00 0. -1.
          1   -1    0    0  501    0 -0.00000000000E+00 -0.00000000000E+00 -0.15465163378E+04  0.15465163378E+04  0.00000000000E+00 0. -1.
         25    2    1    2    0    0 -0.30955803780E+02  0.89733644222E+02 -0.27191905859E+03  0.31396831358E+03  0.12500295523E+03 0.  0.
          2    1    1    2  501    0  0.15524016529E+02 -0.10467967925E+03 -0.12511741150E+04  0.12556414681E+04  0.00000000000E+00 0. -1.
          1    1    1    2  502    0  0.15431787251E+02  0.14946035030E+02  0.69970718762E+03  0.70003690790E+03  0.00000000000E+00 0. -1.
         22    1    3    3    0    0 -0.40692998157E+02  0.32248456825E+02 -0.24374517535E+03  0.24921395140E+03  0.00000000000E+00 0.  1.
         22    1    3    3    0    0  0.97371943778E+01  0.57485187397E+02 -0.28173883238E+02  0.64754362178E+02  0.00000000000E+00 0.  1.
</event>
<event>
 7    1  0.6999029E-005  0.8900861E+02  0.7818608E-02  0.1354106E+00
          2   -1    0    0  502    0  0.00000000000E+00  0.00000000000E+00  0.26978018649E+04  0.26978018649E+04  0.00000000000E+00 0. -1.
          1   -1    0    0  501    0 -0.00000000000E+00 -0.00000000000E+00 -0.21699496066E+02  0.21699496066E+02  0.00000000000E+00 0. -1.
         25    2    1    2    0    0  0.10260091391E+03  0.93837176250E+02  0.84074791064E+03  0.86128701543E+03  0.12500364207E+03 0.  0.
          2    1    1    2  501    0 -0.51207754128E+02 -0.27030489800E+02  0.69984714333E+02  0.90833593466E+02  0.00000000000E+00 0. -1.
          1    1    1    2  502    0 -0.51393159786E+02 -0.66806686450E+02  0.17653697439E+04  0.17673807521E+04  0.00000000000E+00 0. -1.
         22    1    3    3    0    0  0.34139529390E+02 -0.21171331781E+02  0.36069174418E+03  0.36292184707E+03  0.00000000000E+00 0. -1.
         22    1    3    3    0    0  0.68461384525E+02  0.11500850803E+03  0.48005616646E+03  0.49836516837E+03  0.00000000000E+00 0. -1.
</event>
<event>
 7    1  0.6999029E-005  0.3274481E+03  0.7818608E-02  0.1281634E+00
          2   -1    0    0  502    0  0.00000000000E+00  0.00000000000E+00  0.99971039522E+03  0.99971039522E+03  0.00000000000E+00 0. -1.
          1   -1    0    0  501    0 -0.00000000000E+00 -0.00000000000E+00 -0.23868900379E+03  0.23868900379E+03  0.00000000000E+00 0. -1.
         25    2    1    2    0    0 -0.11988011057E+03  0.32691487397E+03  0.10296815838E+03  0.38402303725E+03  0.12500670289E+03 0.  0.
          2    1    1    2  501    0 -0.51299465917E+01 -0.29713702823E+02 -0.60058985925E+02  0.67203439479E+02  0.00000000000E+00 0. -1.
          1    1    1    2  502    0  0.12501005716E+03 -0.29720117115E+03  0.71811221897E+03  0.78717292228E+03  0.00000000000E+00 0. -1.
         22    1    3    3    0    0 -0.13891549263E+03  0.23981804559E+03  0.10059678844E+03  0.29483880838E+03  0.00000000000E+00 0. -1.
         22    1    3    3    0    0  0.19035382060E+02  0.87096828379E+02  0.23713699417E+01  0.89184228871E+02  0.00000000000E+00 0. -1.
</event>
<event>
 7    1  0.6999029E-005  0.2530116E+03  0.7818608E-02  0.1184461E+00
          2   -1    0    0  502    0  0.00000000000E+00  0.00000000000E+00  0.10266845148E+04  0.10266845148E+04  0.00000000000E+00 0. -1.
          1   -1    0    0  501    0 -0.00000000000E+00 -0.00000000000E+00 -0.39400978124E+03  0.39400978124E+03  0.00000000000E+00 0. -1.
         25    2    1    2    0    0 -0.28551558535E+03  0.36945182064E+02  0.10070556373E+03  0.32962248817E+03  0.12500111275E+03 0.  0.
          2    1    1    2  501    0  0.24070952932E+03  0.59183525257E+02 -0.22014108147E+03  0.33152053167E+03  0.00000000000E+00 0. -1.
          1    1    1    2  502    0  0.44806056028E+02 -0.96128707321E+02  0.75211025129E+03  0.75955127617E+03  0.00000000000E+00 0. -1.
         22    1    3    3    0    0 -0.15183099392E+03  0.77520919531E+02  0.30191495564E+02  0.17312905615E+03  0.00000000000E+00 0.  1.
         22    1    3    3    0    0 -0.13368459144E+03 -0.40575737467E+02  0.70514068161E+02  0.15649343203E+03  0.00000000000E+00 0.  1.
</event>
<event>
 7    1  0.6999029E-005  0.1072196E+04  0.7818608E-02  0.1160333E+00
          2   -1    0    0  502    0  0.00000000000E+00  0.00000000000E+00  0.21264647698E+04  0.21264647698E+04  0.00000000000E+00 0. -1.
          1   -1    0    0  501    0 -0.00000000000E+00 -0.00000000000E+00 -0.12587082180E+04  0.12587082180E+04  0.00000000000E+00 0. -1.
         25    2    1    2    0    0 -0.94443754589E+03 -0.54387746717E+03  0.32206585530E+03  0.11432918553E+04  0.12499949552E+03 0.  0.
          2    1    1    2  501    0  0.13187762737E+02  0.30188081411E+02 -0.64473025641E+03  0.64557132904E+03  0.00000000000E+00 0. -1.
          1    1    1    2  502    0  0.93124978315E+03  0.51368938575E+03  0.11904209529E+04  0.15963098035E+04  0.00000000000E+00 0. -1.
         22    1    3    3    0    0 -0.86148375932E+03 -0.50473799169E+03  0.25751113507E+03  0.10311288438E+04  0.00000000000E+00 0. -1.
         22    1    3    3    0    0 -0.82953786566E+02 -0.39139475480E+02  0.64554720226E+02  0.11216301151E+03  0.00000000000E+00 0. -1.
</event>
<event>
 7    1  0.6999029E-005  0.2354049E+03  0.7818608E-02  0.1159150E+00
          2   -1    0    0  502    0  0.00000000000E+00  0.00000000000E+00  0.71525390325E+03  0.71525390325E+03  0.00000000000E+00 0. -1.
          1   -1    0    0  501    0 -0.00000000000E+00 -0.00000000000E+00 -0.42490618940E+03  0.42490618940E+03  0.00000000000E+00 0. -1.
         25    2    1    2    0    0 -0.17817468822E+03 -0.31203359080E+03  0.64815391112E+02  0.38592420240E+03  0.12500109505E+03 0.  0.
          2    1    1    2  501    0  0.12758959195E+03  0.16856347474E+03 -0.20691262245E+03  0.29581342485E+03  0.00000000000E+00 0. -1.
          1    1    1    2  502    0  0.50585096265E+02  0.14347011605E+03  0.43244494519E+03  0.45842246540E+03  0.00000000000E+00 0. -1.
         22    1    3    3    0    0 -0.10725627537E+03 -0.25267939507E+03  0.26876032939E+01  0.27451413171E+03  0.00000000000E+00 0.  1.
         22    1    3    3    0    0 -0.70918412843E+02 -0.59354195730E+02  0.62127787818E+02  0.11141007069E+03  0.00000000000E+00 0.  1.
</event>
<event>
 7    1  0.6999029E-005  0.1175114E+03  0.7818608E-02  0.1365086E+00
          2   -1    0    0  502    0  0.00000000000E+00  0.00000000000E+00  0.25026973879E+04  0.25026973879E+04  0.00000000000E+00 0. -1.
          1   -1    0    0  501    0 -0.00000000000E+00 -0.00000000000E+00 -0.54429875556E+03  0.54429875556E+03  0.00000000000E+00 0. -1.
         25    2    1    2    0    0 -0.11804239933E+03  0.50376500574E+02  0.26625596078E+02  0.18112039913E+03  0.12499550698E+03 0.  0.
          2    1    1    2  501    0  0.11669561632E+03 -0.10407973037E+02 -0.45953427471E+03  0.47423405868E+03  0.00000000000E+00 0. -1.
          1    1    1    2  502    0  0.13467830017E+01 -0.39968527537E+02  0.23913073110E+04  0.23916416857E+04  0.00000000000E+00 0. -1.
         22    1    3    3    0    0  0.78072307307E+01 -0.23524926496E+02 -0.15481124238E+02  0.29223966637E+02  0.00000000000E+00 0. -1.
         22    1    3    3    0    0 -0.12584963006E+03  0.73901427071E+02  0.42106720316E+02  0.15189643249E+03  0.00000000000E+00 0. -1.
</event>
<event>
 7    1  0.6999029E-005  0.2472561E+03  0.7818608E-02  0.1163003E+00
          2   -1    0    0  502    0  0.00000000000E+00  0.00000000000E+00  0.26216656653E+03  0.26216656653E+03  0.00000000000E+00 0. -1.
          1   -1    0    0  501    0 -0.00000000000E+00 -0.00000000000E+00 -0.12115978276E+04  0.12115978276E+04  0.00000000000E+00 0. -1.
         25    2    1    2    0    0  0.21008449737E+03 -0.19567706960E+03 -0.24615538441E+03  0.39829943137E+03  0.12499980862E+03 0.  0.
          2    1    1    2  501    0  0.26596226406E+02  0.13591605587E+03 -0.80073243432E+03  0.81262104629E+03  0.00000000000E+00 0. -1.
          1    1    1    2  502    0 -0.23668072377E+03  0.59761013728E+02  0.97456557687E+02  0.26284391643E+03  0.00000000000E+00 0. -1.
         22    1    3    3    0    0  0.38402539428E+02 -0.56719028098E+02 -0.13421060969E+03  0.15067943103E+03  0.00000000000E+00 0. -1.
         22    1    3    3    0    0  0.17168195794E+03 -0.13895804150E+03 -0.11194477471E+03  0.24762000034E+03  0.00000000000E+00 0. -1.
</event>
<event>
 7    1  0.6999029E-005  0.4439593E+02  0.7818608E-02  0.1480188E+00
          2   -1    0    0  502    0  0.00000000000E+00  0.00000000000E+00  0.10395450517E+03  0.10395450517E+03  0.00000000000E+00 0. -1.
          1   -1    0    0  501    0 -0.00000000000E+00 -0.00000000000E+00 -0.17434611827E+04  0.17434611827E+04  0.00000000000E+00 0. -1.
         25    2    1    2    0    0  0.14971940406E+02 -0.88140369056E+00 -0.42178257099E+03  0.44017235787E+03  0.12500492619E+03 0.  0.
          2    1    1    2  501    0 -0.13344301130E+02 -0.43484684645E+02 -0.13068662448E+04  0.13076575889E+04  0.00000000000E+00 0. -1.
          1    1    1    2  502    0 -0.16276392764E+01  0.44366088336E+02  0.89142138264E+02  0.99585741038E+02  0.00000000000E+00 0. -1.
         22    1    3    3    0    0 -0.45173058591E+02 -0.28626907808E+02 -0.25835818242E+03  0.26383528099E+03  0.00000000000E+00 0. -1.
         22    1    3    3    0    0  0.60144998997E+02  0.27745504117E+02 -0.16342438857E+03  0.17633707688E+03  0.00000000000E+00 0. -1.
</event>
<event>
 7    1  0.6999029E-005  0.3031246E+03  0.7818608E-02  0.1312740E+00
          2   -1    0    0  502    0  0.00000000000E+00  0.00000000000E+00  0.13977951926E+03  0.13977951926E+03  0.00000000000E+00 0. -1.
          1   -1    0    0  501    0 -0.00000000000E+00 -0.00000000000E+00 -0.18304920086E+04  0.18304920086E+04  0.00000000000E+00 0. -1.
         25    2    1    2    0    0 -0.10251023442E+03 -0.30038246274E+03 -0.14423817371E+04  0.14821702393E+04  0.12500228197E+03 0.  0.
          2    1    1    2  501    0  0.22314445418E+02  0.99217019144E+01 -0.17669526138E+03  0.17837485819E+03  0.00000000000E+00 0. -1.
          1    1    1    2  502    0  0.80195789005E+02  0.29046076082E+03 -0.71635490868E+02  0.30972643042E+03  0.00000000000E+00 0. -1.
         22    1    3    3    0    0  0.19043837451E+02 -0.12330426745E+03 -0.46323030418E+03  0.47973839208E+03  0.00000000000E+00 0. -1.
         22    1    3    3    0    0 -0.12155407187E+03 -0.17707819528E+03 -0.97915143294E+03  0.10024318472E+04  0.00000000000E+00 0. -1.
</event>
<event>
 7    1  0.6999029E-005  0.1414387E+03  0.7818608E-02  0.1369690E+00
          2   -1    0    0  502    0  0.00000000000E+00  0.00000000000E+00  0.12130094204E+04  0.12130094204E+04  0.00000000000E+00 0. -1.
          1   -1    0    0  501    0 -0.00000000000E+00 -0.00000000000E+00 -0.60044125251E+03  0.60044125251E+03  0.00000000000E+00 0. -1.
         25    2    1    2    0    0 -0.14238063003E+03 -0.96079440977E+02  0.21908677981E+03  0.30516979427E+03  0.12500433375E+03 0.  0.
          2    1    1    2  501    0  0.11310058459E+03  0.83222171505E+02 -0.54828045247E+03  0.56597625977E+03  0.00000000000E+00 0. -1.
          1    1    1    2  502    0  0.29280045436E+02  0.12857269472E+02  0.94176184051E+03  0.94230461884E+03  0.00000000000E+00 0. -1.
         22    1    3    3    0    0 -0.65410916499E+02 -0.10339375313E+03  0.80439563025E+02  0.14642192283E+03  0.00000000000E+00 0.  1.
         22    1    3    3    0    0 -0.76969713531E+02  0.73143121577E+01  0.13864721679E+03  0.15874787144E+03  0.00000000000E+00 0.  1.
</event>
<event>
 7    1  0.6999029E-005  0.1910355E+03  0.7818608E-02  0.1261658E+00
          2   -1    0    0  502    0  0.00000000000E+00  0.00000000000E+00  0.19348216254E+03  0.19348216254E+03  0.00000000000E+00 0. -1.
          1   -1    0    0  501    0 -0.00000000000E+00 -0.00000000000E+00 -0.42562555560E+03  0.42562555560E+03  0.00000000000E+00 0. -1.
         25    2    1    2    0    0  0.64808362893E+01  0.21992898907E+03  0.24607519334E+02  0.25424839032E+03  0.12500380994E+03 0.  0.
          2    1    1    2  501    0 -0.12387970937E+02 -0.61429709818E+02 -0.17610968809E+03  0.18692697320E+03  0.00000000000E+00 0. -1.
          1    1    1    2  502    0  0.59071346481E+01 -0.15849927925E+03 -0.80641224306E+02  0.17793235462E+03  0.00000000000E+00 0. -1.
         22    1    3    3    0    0  0.14387507842E+02  0.68739496144E+01 -0.30167978772E+02  0.34122697847E+02  0.00000000000E+00 0.  1.
         22    1    3    3    0    0 -0.79066715523E+01  0.21305503946E+03  0.54775498106E+02  0.22012569247E+03  0.00000000000E+00 0.  1.
</event>
<event>
 7    1  0.6999029E-005  0.4907194E+03  0.7818608E-02  0.1088587E+00
          2   -1    0    0  502    0  0.00000000000E+00  0.00000000000E+00  0.10720497381E+04  0.10720497381E+04  0.00000000000E+00 0. -1.
          1   -1    0    0  501    0 -0.00000000000E+00 -0.00000000000E+00 -0.10905396934E+04  0.10905396934E+04  0.00000000000E+00 0. -1.
         25    2    1    2    0    0 -0.36502222266E+03  0.18481453178E+03 -0.40046864200E+03  0.58600176730E+03  0.12500121540E+03 0.  0.
          2    1    1    2  501    0 -0.13407395477E+03 -0.11312798979E+03 -0.51695007458E+03  0.54590397236E+03  0.00000000000E+00 0. -1.
          1    1    1    2  502    0  0.49909617743E+03 -0.71686541985E+02  0.89892876136E+03  0.10306836918E+04  0.00000000000E+00 0. -1.
         22    1    3    3    0    0 -0.77080837875E+02  0.68226710555E+02 -0.40747425377E+02  0.11070994660E+03  0.00000000000E+00 0.  1.
         22    1    3    3    0    0 -0.28794138479E+03  0.11658782122E+03 -0.35972121663E+03  0.47529182070E+03  0.00000000000E+00 0.  1.
</event>
<event>
 7    1  0.6999029E-005  0.7401059E+03  0.7818608E-02  0.1138483E+00
          2   -1    0    0  502    0  0.00000000000E+00  0.00000000000E+00  0.46149129803E+04  0.46149129803E+04  0.00000000000E+00 0. -1.
          1   -1    0    0  501    0 -0.00000000000E+00 -0.00000000000E+00 -0.11629563631E+04  0.11629563631E+04  0.00000000000E+00 0. -1.
         25    2    1    2    0    0  0.40120194641E+03 -0.63539601195E+03 -0.44132481782E+03  0.88038864974E+03  0.12500194380E+03 0.  0.
          2    1    1    2  501    0 -0.43480193290E+03  0.58347678086E+03 -0.23810480161E+03  0.76563161587E+03  0.00000000000E+00 0. -1.
          1    1    1    2  502    0  0.33599986495E+02  0.51919231090E+02  0.41313862366E+04  0.41318490778E+04  0.00000000000E+00 0. -1.
         22    1    3    3    0    0  0.21786775542E+03 -0.22981770343E+03 -0.18025516863E+03  0.36438230127E+03  0.00000000000E+00 0.  1.
         22    1    3    3    0    0  0.18333419099E+03 -0.40557830853E+03 -0.26106964919E+03  0.51600634847E+03  0.00000000000E+00 0.  1.
</event>
<event>
 7    1  0.6999029E-005  0.2353443E+03  0.7818608E-02  0.1149278E+00
          2   -1    0    0  502    0  0.00000000000E+00  0.00000000000E+00  0.34579039144E+04  0.34579039144E+04  0.00000000000E+00 0. -1.
          1   -1    0    0  501    0 -0.00000000000E+00 -0.00000000000E+00 -0.25729363734E+03  0.25729363734E+03  0.00000000000E+00 0. -1.
         25    2    1    2    0    0  0.22694932388E+03  0.30087569001E+03  0.12664019965E+04  0.13271890605E+04  0.12499843630E+03 0.  0.
          2    1    1    2  501    0 -0.18569380087E+03 -0.13503413281E+03 -0.16444055657E+03  0.28241299784E+03  0.00000000000E+00 0. -1.
          1    1    1    2  502    0 -0.41255523017E+02 -0.16584155720E+03  0.20986488371E+04  0.21055954934E+04  0.00000000000E+00 0. -1.
         22    1    3    3    0    0  0.18482775602E+03  0.14307852760E+03  0.74720063789E+03  0.78290584218E+03  0.00000000000E+00 0.  1.
         22    1    3    3    0    0  0.42121567861E+02  0.15779716241E+03  0.51920135857E+03  0.54428321827E+03  0.00000000000E+00 0.  1.
</event>
<event>
 7    1  0.6999029E-005  0.4418443E+03  0.7818608E-02  0.1196516E+00
          2   -1    0    0  502    0  0.00000000000E+00  0.00000000000E+00  0.36698845868E+04  0.36698845868E+04  0.00000000000E+00 0. -1.
          1   -1    0    0  501    0 -0.00000000000E+00 -0.00000000000E+00 -0.35551537970E+03  0.35551537970E+03  0.00000000000E+00 0. -1.
         25    2    1    2    0    0 -0.35183761787E+03 -0.19186250615E+03  0.10322276261E+04  0.11143249097E+04  0.12500080639E+03 0.  0.
          2    1    1    2  501    0  0.40500196002E+03  0.19162296569E+03 -0.15443711271E+03  0.47391641708E+03  0.00000000000E+00 0. -1.
          1    1    1    2  502    0 -0.53164342149E+02  0.23954045997E+00  0.24365786937E+04  0.24371586397E+04  0.00000000000E+00 0. -1.
         22    1    3    3    0    0 -0.71357848209E+02 -0.86846945505E+02  0.19413982208E+03  0.22433146227E+03  0.00000000000E+00 0. -1.
         22    1    3    3    0    0 -0.28047976966E+03 -0.10501556065E+03  0.83808780404E+03  0.88999344742E+03  0.00000000000E+00 0. -1.
</event>
<event>
 7    1  0.6999029E-005  0.9141472E+03  0.7818608E-02  0.1108247E+00
          2   -1    0    0  502    0  0.00000000000E+00  0.00000000000E+00  0.99713869985E+03  0.99713869985E+03  0.00000000000E+00 0. -1.
          1   -1    0    0  501    0 -0.00000000000E+00 -0.00000000000E+00 -0.14338676527E+04  0.14338676527E+04  0.00000000000E+00 0. -1.
         25    2    1    2    0    0 -0.64894383256E+03 -0.62612421469E+03  0.20932677486E+03  0.93412997522E+03  0.12498592679E+03 0.  0.
          2    1    1    2  501    0  0.25600028225E+02 -0.68270194365E+02 -0.55448586568E+03  0.55925911358E+03  0.00000000000E+00 0. -1.
          1    1    1    2  502    0  0.62334380433E+03  0.69439440906E+03 -0.91569862068E+02  0.93761726380E+03  0.00000000000E+00 0. -1.
         22    1    3    3    0    0 -0.27019687892E+03 -0.33377866015E+03  0.13350218974E+03  0.44970810756E+03  0.00000000000E+00 0.  1.
         22    1    3    3    0    0 -0.37874695364E+03 -0.29234555455E+03  0.75824585121E+02  0.48442186766E+03  0.00000000000E+00 0.  1.
</event>
<event>
 7    1  0.1033010E-004  0.1199024E+03  0.7818608E-02  0.1285739E+00
          2   -1    0    0  502    0  0.00000000000E+00  0.00000000000E+00  0.20431142552E+04  0.20431142552E+04  0.00000000000E+00 0. -1.
          1   -1    0    0  501    0 -0.00000000000E+00 -0.00000000000E+00 -0.98906118518E+03  0.98906118518E+03  0.00000000000E+00 0. -1.
         25    2    1    2    0    0 -0.48635870406E+02 -0.18697061947E+03 -0.71334075013E+03  0.74953586488E+03  0.12500210604E+03 0.  0.
          2    1    1    2  501    0 -0.34053296833E+01  0.79138300355E+02 -0.24971657085E+03  0.26197868732E+03  0.00000000000E+00 0. -1.
          1    1    1    2  502    0  0.52041200089E+02  0.10783231911E+03  0.20171103910E+04  0.20206608882E+04  0.00000000000E+00 0. -1.
         22    1    3    3    0    0 -0.19851770749E+02 -0.19329311490E+03 -0.66604418969E+03  0.69380918392E+03  0.00000000000E+00 0. -1.
         22    1    3    3    0    0 -0.28784099657E+02  0.63224954367E+01 -0.47296560436E+02  0.55726680959E+02  0.00000000000E+00 0. -1.
</event>
<event>
 7    1  0.6999029E-005  0.3944949E+03  0.7818608E-02  0.1112449E+00
          2   -1    0    0  502    0  0.00000000000E+00  0.00000000000E+00  0.98532566102E+03  0.98532566102E+03  0.00000000000E+00 0. -1.
          1   -1    0    0  501    0 -0.00000000000E+00 -0.00000000000E+00 -0.74631855583E+03  0.74631855583E+03  0.00000000000E+00 0. -1.
         25    2    1    2    0    0  0.46490273968E+03  0.10938352776E+03  0.75460539213E+02  0.49942520752E+03  0.12502772262E+03 0.  0.
          2    1    1    2  501    0 -0.32698066653E+03 -0.19079520343E+03 -0.45579190602E+03  0.59250774470E+03  0.00000000000E+00 0. -1.
          1    1    1    2  502    0 -0.13792207314E+03  0.81411675672E+02  0.61933847200E+03  0.63971126463E+03  0.00000000000E+00 0. -1.
         22    1    3    3    0    0  0.47298010300E+03  0.10920380348E+03  0.75960061134E+02  0.49133041776E+03  0.00000000000E+00 0.  1.
         22    1    3    3    0    0 -0.80773633242E+01  0.17972427716E+00 -0.49952192076E+00  0.80947897586E+01  0.00000000000E+00 0.  1.
</event>
<event>
 7    1  0.6999029E-005  0.2555436E+03  0.7818608E-02  0.1130789E+00
          2   -1    0    0  502    0  0.00000000000E+00  0.00000000000E+00  0.11285286019E+04  0.11285286019E+04  0.00000000000E+00 0. -1.
          1   -1    0    0  501    0 -0.00000000000E+00 -0.00000000000E+00 -0.69774563237E+03  0.69774563237E+03  0.00000000000E+00 0. -1.
         25    2    1    2    0    0  0.11325928249E+03  0.42113664832E+03  0.84178992294E+03  0.95625359077E+03  0.12500765519E+03 0.  0.
          2    1    1    2  501    0 -0.11116748626E+03 -0.22444532616E+03 -0.56642311780E+03  0.61932952684E+03  0.00000000000E+00 0. -1.
          1    1    1    2  502    0 -0.20917962289E+01 -0.19669132216E+03  0.15541616441E+03  0.25069111669E+03  0.00000000000E+00 0. -1.
         22    1    3    3    0    0  0.62205273093E+02  0.78582051114E+02  0.12533794620E+03  0.16048126219E+03  0.00000000000E+00 0.  1.
         22    1    3    3    0    0  0.51054009400E+02  0.34255459721E+03  0.71645197674E+03  0.79577232857E+03  0.00000000000E+00 0.  1.
</event>
<event>
 7    1  0.6999029E-005  0.4957579E+02  0.7818608E-02  0.1485405E+00
          2   -1    0    0  502    0  0.00000000000E+00  0.00000000000E+00  0.28203170409E+03  0.28203170409E+03  0.00000000000E+00 0. -1.
          1   -1    0    0  501    0 -0.00000000000E+00 -0.00000000000E+00 -0.66191191909E+03  0.66191191909E+03  0.00000000000E+00 0. -1.
         25    2    1    2    0    0 -0.82722338658E+02  0.14087103375E+02 -0.67754785988E+02  0.16509766527E+03  0.12500038503E+03 0.  0.
          2    1    1    2  501    0  0.48782103759E+02  0.24973072565E+01 -0.54285316627E+03  0.54504631942E+03  0.00000000000E+00 0. -1.
          1    1    1    2  502    0  0.33940234899E+02 -0.16584410632E+02  0.23072773725E+03  0.23379963849E+03  0.00000000000E+00 0. -1.
         22    1    3    3    0    0 -0.17683752538E+02  0.38056040966E+02  0.25348306797E+02  0.49025646506E+02  0.00000000000E+00 0.  1.
         22    1    3    3    0    0 -0.65038586120E+02 -0.23968937591E+02 -0.93103092786E+02  0.11607201876E+03  0.00000000000E+00 0.  1.
</event>
<event>
 7    1  0.6999029E-005  0.2547568E+03  0.7818608E-02  0.1224717E+00
          2   -1    0    0  502    0  0.00000000000E+00  0.00000000000E+00  0.52047751015E+03  0.52047751015E+03  0.00000000000E+00 0. -1.
          1   -1    0    0  501    0 -0.00000000000E+00 -0.00000000000E+00 -0.35673187673E+03  0.35673187673E+03  0.00000000000E+00 0. -1.
         25    2    1    2    0    0 -0.12168016333E+02 -0.25817532739E+03 -0.17141110605E+03  0.33437810675E+03  0.12499756277E+03 0.  0.
          2    1    1    2  501    0  0.78241526374E+02  0.24106529105E+03  0.61511191948E+02  0.26080229626E+03  0.00000000000E+00 0. -1.
          1    1    1    2  502    0 -0.66073510040E+02  0.17110036343E+02  0.27364554752E+03  0.28202898388E+03  0.00000000000E+00 0. -1.
         22    1    3    3    0    0  0.30672351475E+02 -0.20212873523E+03 -0.81483961864E+02  0.22008283620E+03  0.00000000000E+00 0.  1.
         22    1    3    3    0    0 -0.42840367808E+02 -0.56046592166E+02 -0.89927144189E+02  0.11429527055E+03  0.00000000000E+00 0.  1.
</event>
<event>
 7    1  0.6999029E-005  0.2459119E+03  0.7818608E-02  0.1163965E+00
          2   -1    0    0  502    0  0.00000000000E+00  0.00000000000E+00  0.87831721525E+03  0.87831721525E+03  0.00000000000E+00 0. -1.
          1   -1    0    0  501    0 -0.00000000000E+00 -0.00000000000E+00 -0.22170286079E+04  0.22170286079E+04  0.00000000000E+00 0. -1.
         25    2    1    2    0    0 -0.30980800255E+03  0.47706195801E+02  0.24699877701E+03  0.41819848325E+03  0.12499878396E+03 0.  0.
          2    1    1    2  501    0  0.85761464471E+02 -0.10774543946E+03 -0.21044291002E+04  0.21089300478E+04  0.00000000000E+00 0. -1.
          1    1    1    2  502    0  0.22404653808E+03  0.60039243655E+02  0.51871893063E+03  0.56821729206E+03  0.00000000000E+00 0. -1.
         22    1    3    3    0    0 -0.30345118011E+03  0.66367626445E+02  0.20605179771E+03  0.37275276510E+03  0.00000000000E+00 0. -1.
         22    1    3    3    0    0 -0.63568224407E+01 -0.18661430644E+02  0.40946979296E+02  0.45445718156E+02  0.00000000000E+00 0. -1.
</event>
<event>
 7    1  0.6999029E-005  0.1676320E+03  0.7818608E-02  0.1295889E+00
          2   -1    0    0  502    0  0.00000000000E+00  0.00000000000E+00  0.57054778837E+03  0.57054778837E+03  0.00000000000E+00 0. -1.
          1   -1    0    0  501    0 -0.00000000000E+00 -0.00000000000E+00 -0.84481472004E+03  0.84481472004E+03  0.00000000000E+00 0. -1.
         25    2    1    2    0    0  0.17455427000E+03 -0.50411582702E+02 -0.62674138737E+03  0.66440996678E+03  0.12500126588E+03 0.  0.
          2    1    1    2  501    0 -0.14936061432E+03  0.54642477733E+01 -0.16976192813E+03  0.22618037792E+03  0.00000000000E+00 0. -1.
          1    1    1    2  502    0 -0.25193655681E+02  0.44947334929E+02  0.52223638383E+03  0.52477216370E+03  0.00000000000E+00 0. -1.
         22    1    3    3    0    0  0.18731291935E+03 -0.47269437301E+02 -0.48497158633E+03  0.52203253634E+03  0.00000000000E+00 0.  1.
         22    1    3    3    0    0 -0.12758649344E+02 -0.31421454016E+01 -0.14176980104E+03  0.14237743044E+03  0.00000000000E+00 0.  1.
</event>
<event>
 7    1  0.6999029E-005  0.3722869E+03  0.7818608E-02  0.1093059E+00
          2   -1    0    0  502    0  0.00000000000E+00  0.00000000000E+00  0.27621731008E+04  0.27621731008E+04  0.00000000000E+00 0. -1.
          1   -1    0    0  501    0 -0.00000000000E+00 -0.00000000000E+00 -0.40957595661E+03  0.40957595661E+03  0.00000000000E+00 0. -1.
         25    2    1    2    0    0  0.38970866114E+03  0.93743614404E+02  0.21844986170E+04  0.22244819964E+04  0.12500095515E+03 0.  0.
          2    1    1    2  501    0 -0.15776655288E+03  0.15041436428E+03 -0.29986803210E+03  0.37072308111E+03  0.00000000000E+00 0. -1.
          1    1    1    2  502    0 -0.23194210827E+03 -0.24415797869E+03  0.46796655922E+03  0.57654397984E+03  0.00000000000E+00 0. -1.
         22    1    3    3    0    0  0.15479983705E+03  0.23696873357E+02  0.55584636131E+03  0.57748567839E+03  0.00000000000E+00 0. -1.
         22    1    3    3    0    0  0.23490882409E+03  0.70046741048E+02  0.16286522557E+04  0.16469963180E+04  0.00000000000E+00 0. -1.
</event>
<event>
 7    1  0.6999029E-005  0.2283540E+03  0.7818608E-02  0.1234057E+00
          2   -1    0    0  502    0  0.00000000000E+00  0.00000000000E+00  0.71634944047E+03  0.71634944047E+03  0.00000000000E+00 0. -1.
          1   -1    0    0  501    0 -0.00000000000E+00 -0.00000000000E+00 -0.98710912260E+03  0.98710912260E+03  0.00000000000E+00 0. -1.
         25    2    1    2    0    0  0.25356198381E+03 -0.14388945389E+03  0.48997654429E+03  0.58369622411E+03  0.12500565391E+03 0.  0.
          2    1    1    2  501    0 -0.18584685089E+03  0.12993430971E+03 -0.91926075587E+03  0.94681693801E+03  0.00000000000E+00 0. -1.
          1    1    1    2  502    0 -0.67715132919E+02  0.13955144176E+02  0.15852452945E+03  0.17294540095E+03  0.00000000000E+00 0. -1.
         22    1    3    3    0    0  0.22649530899E+03 -0.10938553111E+03  0.47476849142E+03  0.53728059695E+03  0.00000000000E+00 0.  1.
         22    1    3    3    0    0  0.27066674816E+02 -0.34503922778E+02  0.15208052875E+02  0.46415627163E+02  0.00000000000E+00 0.  1.
</event>
<event>
 7    1  0.6999029E-005  0.9550964E+02  0.7818608E-02  0.1377203E+00
          2   -1    0    0  502    0  0.00000000000E+00  0.00000000000E+00  0.19928161490E+03  0.19928161490E+03  0.00000000000E+00 0. -1.
          1   -1    0    0  501    0 -0.00000000000E+00 -0.00000000000E+00 -0.11794743646E+03  0.11794743646E+03  0.00000000000E+00 0. -1.
         25    2    1    2    0    0  0.10835835570E+03 -0.26768475708E+02  0.72293200751E+02  0.18250700864E+03  0.12499766712E+03 0.  0.
          2    1    1    2  501    0 -0.21379030852E+02  0.39045867629E+02 -0.80381385104E+01  0.45235543656E+02  0.00000000000E+00 0. -1.
          1    1    1    2  502    0 -0.86979324849E+02 -0.12277391921E+02  0.17079116199E+02  0.89486499058E+02  0.00000000000E+00 0. -1.
         22    1    3    3    0    0  0.56515636132E+02 -0.37126222019E+02  0.10161154884E+03  0.12205441551E+03  0.00000000000E+00 0. -1.
         22    1    3    3    0    0  0.51842719570E+02  0.10357746311E+02 -0.29318348089E+02  0.60452593126E+02  0.00000000000E+00 0. -1.
</event>
<event>
 7    1  0.6999029E-005  0.5679054E+03  0.7818608E-02  0.1139372E+00
          2   -1    0    0  502    0  0.00000000000E+00  0.00000000000E+00  0.12899771504E+04  0.12899771504E+04  0.00000000000E+00 0. -1.
          1   -1    0    0  501    0 -0.00000000000E+00 -0.00000000000E+00 -0.88282722854E+03  0.88282722854E+03  0.00000000000E+00 0. -1.
         25    2    1    2    0    0 -0.55903726886E+03 -0.11313520758E+02 -0.49917553517E+03  0.75990271619E+03  0.12500103777E+03 0.  0.
          2    1    1    2  501    0  0.59161826927E+03 -0.61460630226E+02  0.10061078570E+03  0.60325128744E+03  0.00000000000E+00 0. -1.
          1    1    1    2  502    0 -0.32581000414E+02  0.72774150985E+02  0.80571467134E+03  0.80965037531E+03  0.00000000000E+00 0. -1.
         22    1    3    3    0    0 -0.23009797651E+03 -0.57021211631E+02 -0.16540151532E+03  0.28905736219E+03  0.00000000000E+00 0. -1.
         22    1    3    3    0    0 -0.32893929235E+03  0.45707690873E+02 -0.33377401985E+03  0.47084535400E+03  0.00000000000E+00 0. -1.
</event>
<event>
 7    1  0.6999029E-005  0.1254258E+03  0.7818608E-02  0.1309316E+00
          2   -1    0    0  502    0  0.00000000000E+00  0.00000000000E+00  0.90595902887E+03  0.90595902887E+03  0.00000000000E+00 0. -1.
          1   -1    0    0  501    0 -0.00000000000E+00 -0.00000000000E+00 -0.13335404996E+03  0.13335404996E+03  0.00000000000E+00 0. -1.
         25    2    1    2    0    0  0.50409048678E+02 -0.16024430814E+03  0.11695097198E+03  0.23983550907E+03  0.12499692431E+03 0.  0.
          2    1    1    2  501    0 -0.57212039857E+02  0.99747006127E+02 -0.23695331061E+02  0.11740592596E+03  0.00000000000E+00 0. -1.
          1    1    1    2  502    0  0.68029911794E+01  0.60497302011E+02  0.67934933799E+03  0.68207164380E+03  0.00000000000E+00 0. -1.
         22    1    3    3    0    0 -0.32907618574E+02 -0.27790840347E+02 -0.22426836520E+01  0.43130868266E+02  0.00000000000E+00 0. -1.
         22    1    3    3    0    0  0.83316667252E+02 -0.13245346779E+03  0.11919365564E+03  0.19670464081E+03  0.00000000000E+00 0. -1.
</event>
<event>
 7    1  0.6999029E-005  0.4459376E+03  0.7818608E-02  0.1046885E+00
          2   -1    0    0  502    0  0.00000000000E+00  0.00000000000E+00  0.15155701765E+04  0.15155701765E+04  0.00000000000E+00 0. -1.
          1   -1    0    0  501    0 -0.00000000000E+00 -0.00000000000E+00 -0.20915423963E+04  0.20915423963E+04  0.00000000000E+00 0. -1.
         25    2    1    2    0    0  0.66563623499E+02  0.76335331434E+03 -0.83183549245E+03  0.11378549476E+04  0.12499838678E+03 0.  0.
          2    1    1    2  501    0 -0.95393721108E+02 -0.32957879603E+03 -0.10438362682E+04  0.10987794591E+04  0.00000000000E+00 0. -1.
          1    1    1    2  502    0  0.28830097609E+02 -0.43377451831E+03  0.12996995409E+04  0.13704781661E+04  0.00000000000E+00 0. -1.
         22    1    3    3    0    0  0.79211129268E+00  0.11187138840E+02 -0.48884788532E+02  0.50154781084E+02  0.00000000000E+00 0. -1.
         22    1    3    3    0    0  0.65771512206E+02  0.75216617550E+03 -0.78295070392E+03  0.10877001665E+04  0.00000000000E+00 0. -1.
</event>
<event>
 7    1  0.6999029E-005  0.1982907E+03  0.7818608E-02  0.1211101E+00
          2   -1    0    0  502    0  0.00000000000E+00  0.00000000000E+00  0.73561798130E+03  0.73561798130E+03  0.00000000000E+00 0. -1.
          1   -1    0    0  501    0 -0.00000000000E+00 -0.00000000000E+00 -0.12817208779E+04  0.12817208779E+04  0.00000000000E+00 0. -1.
         25    2    1    2    0    0  0.14973182551E+03 -0.10428186054E+03 -0.44157324774E+03  0.49386786510E+03  0.12499683617E+03 0.  0.
          2    1    1    2  501    0  0.49141788913E+02  0.88485547974E+02 -0.79671032669E+03  0.80311390990E+03  0.00000000000E+00 0. -1.
          1    1    1    2  502    0 -0.19887361442E+03  0.15796312564E+02  0.69218067783E+03  0.72035708420E+03  0.00000000000E+00 0. -1.
         22    1    3    3    0    0  0.11099168306E+03 -0.13088454092E+03 -0.37475170738E+03  0.41217564089E+03  0.00000000000E+00 0.  1.
         22    1    3    3    0    0  0.38740142450E+02  0.26602680380E+02 -0.66821540358E+02  0.81692224209E+02  0.00000000000E+00 0.  1.
</event>
<event>
 7    1  0.6999029E-005  0.6469978E+03  0.7818608E-02  0.1162904E+00
          2   -1    0    0  502    0  0.00000000000E+00  0.00000000000E+00  0.16699281101E+04  0.16699281101E+04  0.00000000000E+00 0. -1.
          1   -1    0    0  501    0 -0.00000000000E+00 -0.00000000000E+00 -0.12588100068E+04  0.12588100068E+04  0.00000000000E+00 0. -1.
         25    2    1    2    0    0  0.67750273697E+03 -0.76977781409E+02 -0.23737264860E+03  0.73273934231E+03  0.12500252809E+03 0.  0.
          2    1    1    2  501    0 -0.44390553206E+02 -0.28934190288E+02 -0.70027283844E+03  0.70227470184E+03  0.00000000000E+00 0. -1.
          1    1    1    2  502    0 -0.63311218377E+03  0.10591197170E+03  0.13487635903E+04  0.14937240728E+04  0.00000000000E+00 0. -1.
         22    1    3    3    0    0  0.45778193492E+03 -0.28642035866E+02 -0.21527122528E+03  0.50668172120E+03  0.00000000000E+00 0. -1.
         22    1    3    3    0    0  0.21972080205E+03 -0.48335745542E+02 -0.22101423315E+02  0.22605762111E+03  0.00000000000E+00 0. -1.
</event>
<event>
 7    1  0.6999029E-005  0.8609356E+02  0.7818608E-02  0.1408604E+00
          2   -1    0    0  502    0  0.00000000000E+00  0.00000000000E+00  0.24393542660E+04  0.24393542660E+04  0.00000000000E+00 0. -1.
          1   -1    0    0  501    0 -0.00000000000E+00 -0.00000000000E+00 -0.15410800218E+03  0.15410800218E+03  0.00000000000E+00 0. -1.
         25    2    1    2    0    0  0.77799702622E+02 -0.11642362965E+02 -0.75500272537E+01  0.14788730735E+03  0.12500125768E+03 0.  0.
          2    1    1    2  501    0  0.42695306543E+01  0.38173703365E+02 -0.70723718598E+02  0.80481705330E+02  0.00000000000E+00 0. -1.
          1    1    1    2  502    0 -0.82069233276E+02 -0.26531340400E+02  0.23635200097E+04  0.23650932555E+04  0.00000000000E+00 0. -1.
         22    1    3    3    0    0 -0.27176971012E+02 -0.28850082880E+02 -0.12015294986E+02  0.41415967321E+02  0.00000000000E+00 0. -1.
         22    1    3    3    0    0  0.10497667363E+03  0.17207719915E+02  0.44652677321E+01  0.10647134003E+03  0.00000000000E+00 0. -1.
</event>
<event>
 7    1  0.6999029E-005  0.1047795E+03  0.7818608E-02  0.1354697E+00
          2   -1    0    0  502    0  0.00000000000E+00  0.00000000000E+00  0.17635013528E+03  0.17635013528E+03  0.00000000000E+00 0. -1.
          1   -1    0    0  501    0 -0.00000000000E+00 -0.00000000000E+00 -0.12106541495E+04  0.12106541495E+04  0.00000000000E+00 0. -1.
         25    2    1    2    0    0 -0.10387537483E+03 -0.10957515427E+03 -0.34972392526E+02  0.19911271772E+03  0.12500399269E+03 0.  0.
          2    1    1    2  501    0  0.63946086943E+02  0.81272263921E+02 -0.10846302483E+04  0.10895490161E+04  0.00000000000E+00 0. -1.
          1    1    1    2  502    0  0.39929287888E+02  0.28302890345E+02  0.85298626602E+02  0.98342550980E+02  0.00000000000E+00 0. -1.
         22    1    3    3    0    0 -0.76595959145E+02 -0.13706445558E+03 -0.23819218311E+02  0.15881108621E+03  0.00000000000E+00 0.  1.
         22    1    3    3    0    0 -0.27279415686E+02  0.27489301317E+02 -0.11153174215E+02  0.40301631507E+02  0.00000000000E+00 0.  1.
</event>
<event>
 7    1  0.6999029E-005  0.2712807E+03  0.7818608E-02  0.1239630E+00
          2   -1    0    0  502    0  0.00000000000E+00  0.00000000000E+00  0.10591494487E+04  0.10591494487E+04  0.00000000000E+00 0. -1.
          1   -1    0    0  501    0 -0.00000000000E+00 -0.00000000000E+00 -0.18697908436E+04  0.18697908436E+04  0.00000000000E+00 0. -1.
         25    2    1    2    0    0 -0.11295118128E+03 -0.22834811305E+03  0.67095626829E+03  0.72849764783E+03  0.12500271542E+03 0.  0.
          2    1    1    2  501    0 -0.21158481412E+02 -0.50744644086E+02 -0.17738260786E+04  0.17746779025E+04  0.00000000000E+00 0. -1.
          1    1    1    2  502    0  0.13410966269E+03  0.27909275714E+03  0.29222841552E+03  0.42576474202E+03  0.00000000000E+00 0. -1.
         22    1    3    3    0    0 -0.33498684415E+02 -0.19438155822E+03  0.45685075984E+03  0.49761327233E+03  0.00000000000E+00 0.  1.
         22    1    3    3    0    0 -0.79452496861E+02 -0.33966554828E+02  0.21410550845E+03  0.23088437550E+03  0.00000000000E+00 0.  1.
</event>
<event>
 7    1  0.6999029E-005  0.3588748E+03  0.7818608E-02  0.1224251E+00
          2   -1    0    0  502    0  0.00000000000E+00  0.00000000000E+00  0.23114019700E+04  0.23114019700E+04  0.00000000000E+00 0. -1.
          1   -1    0    0  501    0 -0.00000000000E+00 -0.00000000000E+00 -0.37905371043E+03  0.37905371043E+03  0.00000000000E+00 0. -1.
         25    2    1    2    0    0  0.18454855815E+03 -0.35213042664E+03  0.51266131165E+03  0.66068235693E+03  0.12500219444E+03 0.  0.
          2    1    1    2  501    0 -0.29361452560E+02  0.38837497628E+02 -0.28524124714E+03  0.28936657580E+03  0.00000000000E+00 0. -1.
          1    1    1    2  502    0 -0.15518710559E+03  0.31329292901E+03  0.17049281951E+04  0.17404067477E+04  0.00000000000E+00 0. -1.
         22    1    3    3    0    0  0.11253720341E+03 -0.24284711912E+03  0.42803368358E+03  0.50482886179E+03  0.00000000000E+00 0.  1.
         22    1    3    3    0    0  0.72011354745E+02 -0.10928330753E+03  0.84627628073E+02  0.15585349515E+03  0.00000000000E+00 0.  1.
</event>
<event>
 7    1  0.6999029E-005  0.3521286E+03  0.7818608E-02  0.1145874E+00
          2   -1    0    0  502    0  0.00000000000E+00  0.00000000000E+00  0.48056059834E+03  0.48056059834E+03  0.00000000000E+00 0. -1.
          1   -1    0    0  501    0 -0.00000000000E+00 -0.00000000000E+00 -0.15790411760E+04  0.15790411760E+04  0.00000000000E+00 0. -1.
         25    2    1    2    0    0 -0.28801394667E+03 -0.11787993695E+03 -0.16023561871E+03  0.37168217335E+03  0.12499788587E+03 0.  0.
          2    1    1    2  501    0  0.27825451234E+03  0.23641742398E+03 -0.12773761770E+04  0.13285362883E+04  0.00000000000E+00 0. -1.
          1    1    1    2  502    0  0.97594343215E+01 -0.11853748704E+03  0.33913121800E+03  0.35938331265E+03  0.00000000000E+00 0. -1.
         22    1    3    3    0    0 -0.11070574111E+03  0.57774728259E+01 -0.16475144727E+02  0.11207395193E+03  0.00000000000E+00 0. -1.
         22    1    3    3    0    0 -0.17730820556E+03 -0.12365740977E+03 -0.14376047398E+03  0.25960822142E+03  0.00000000000E+00 0. -1.
</event>
<event>
 7    1  0.6999029E-005  0.7217150E+03  0.7818608E-02  0.1091710E+00
          2   -1    0    0  502    0  0.00000000000E+00  0.00000000000E+00  0.14268989450E+04  0.14268989450E+04  0.00000000000E+00 0. -1.
          1   -1    0    0  501    0 -0.00000000000E+00 -0.00000000000E+00 -0.23702540123E+04  0.23702540123E+04  0.00000000000E+00 0. -1.
         25    2    1    2    0    0 -0.46753367499E+02 -0.75090176314E+03  0.35294879840E+03  0.84038465839E+03  0.12503673262E+03 0.  0.
          2    1    1    2  501    0 -0.97418270771E+02  0.60079321705E+02 -0.19746146135E+04  0.19779288956E+04  0.00000000000E+00 0. -1.
          1    1    1    2  502    0  0.14417163827E+03  0.69082244144E+03  0.67831074778E+03  0.97883940328E+03  0.00000000000E+00 0. -1.
         22    1    3    3    0    0  0.16684373891E+02 -0.46069264478E+03  0.16908181788E+03  0.49102417703E+03  0.00000000000E+00 0.  1.
         22    1    3    3    0    0 -0.63437741390E+02 -0.29020911836E+03  0.18386698053E+03  0.34936048137E+03  0.00000000000E+00 0.  1.
</event>
<event>
 7    1  0.6999029E-005  0.4016494E+02  0.7818608E-02  0.1552123E+00
          2   -1    0    0  502    0  0.00000000000E+00  0.00000000000E+00  0.75446505042E+03  0.75446505042E+03  0.00000000000E+00 0. -1.
          1   -1    0    0  501    0 -0.00000000000E+00 -0.00000000000E+00 -0.31559298889E+03  0.31559298889E+03  0.00000000000E+00 0. -1.
         25    2    1    2    0    0  0.73956655112E+01  0.68166836547E+02 -0.78846293851E+02  0.16291311826E+03  0.12499012991E+03 0.  0.
          2    1    1    2  501    0 -0.22995277244E+01 -0.38788370193E+02 -0.19245880418E+03  0.19634209125E+03  0.00000000000E+00 0. -1.
          1    1    1    2  502    0 -0.50961377868E+01 -0.29378466354E+02  0.71017715955E+03  0.71080282980E+03  0.00000000000E+00 0. -1.
         22    1    3    3    0    0  0.20788259347E+02 -0.29884936535E+02 -0.45957547705E+02  0.58628980457E+02  0.00000000000E+00 0. -1.
         22    1    3    3    0    0 -0.13392593836E+02  0.98051773083E+02 -0.32888746146E+02  0.10428413780E+03  0.00000000000E+00 0. -1.
</event>
<event>
 7    1  0.6999029E-005  0.1106200E+03  0.7818608E-02  0.1329627E+00
          2   -1    0    0  502    0  0.00000000000E+00  0.00000000000E+00  0.90706569544E+03  0.90706569544E+03  0.00000000000E+00 0. -1.
          1   -1    0    0  501    0 -0.00000000000E+00 -0.00000000000E+00 -0.89640306921E+02  0.89640306921E+02  0.00000000000E+00 0. -1.
         25    2    1    2    0    0  0.11601707743E+03  0.10241448748E+03  0.40477766919E+03  0.45101940256E+03  0.12499940202E+03 0.  0.
          2    1    1    2  501    0 -0.60350830421E+02 -0.87758448007E+02 -0.20727393089E+02  0.10850526602E+03  0.00000000000E+00 0. -1.
          1    1    1    2  502    0 -0.55666247012E+02 -0.14656039475E+02  0.43337511241E+03  0.43718133378E+03  0.00000000000E+00 0. -1.
         22    1    3    3    0    0  0.71976719684E+02  0.89871087361E+02  0.13522233443E+03  0.17760219663E+03  0.00000000000E+00 0.  1.
         22    1    3    3    0    0  0.44040357749E+02  0.12543400121E+02  0.26955533477E+03  0.27341720593E+03  0.00000000000E+00 0.  1.
</event>
<event>
 7    1  0.6999029E-005  0.1800676E+03  0.7818608E-02  0.1175790E+00
          2   -1    0    0  502    0  0.00000000000E+00  0.00000000000E+00  0.49471323287E+03  0.49471323287E+03  0.00000000000E+00 0. -1.
          1   -1    0    0  501    0 -0.00000000000E+00 -0.00000000000E+00 -0.22869331281E+03  0.22869331281E+03  0.00000000000E+00 0. -1.
         25    2    1    2    0    0 -0.23601623872E+03  0.10199842995E+02  0.20556410123E+03  0.33717907047E+03  0.12500169644E+03 0.  0.
          2    1    1    2  501    0  0.11073444641E+03 -0.12133737377E+03 -0.65322767181E+02  0.17678218181E+03  0.00000000000E+00 0. -1.
          1    1    1    2  502    0  0.12528179230E+03  0.11113753077E+03  0.12577858600E+03  0.20944529339E+03  0.00000000000E+00 0. -1.
         22    1    3    3    0    0 -0.15258521089E+03  0.41470586218E+02  0.18922740834E+03  0.24659494758E+03  0.00000000000E+00 0. -1.
         22    1    3    3    0    0 -0.83431027826E+02 -0.31270743224E+02  0.16336692894E+02  0.90584122895E+02  0.00000000000E+00 0. -1.
</event>
<event>
 7    1  0.6999029E-005  0.8579272E+02  0.7818608E-02  0.1352938E+00
          2   -1    0    0  502    0  0.00000000000E+00  0.00000000000E+00  0.10285401599E+04  0.10285401599E+04  0.00000000000E+00 0. -1.
          1   -1    0    0  501    0 -0.00000000000E+00 -0.00000000000E+00 -0.54618114872E+03  0.54618114872E+03  0.00000000000E+00 0. -1.
         25    2    1    2    0    0 -0.91083416900E+02  0.86580847946E+01  0.38877811411E+02  0.15973234253E+03  0.12502714011E+03 0.  0.
          2    1    1    2  501    0  0.60864424166E+02 -0.61270175220E+02 -0.48091287429E+03  0.48860587917E+03  0.00000000000E+00 0. -1.
          1    1    1    2  502    0  0.30218992733E+02  0.52612090425E+02  0.92439407404E+03  0.92638308690E+03  0.00000000000E+00 0. -1.
         22    1    3    3    0    0 -0.10907963059E+03  0.17836806529E+02 -0.58197904995E+01  0.11068146836E+03  0.00000000000E+00 0.  1.
         22    1    3    3    0    0  0.17996213692E+02 -0.91787217346E+01  0.44697601911E+02  0.49050874167E+02  0.00000000000E+00 0.  1.
</event>
<event>
 7    1  0.6999029E-005  0.7227689E+02  0.7818608E-02  0.1370549E+00
          2   -1    0    0  502    0  0.00000000000E+00  0.00000000000E+00  0.27099415439E+03  0.27099415439E+03  0.00000000000E+00 0. -1.
          1   -1    0    0  501    0 -0.00000000000E+00 -0.00000000000E+00 -0.40622792702E+03  0.40622792702E+03  0.00000000000E+00 0. -1.
         25    2    1    2    0    0 -0.33779883415E+02  0.40591600331E+01 -0.11006884573E+03  0.16999201141E+03  0.12499830334E+03 0.  0.
          2    1    1    2  501    0 -0.15087285113E+02 -0.60276286430E+02 -0.25664548141E+03  0.26406014468E+03  0.00000000000E+00 0. -1.
          1    1    1    2  502    0  0.48867168528E+02  0.56217126397E+02  0.23148055452E+03  0.24316992532E+03  0.00000000000E+00 0. -1.
         22    1    3    3    0    0 -0.23004745872E+02  0.64326305892E+02 -0.57168908217E+02  0.89080727596E+02  0.00000000000E+00 0. -1.
         22    1    3    3    0    0 -0.10775137543E+02 -0.60267145859E+02 -0.52899937513E+02  0.80911283811E+02  0.00000000000E+00 0. -1.
</event>
<event>
 7    1  0.6999029E-005  0.2093934E+03  0.7818608E-02  0.1312052E+00
          2   -1    0    0  502    0  0.00000000000E+00  0.00000000000E+00  0.25543716054E+04  0.25543716054E+04  0.00000000000E+00 0. -1.
          1   -1    0    0  501    0 -0.00000000000E+00 -0.00000000000E+00 -0.55835319398E+02  0.55835319398E+02  0.00000000000E+00 0. -1.
         25    2    1    2    0    0  0.14456740640E+03  0.15384028028E+03  0.26867531571E+03  0.36383928443E+03  0.12500413110E+03 0.  0.
          2    1    1    2  501    0 -0.11311431465E+03 -0.17045769874E+03  0.13152102989E+04  0.13310254714E+04  0.00000000000E+00 0. -1.
          1    1    1    2  502    0 -0.31453091754E+02  0.16617418458E+02  0.91465067137E+03  0.91534216893E+03  0.00000000000E+00 0. -1.
         22    1    3    3    0    0  0.52621921164E+02 -0.11744238704E+02  0.41316749502E+02  0.67926927791E+02  0.00000000000E+00 0. -1.
         22    1    3    3    0    0  0.91945485239E+02  0.16558451898E+03  0.22735856621E+03  0.29591235664E+03  0.00000000000E+00 0. -1.
</event>
<event>
 7    1  0.6999029E-005  0.1025462E+03  0.7818608E-02  0.1314718E+00
          2   -1    0    0  502    0  0.00000000000E+00  0.00000000000E+00  0.18333948207E+04  0.18333948207E+04  0.00000000000E+00 0. -1.
          1   -1    0    0  501    0 -0.00000000000E+00 -0.00000000000E+00 -0.29787872532E+03  0.29787872532E+03  0.00000000000E+00 0. -1.
         25    2    1    2    0    0  0.16688317925E+03  0.25714108174E+02 -0.11432237937E+03  0.23917631298E+03  0.12499796555E+03 0.  0.
          2    1    1    2  501    0 -0.70492384165E+02  0.76889189791E+01 -0.10914538030E+03  0.13015763420E+03  0.00000000000E+00 0. -1.
          1    1    1    2  502    0 -0.96390795088E+02 -0.33403027153E+02  0.17589838551E+04  0.17619395989E+04  0.00000000000E+00 0. -1.
         22    1    3    3    0    0  0.78436129669E+02  0.24382336276E+02  0.13996645330E+02  0.83322450998E+02  0.00000000000E+00 0. -1.
         22    1    3    3    0    0  0.88447049584E+02  0.13317718979E+01 -0.12831902470E+03  0.15585386198E+03  0.00000000000E+00 0. -1.
</event>
<event>
 7    1  0.6999029E-005  0.3984417E+03  0.7818608E-02  0.1200765E+00
          2   -1    0    0  502    0  0.00000000000E+00  0.00000000000E+00  0.72580971729E+03  0.72580971729E+03  0.00000000000E+00 0. -1.
          1   -1    0    0  501    0 -0.00000000000E+00 -0.00000000000E+00 -0.19828096590E+04  0.19828096590E+04  0.00000000000E+00 0. -1.
         25    2    1    2    0    0 -0.38157663055E+03  0.12215590168E+02 -0.12570571410E+04  0.13196845594E+04  0.12499894037E+03 0.  0.
          2    1    1    2  501    0  0.43503158447E+03  0.54280567891E+01 -0.62490739731E+03  0.76144021334E+03  0.00000000000E+00 0. -1.
          1    1    1    2  502    0 -0.53454953926E+02 -0.17643646957E+02  0.62496459661E+03  0.62749460348E+03  0.00000000000E+00 0. -1.
         22    1    3    3    0    0 -0.28735562053E+02 -0.34101132250E+02 -0.17593776284E+03  0.18150128413E+03  0.00000000000E+00 0. -1.
         22    1    3    3    0    0 -0.35284106850E+03  0.46316722418E+02 -0.10811193781E+04  0.11381832753E+04  0.00000000000E+00 0. -1.
</event>
<event>
 7    1  0.6999029E-005  0.1275829E+03  0.7818608E-02  0.1265756E+00
          2   -1    0    0  502    0  0.00000000000E+00  0.00000000000E+00  0.81680780143E+03  0.81680780143E+03  0.00000000000E+00 0. -1.
          1   -1    0    0  501    0 -0.00000000000E+00 -0.00000000000E+00 -0.50315423719E+03  0.50315423719E+03  0.00000000000E+00 0. -1.
         25    2    1    2    0    0  0.86895907214E+02 -0.15023506601E+03  0.34849464379E+03  0.40889554345E+03  0.12500229981E+03 0.  0.
          2    1    1    2  501    0  0.15464294249E+02  0.88815153244E+02 -0.46036840203E+03  0.46911229086E+03  0.00000000000E+00 0. -1.
          1    1    1    2  502    0 -0.10236020146E+03  0.61419912762E+02  0.42552732248E+03  0.44195420431E+03  0.00000000000E+00 0. -1.
         22    1    3    3    0    0  0.75617462427E+02 -0.41314183086E+02  0.74788378240E+02  0.11409716854E+03  0.00000000000E+00 0. -1.
         22    1    3    3    0    0  0.11278444787E+02 -0.10892088292E+03  0.27370626555E+03  0.29479837492E+03  0.00000000000E+00 0. -1.
</event>
<event>
 7    1  0.6999029E-005  0.2084306E+03  0.7818608E-02  0.1176948E+00
          2   -1    0    0  502    0  0.00000000000E+00  0.00000000000E+00  0.11246070749E+04  0.11246070749E+04  0.00000000000E+00 0. -1.
          1   -1    0    0  501    0 -0.00000000000E+00 -0.00000000000E+00 -0.19952604321E+04  0.19952604321E+04  0.00000000000E+00 0. -1.
         25    2    1    2    0    0  0.32920101860E+03 -0.57663806992E+02  0.17846863816E+03  0.39896595949E+03  0.12499742695E+03 0.  0.
          2    1    1    2  501    0 -0.20592628407E+03 -0.88430262564E+01 -0.18734517387E+04  0.18847560189E+04  0.00000000000E+00 0. -1.
          1    1    1    2  502    0 -0.12327473453E+03  0.66506833248E+02  0.82432974339E+03  0.83614552853E+03  0.00000000000E+00 0. -1.
         22    1    3    3    0    0  0.26140905395E+03 -0.70110891207E+02  0.86699299056E+02  0.28419535360E+03  0.00000000000E+00 0.  1.
         22    1    3    3    0    0  0.67791964650E+02  0.12447084215E+02  0.91769339105E+02  0.11477060589E+03  0.00000000000E+00 0.  1.
</event>
<event>
 7    1  0.6999029E-005  0.2188658E+03  0.7818608E-02  0.1190812E+00
          2   -1    0    0  502    0  0.00000000000E+00  0.00000000000E+00  0.31854235206E+03  0.31854235206E+03  0.00000000000E+00 0. -1.
          1   -1    0    0  501    0 -0.00000000000E+00 -0.00000000000E+00 -0.18317836528E+04  0.18317836528E+04  0.00000000000E+00 0. -1.
         25    2    1    2    0    0  0.14509505725E+03  0.24800524453E+03 -0.14483629725E+02  0.31367620415E+03  0.12499523418E+03 0.  0.
          2    1    1    2  501    0  0.18691586385E+00 -0.11426330485E+03 -0.16072728805E+04  0.16113293426E+04  0.00000000000E+00 0. -1.
          1    1    1    2  502    0 -0.14528197311E+03 -0.13374193968E+03  0.10851520954E+03  0.22532045811E+03  0.00000000000E+00 0. -1.
         22    1    3    3    0    0  0.15581036679E+03  0.24079558373E+03 -0.35511367067E+02  0.28899903241E+03  0.00000000000E+00 0.  1.
         22    1    3    3    0    0 -0.10715309546E+02  0.72096608080E+01  0.21027737342E+02  0.24677171745E+02  0.00000000000E+00 0.  1.
</event>
<event>
 7    1  0.6999029E-005  0.4208276E+02  0.7818608E-02  0.1497341E+00
          2   -1    0    0  502    0  0.00000000000E+00  0.00000000000E+00  0.25950680321E+04  0.25950680321E+04  0.00000000000E+00 0. -1.
          1   -1    0    0  501    0 -0.00000000000E+00 -0.00000000000E+00 -0.90030782077E+02  0.90030782077E+02  0.00000000000E+00 0. -1.
         25    2    1    2    0    0 -0.42517007766E+02 -0.32931142424E+02  0.16263532998E+04  0.16320361614E+04  0.12499928048E+03 0.  0.
          2    1    1    2  501    0  0.57164016421E+00  0.40953272469E+02 -0.81878682496E+02  0.91551165725E+02  0.00000000000E+00 0. -1.
          1    1    1    2  502    0  0.41945367602E+02 -0.80221300449E+01  0.96056263268E+03  0.96151148705E+03  0.00000000000E+00 0. -1.
         22    1    3    3    0    0 -0.54246532188E+02 -0.74596707448E+02  0.11732981168E+04  0.11769179350E+04  0.00000000000E+00 0.  1.
         22    1    3    3    0    0  0.11729524421E+02  0.41665565024E+02  0.45305518306E+03  0.45511822635E+03  0.00000000000E+00 0.  1.
</event>
<event>
 7    1  0.6999029E-005  0.5245992E+03  0.7818608E-02  0.1233490E+00
          2   -1    0    0  502    0  0.00000000000E+00  0.00000000000E+00  0.58854618749E+03  0.58854618749E+03  0.00000000000E+00 0. -1.
          1   -1    0    0  501    0 -0.00000000000E+00 -0.00000000000E+00 -0.95957003942E+03  0.95957003942E+03  0.00000000000E+00 0. -1.
         25    2    1    2    0    0 -0.28887916788E+03  0.43312830121E+03  0.13517612195E+03  0.55222053315E+03  0.12499453722E+03 0.  0.
          2    1    1    2  501    0 -0.29075699192E+02 -0.84214330179E+01 -0.46257731035E+03  0.46356669948E+03  0.00000000000E+00 0. -1.
          1    1    1    2  502    0  0.31795486707E+03 -0.42470686819E+03 -0.43622663529E+02  0.53232899429E+03  0.00000000000E+00 0. -1.
         22    1    3    3    0    0 -0.22674672379E+03  0.27335991933E+03  0.13731601128E+03  0.38078262723E+03  0.00000000000E+00 0.  1.
         22    1    3    3    0    0 -0.62132444091E+02  0.15976838189E+03 -0.21398893330E+01  0.17143790592E+03  0.00000000000E+00 0.  1.
</event>
<event>
 7    1  0.6999029E-005  0.3034247E+03  0.7818608E-02  0.1176669E+00
          2   -1    0    0  502    0  0.00000000000E+00  0.00000000000E+00  0.82758187937E+03  0.82758187937E+03  0.00000000000E+00 0. -1.
          1   -1    0    0  501    0 -0.00000000000E+00 -0.00000000000E+00 -0.54337182256E+03  0.54337182256E+03  0.00000000000E+00 0. -1.
         25    2    1    2    0    0 -0.24748240614E+03 -0.23427354620E+03 -0.30147885123E+03  0.47185288862E+03  0.12499605980E+03 0.  0.
          2    1    1    2  501    0  0.21434210010E+03  0.14361878968E+03 -0.44278900607E+02  0.26178142344E+03  0.00000000000E+00 0. -1.
          1    1    1    2  502    0  0.33140306041E+02  0.90654756524E+02  0.62996780865E+03  0.63731938986E+03  0.00000000000E+00 0. -1.
         22    1    3    3    0    0 -0.32149168638E+00 -0.26563363205E+00 -0.46679195211E+02  0.46681058082E+02  0.00000000000E+00 0.  1.
         22    1    3    3    0    0 -0.24716091445E+03 -0.23400791257E+03 -0.25479965602E+03  0.42517183054E+03  0.00000000000E+00 0.  1.
</event>
<event>
 7    1  0.6999029E-005  0.9148972E+02  0.7818608E-02  0.1375114E+00
          2   -1    0    0  502    0  0.00000000000E+00  0.00000000000E+00  0.20509692341E+03  0.20509692341E+03  0.00000000000E+00 0. -1.
          1   -1    0    0  501    0 -0.00000000000E+00 -0.00000000000E+00 -0.24599007221E+03  0.24599007221E+03  0.00000000000E+00 0. -1.
         25    2    1    2    0    0 -0.23487551311E+02  0.13019657200E+03 -0.77518880905E+02  0.19782924752E+03  0.12499768738E+03 0.  0.
          2    1    1    2  501    0 -0.40025754995E+01 -0.47104732105E+02 -0.88632544125E+02  0.10045199986E+03  0.00000000000E+00 0. -1.
          1    1    1    2  502    0  0.27490126810E+02 -0.83091839898E+02  0.12525827624E+03  0.15280574824E+03  0.00000000000E+00 0. -1.
         22    1    3    3    0    0 -0.37660669214E+02  0.10963099757E+03 -0.10799197145E+03  0.15842836719E+03  0.00000000000E+00 0. -1.
         22    1    3    3    0    0  0.14173117903E+02  0.20565574436E+02  0.30473090549E+02  0.39400880327E+02  0.00000000000E+00 0. -1.
</event>
<event>
 7    1  0.6999029E-005  0.8732599E+02  0.7818608E-02  0.1370091E+00
          2   -1    0    0  502    0  0.00000000000E+00  0.00000000000E+00  0.21869594829E+04  0.21869594829E+04  0.00000000000E+00 0. -1.
          1   -1    0    0  501    0 -0.00000000000E+00 -0.00000000000E+00 -0.37011370035E+02  0.37011370035E+02  0.00000000000E+00 0. -1.
         25    2    1    2    0    0 -0.31573460089E+02  0.13149374747E+03  0.56334249933E+03  0.59267861770E+03  0.12500273329E+03 0.  0.
          2    1    1    2  501    0  0.96374602102E+01 -0.50715460784E+02  0.10144297214E+02  0.52610316173E+02  0.00000000000E+00 0. -1.
          1    1    1    2  502    0  0.21935999879E+02 -0.80778286688E+02  0.15764613163E+04  0.15786819191E+04  0.00000000000E+00 0. -1.
         22    1    3    3    0    0  0.35649344025E+02  0.51906756264E+02  0.10323183139E+03  0.12092145420E+03  0.00000000000E+00 0.  1.
         22    1    3    3    0    0 -0.67222804114E+02  0.79586991208E+02  0.46011066794E+03  0.47175716350E+03  0.00000000000E+00 0.  1.
</event>
<event>
 7    1  0.6999029E-005  0.1985388E+03  0.7818608E-02  0.1255656E+00
          2   -1    0    0  502    0  0.00000000000E+00  0.00000000000E+00  0.14348105349E+04  0.14348105349E+04  0.00000000000E+00 0. -1.
          1   -1    0    0  501    0 -0.00000000000E+00 -0.00000000000E+00 -0.27578761640E+04  0.27578761640E+04  0.00000000000E+00 0. -1.
         25    2    1    2    0    0  0.14420115373E+03 -0.12996185598E+03  0.89484777371E+03  0.92415488790E+03  0.12500264782E+03 0.  0.
          2    1    1    2  501    0  0.47487336701E+02  0.42861507248E+02 -0.27217341267E+04  0.27224857781E+04  0.00000000000E+00 0. -1.
          1    1    1    2  502    0 -0.19168849043E+03  0.87100348735E+02  0.50382072389E+03  0.54604603279E+03  0.00000000000E+00 0. -1.
         22    1    3    3    0    0  0.16418158080E+03 -0.12483668098E+03  0.85187654071E+03  0.87648926348E+03  0.00000000000E+00 0. -1.
         22    1    3    3    0    0 -0.19980427076E+02 -0.51251750068E+01  0.42971233005E+02  0.47665624416E+02  0.00000000000E+00 0. -1.
</event>
<event>
 7    1  0.6999029E-005  0.4646593E+03  0.7818608E-02  0.1151903E+00
          2   -1    0    0  502    0  0.00000000000E+00  0.00000000000E+00  0.13453314982E+04  0.13453314982E+04  0.00000000000E+00 0. -1.
          1   -1    0    0  501    0 -0.00000000000E+00 -0.00000000000E+00 -0.10795261672E+04  0.10795261672E+04  0.00000000000E+00 0. -1.
         25    2    1    2    0    0  0.13644763629E+03  0.47372167984E+03 -0.71431819029E+03  0.87687398455E+03  0.12500928127E+03 0.  0.
          2    1    1    2  501    0 -0.93024844601E+02 -0.40192285319E+03 -0.13165308711E+03  0.43304519045E+03  0.00000000000E+00 0. -1.
          1    1    1    2  502    0 -0.43422791691E+02 -0.71798826643E+02  0.11117766084E+04  0.11149384904E+04  0.00000000000E+00 0. -1.
         22    1    3    3    0    0 -0.15642387044E+02  0.61619602809E+02 -0.14056421299E+03  0.15427234910E+03  0.00000000000E+00 0.  1.
         22    1    3    3    0    0  0.15209002334E+03  0.41210207703E+03 -0.57375397730E+03  0.72260163545E+03  0.00000000000E+00 0.  1.
</event>
<event>
 7    1  0.6999029E-005  0.2954070E+03  0.7818608E-02  0.1138893E+00
          2   -1    0    0  502    0  0.00000000000E+00  0.00000000000E+00  0.20599648978E+04  0.20599648978E+04  0.00000000000E+00 0. -1.
          1   -1    0    0  501    0 -0.00000000000E+00 -0.00000000000E+00 -0.59976743155E+03  0.59976743155E+03  0.00000000000E+00 0. -1.
         25    2    1    2    0    0 -0.20431047829E+02  0.37686572412E+03  0.78196728344E+03  0.87723599843E+03  0.12499985133E+03 0.  0.
          2    1    1    2  501    0 -0.96537795076E+02 -0.27642726214E+03 -0.50797217713E+03  0.58631673170E+03  0.00000000000E+00 0. -1.
          1    1    1    2  502    0  0.11696884291E+03 -0.10043846198E+03  0.11862023599E+04  0.11961795992E+04  0.00000000000E+00 0. -1.
         22    1    3    3    0    0  0.29029598920E+01  0.17089787151E+03  0.22228701128E+03  0.28040332567E+03  0.00000000000E+00 0.  1.
         22    1    3    3    0    0 -0.23334007721E+02  0.20596785261E+03  0.55968027216E+03  0.59683267276E+03  0.00000000000E+00 0.  1.
</event>
<event>
 7    1  0.6999029E-005  0.1674757E+03  0.7818608E-02  0.1259318E+00
          2   -1    0    0  502    0  0.00000000000E+00  0.00000000000E+00  0.23397359728E+03  0.23397359728E+03  0.00000000000E+00 0. -1.
          1   -1    0    0  501    0 -0.00000000000E+00 -0.00000000000E+00 -0.85141169792E+03  0.85141169792E+03  0.00000000000E+00 0. -1.
         25    2    1    2    0    0  0.21685126680E+03  0.49514118251E+01 -0.43048529144E+02  0.25402131843E+03  0.12499866384E+03 0.  0.
          2    1    1    2  501    0 -0.66149923066E+02 -0.31211619774E+02 -0.65457558011E+03  0.65864950285E+03  0.00000000000E+00 0. -1.
          1    1    1    2  502    0 -0.15070134374E+03  0.26260207949E+02  0.80186008608E+02  0.17271447392E+03  0.00000000000E+00 0. -1.
         22    1    3    3    0    0  0.19993220679E+03 -0.35560237856E+02 -0.51066451554E+02  0.20939245522E+03  0.00000000000E+00 0.  1.
         22    1    3    3    0    0  0.16919060009E+02  0.40511649681E+02  0.80179224105E+01  0.44628863208E+02  0.00000000000E+00 0.  1.
</event>
<event>
 7    1  0.6999029E-005  0.1783583E+03  0.7818608E-02  0.1245901E+00
          2   -1    0    0  502    0  0.00000000000E+00  0.00000000000E+00  0.29917534120E+03  0.29917534120E+03  0.00000000000E+00 0. -1.
          1   -1    0    0  501    0 -0.00000000000E+00 -0.00000000000E+00 -0.69977001194E+03  0.69977001194E+03  0.00000000000E+00 0. -1.
         25    2    1    2    0    0 -0.17055421709E+03 -0.78951768650E+02 -0.63715537259E+02  0.23453876476E+03  0.12500655881E+03 0.  0.
          2    1    1    2  501    0  0.17919867397E+03  0.94270540970E+00 -0.52811540482E+03  0.55769071559E+03  0.00000000000E+00 0. -1.
          1    1    1    2  502    0 -0.86444568804E+01  0.78009063241E+02  0.19123627135E+03  0.20671587279E+03  0.00000000000E+00 0. -1.
         22    1    3    3    0    0 -0.10682864664E+03 -0.23473164734E+02 -0.94567806081E+02  0.14459052235E+03  0.00000000000E+00 0.  1.
         22    1    3    3    0    0 -0.63725570445E+02 -0.55478603916E+02  0.30852268822E+02  0.89948242409E+02  0.00000000000E+00 0.  1.
</event>
<event>
 7    1  0.6999029E-005  0.1092004E+04  0.7818608E-02  0.1168197E+00
          2   -1    0    0  502    0  0.00000000000E+00  0.00000000000E+00  0.23531111528E+04  0.23531111528E+04  0.00000000000E+00 0. -1.
          1   -1    0    0  501    0 -0.00000000000E+00 -0.00000000000E+00 -0.75688110123E+03  0.75688110123E+03  0.00000000000E+00 0. -1.
         25    2    1    2    0    0  0.57804225525E+03 -0.94187270890E+03  0.10322441194E+04  0.15173688252E+04  0.12499272355E+03 0.  0.
          2    1    1    2  501    0 -0.56761581222E+01  0.28985861750E+02 -0.24404134466E+03  0.24582224646E+03  0.00000000000E+00 0. -1.
          1    1    1    2  502    0 -0.57236609713E+03  0.91288684715E+03  0.80802727688E+03  0.13468011824E+04  0.00000000000E+00 0. -1.
         22    1    3    3    0    0  0.23434685664E+03 -0.50043331672E+03  0.52334624852E+03  0.76108031741E+03  0.00000000000E+00 0.  1.
         22    1    3    3    0    0  0.34369539861E+03 -0.44143939217E+03  0.50889787086E+03  0.75628850775E+03  0.00000000000E+00 0.  1.
</event>
<event>
 7    1  0.6999029E-005  0.2648135E+03  0.7818608E-02  0.1215391E+00
          2   -1    0    0  502    0  0.00000000000E+00  0.00000000000E+00  0.12652373821E+04  0.12652373821E+04  0.00000000000E+00 0. -1.
          1   -1    0    0  501    0 -0.00000000000E+00 -0.00000000000E+00 -0.13643858797E+03  0.13643858797E+03  0.00000000000E+00 0. -1.
         25    2    1    2    0    0  0.10437401991E+03  0.28831893737E+03  0.35156558029E+03  0.48295446703E+03  0.12499965722E+03 0.  0.
          2    1    1    2  501    0 -0.51963687900E+02 -0.23834938184E+03  0.14799442248E+03  0.28532963703E+03  0.00000000000E+00 0. -1.
          1    1    1    2  502    0 -0.52410332012E+02 -0.49969555529E+02  0.62923879136E+03  0.63339186602E+03  0.00000000000E+00 0. -1.
         22    1    3    3    0    0  0.90753331408E+02  0.26347030778E+03  0.23975017352E+03  0.36760429261E+03  0.00000000000E+00 0.  1.
         22    1    3    3    0    0  0.13620688504E+02  0.24848629586E+02  0.11181540677E+03  0.11535017442E+03  0.00000000000E+00 0.  1.
</event>
<event>
 7    1  0.6999029E-005  0.2442088E+03  0.7818608E-02  0.1268200E+00
          2   -1    0    0  502    0  0.00000000000E+00  0.00000000000E+00  0.85795430541E+03  0.85795430541E+03  0.00000000000E+00 0. -1.
          1   -1    0    0  501    0 -0.00000000000E+00 -0.00000000000E+00 -0.13541563627E+04  0.13541563627E+04  0.00000000000E+00 0. -1.
         25    2    1    2    0    0 -0.26914734857E+03 -0.92516226093E+02 -0.15648562638E+03  0.34801040614E+03  0.12499577667E+03 0.  0.
          2    1    1    2  501    0  0.22469054162E+03  0.80729032883E+02 -0.10882614425E+04  0.11141436099E+04  0.00000000000E+00 0. -1.
          1    1    1    2  502    0  0.44456806951E+02  0.11787193210E+02  0.74854501160E+03  0.74995665208E+03  0.00000000000E+00 0. -1.
         22    1    3    3    0    0  0.41599673021E+01  0.34344123954E+00  0.12742810515E+02  0.13409045442E+02  0.00000000000E+00 0.  1.
         22    1    3    3    0    0 -0.27330731587E+03 -0.92859667333E+02 -0.16922843689E+03  0.33460136069E+03  0.00000000000E+00 0.  1.
</event>
<event>
 7    1  0.6999029E-005  0.1145246E+03  0.7818608E-02  0.1367151E+00
          2   -1    0    0  502    0  0.00000000000E+00  0.00000000000E+00  0.62412816421E+03  0.62412816421E+03  0.00000000000E+00 0. -1.
          1   -1    0    0  501    0 -0.00000000000E+00 -0.00000000000E+00 -0.41202049866E+03  0.41202049866E+03  0.00000000000E+00 0. -1.
         25    2    1    2    0    0 -0.42622336242E+02  0.11028549182E+03 -0.14111823689E+02  0.17263865300E+03  0.12500163075E+03 0.  0.
          2    1    1    2  501    0  0.25439027632E+01 -0.11482450236E+03 -0.30751014432E+03  0.32825847536E+03  0.00000000000E+00 0. -1.
          1    1    1    2  502    0  0.40078433479E+02  0.45390105399E+01  0.53372963357E+03  0.53525153451E+03  0.00000000000E+00 0. -1.
         22    1    3    3    0    0  0.12096603966E+02  0.37153610202E+02 -0.59080129354E+02  0.70832056747E+02  0.00000000000E+00 0. -1.
         22    1    3    3    0    0 -0.54718940208E+02  0.73131881615E+02  0.44968305665E+02  0.10180659625E+03  0.00000000000E+00 0. -1.
</event>
<event>
 7    1  0.6999029E-005  0.1797946E+03  0.7818608E-02  0.1292284E+00
          2   -1    0    0  502    0  0.00000000000E+00  0.00000000000E+00  0.42328235576E+03  0.42328235576E+03  0.00000000000E+00 0. -1.
          1   -1    0    0  501    0 -0.00000000000E+00 -0.00000000000E+00 -0.39243783181E+03  0.39243783181E+03  0.00000000000E+00 0. -1.
         25    2    1    2    0    0  0.18608057790E+03  0.11931843559E+03 -0.17323548870E+03  0.30740598122E+03  0.12500012880E+03 0.  0.
          2    1    1    2  501    0 -0.48873417971E+02 -0.89115677277E+01 -0.12531055853E+03  0.13479897293E+03  0.00000000000E+00 0. -1.
          1    1    1    2  502    0 -0.13720715993E+03 -0.11040686786E+03  0.32939057120E+03  0.37351523342E+03  0.00000000000E+00 0. -1.
         22    1    3    3    0    0  0.38638158224E+02 -0.16908196625E+02  0.11395124565E+00  0.42175909818E+02  0.00000000000E+00 0.  1.
         22    1    3    3    0    0  0.14744241967E+03  0.13622663221E+03 -0.17334943995E+03  0.26523007140E+03  0.00000000000E+00 0.  1.
</event>
<event>
 7    1  0.6999029E-005  0.1987249E+03  0.7818608E-02  0.1169414E+00
          2   -1    0    0  502    0  0.00000000000E+00  0.00000000000E+00  0.29041256239E+03  0.29041256239E+03  0.00000000000E+00 0. -1.
          1   -1    0    0  501    0 -0.00000000000E+00 -0.00000000000E+00 -0.70964949523E+03  0.70964949523E+03  0.00000000000E+00 0. -1.
         25    2    1    2    0    0  0.12738116056E+03 -0.11944700023E+03  0.12141410687E+03  0.24669879254E+03  0.12500145185E+03 0.  0.
          2    1    1    2  501    0  0.68266215184E+01  0.20666171435E+03 -0.55538663692E+03  0.59262971864E+03  0.00000000000E+00 0. -1.
          1    1    1    2  502    0 -0.13420778208E+03 -0.87214714119E+02  0.14735597206E+02  0.16073354645E+03  0.00000000000E+00 0. -1.
         22    1    3    3    0    0  0.11667106929E+02  0.51493716337E+00  0.71874750396E+02  0.72817348818E+02  0.00000000000E+00 0. -1.
         22    1    3    3    0    0  0.11571405363E+03 -0.11996193740E+03  0.49539356478E+02  0.17388144372E+03  0.00000000000E+00 0. -1.
</event>
<event>
 7    1  0.6999029E-005  0.2404329E+03  0.7818608E-02  0.1209646E+00
          2   -1    0    0  502    0  0.00000000000E+00  0.00000000000E+00  0.71392267259E+02  0.71392267259E+02  0.00000000000E+00 0. -1.
          1   -1    0    0  501    0 -0.00000000000E+00 -0.00000000000E+00 -0.16227371550E+04  0.16227371550E+04  0.00000000000E+00 0. -1.
         25    2    1    2    0    0  0.10149216818E+02  0.21761573420E+03 -0.27752205514E+03  0.37430246286E+03  0.12499691293E+03 0.  0.
          2    1    1    2  501    0  0.71751257973E+02 -0.23952670963E+03 -0.10747437845E+04  0.11034470944E+04  0.00000000000E+00 0. -1.
          1    1    1    2  502    0 -0.81900474791E+02  0.21910975425E+02 -0.19907904802E+03  0.21637986499E+03  0.00000000000E+00 0. -1.
         22    1    3    3    0    0  0.45072242357E+02  0.21081159788E+03 -0.23708104267E+03  0.32043791540E+03  0.00000000000E+00 0. -1.
         22    1    3    3    0    0 -0.34923025539E+02  0.68041363217E+01 -0.40441012471E+02  0.53864547465E+02  0.00000000000E+00 0. -1.
</event>
<event>
 7    1  0.6999029E-005  0.6023409E+03  0.7818608E-02  0.1133718E+00
          2   -1    0    0  502    0  0.00000000000E+00  0.00000000000E+00  0.80492098938E+03  0.80492098938E+03  0.00000000000E+00 0. -1.
          1   -1    0    0  501    0 -0.00000000000E+00 -0.00000000000E+00 -0.90998618640E+03  0.90998618640E+03  0.00000000000E+00 0. -1.
         25    2    1    2    0    0 -0.63884238633E+03 -0.10179062686E+03  0.26839202269E+03  0.71143510370E+03  0.12499881058E+03 0.  0.
          2    1    1    2  501    0  0.59002446031E+03  0.37762917430E+02 -0.55121653039E+03  0.80832825330E+03  0.00000000000E+00 0. -1.
          1    1    1    2  502    0  0.48817926018E+02  0.64027709426E+02  0.17775931068E+03  0.19514381878E+03  0.00000000000E+00 0. -1.
         22    1    3    3    0    0 -0.45900101338E+03 -0.30763002028E+02  0.14620583021E+03  0.48270533181E+03  0.00000000000E+00 0. -1.
         22    1    3    3    0    0 -0.17984137295E+03 -0.71027624827E+02  0.12218619248E+03  0.22872977188E+03  0.00000000000E+00 0. -1.
</event>
<event>
 7    1  0.6999029E-005  0.9529893E+02  0.7818608E-02  0.1303879E+00
          2   -1    0    0  502    0  0.00000000000E+00  0.00000000000E+00  0.18327575019E+04  0.18327575019E+04  0.00000000000E+00 0. -1.
          1   -1    0    0  501    0 -0.00000000000E+00 -0.00000000000E+00 -0.10046110888E+03  0.10046110888E+03  0.00000000000E+00 0. -1.
         25    2    1    2    0    0  0.66479073996E+02  0.12110440610E+03  0.10087698758E+04  0.10258300819E+04  0.12499980008E+03 0.  0.
          2    1    1    2  501    0 -0.86382278822E+02 -0.39291958413E+02 -0.64585661707E+02  0.11479139248E+03  0.00000000000E+00 0. -1.
          1    1    1    2  502    0  0.19903204826E+02 -0.81812447691E+02  0.78811217891E+03  0.79259713645E+03  0.00000000000E+00 0. -1.
         22    1    3    3    0    0 -0.45350577069E+01 -0.22887597201E+02  0.81944734785E+02  0.85201809916E+02  0.00000000000E+00 0.  1.
         22    1    3    3    0    0  0.71014131703E+02  0.14399200331E+03  0.92682514103E+03  0.94062827194E+03  0.00000000000E+00 0.  1.
</event>
<event>
 7    1  0.6999029E-005  0.1973720E+03  0.7818608E-02  0.1184581E+00
          2   -1    0    0  502    0  0.00000000000E+00  0.00000000000E+00  0.16522375424E+04  0.16522375424E+04  0.00000000000E+00 0. -1.
          1   -1    0    0  501    0 -0.00000000000E+00 -0.00000000000E+00 -0.21099870627E+03  0.21099870627E+03  0.00000000000E+00 0. -1.
         25    2    1    2    0    0 -0.99446388492E+02 -0.28106228986E+03  0.42997486472E+03  0.53794406632E+03  0.12497935521E+03 0.  0.
          2    1    1    2  501    0  0.95983476281E+02  0.96028850031E+02 -0.11865693218E+03  0.18031593194E+03  0.00000000000E+00 0. -1.
          1    1    1    2  502    0  0.34629122106E+01  0.18503343983E+03  0.11299209036E+04  0.11449762504E+04  0.00000000000E+00 0. -1.
         22    1    3    3    0    0 -0.71951352794E+02 -0.26892993413E+03  0.32100161660E+03  0.42490274711E+03  0.00000000000E+00 0. -1.
         22    1    3    3    0    0 -0.27495035697E+02 -0.12132355737E+02  0.10897324812E+03  0.11304131921E+03  0.00000000000E+00 0. -1.
</event>
<event>
 7    1  0.6999029E-005  0.2840527E+03  0.7818608E-02  0.1109465E+00
          2   -1    0    0  502    0  0.00000000000E+00  0.00000000000E+00  0.33019433783E+03  0.33019433783E+03  0.00000000000E+00 0. -1.
          1   -1    0    0  501    0 -0.00000000000E+00 -0.00000000000E+00 -0.20100153283E+04  0.20100153283E+04  0.00000000000E+00 0. -1.
         25    2    1    2    0    0 -0.24662460959E+03  0.36322279533E+03 -0.17426313906E+03  0.48861733500E+03  0.12499904529E+03 0.  0.
          2    1    1    2  501    0  0.40244301598E+02 -0.22749624567E+03 -0.15774922778E+04  0.15943199278E+04  0.00000000000E+00 0. -1.
          1    1    1    2  502    0  0.20638030799E+03 -0.13572654966E+03  0.71934426419E+02  0.25727240333E+03  0.00000000000E+00 0. -1.
         22    1    3    3    0    0 -0.12774415653E+03  0.24257666785E+03 -0.16280806810E+03  0.31885494563E+03  0.00000000000E+00 0. -1.
         22    1    3    3    0    0 -0.11888045306E+03  0.12064612748E+03 -0.11455070966E+02  0.16976238937E+03  0.00000000000E+00 0. -1.
</event>
<event>
 7    1  0.6999029E-005  0.1858155E+03  0.7818608E-02  0.1217122E+00
          2   -1    0    0  502    0  0.00000000000E+00  0.00000000000E+00  0.10567725840E+04  0.10567725840E+04  0.00000000000E+00 0. -1.
          1   -1    0    0  501    0 -0.00000000000E+00 -0.00000000000E+00 -0.29903167731E+03  0.29903167731E+03  0.00000000000E+00 0. -1.
         25    2    1    2    0    0 -0.22471605185E+03  0.39501144242E+02  0.55735047207E+03  0.61507846649E+03  0.12499730742E+03 0.  0.
          2    1    1    2  501    0  0.60607755069E+02 -0.81207345839E+02 -0.24451939945E+03  0.26468409416E+03  0.00000000000E+00 0. -1.
          1    1    1    2  502    0  0.16410829678E+03  0.41706201596E+02  0.44490983412E+03  0.47604170071E+03  0.00000000000E+00 0. -1.
         22    1    3    3    0    0 -0.23757175145E+03  0.43533549819E+02  0.48879926466E+03  0.54521576296E+03  0.00000000000E+00 0.  1.
         22    1    3    3    0    0  0.12855699595E+02 -0.40324055765E+01  0.68551207413E+02  0.69862703530E+02  0.00000000000E+00 0.  1.
</event>
<event>
 7    1  0.6999029E-005  0.2678722E+03  0.7818608E-02  0.1232485E+00
          2   -1    0    0  502    0  0.00000000000E+00  0.00000000000E+00  0.25568261362E+04  0.25568261362E+04  0.00000000000E+00 0. -1.
          1   -1    0    0  501    0 -0.00000000000E+00 -0.00000000000E+00 -0.20035808992E+04  0.20035808992E+04  0.00000000000E+00 0. -1.
         25    2    1    2    0    0  0.29516326708E+03 -0.87053594166E+02  0.15742799106E+03  0.36757025410E+03  0.12499854733E+03 0.  0.
          2    1    1    2  501    0 -0.24130947564E+03  0.11327270398E+03 -0.18887578358E+04  0.19074766397E+04  0.00000000000E+00 0. -1.
          1    1    1    2  502    0 -0.53853791444E+02 -0.26219109816E+02  0.22845750818E+04  0.22853601417E+04  0.00000000000E+00 0. -1.
         22    1    3    3    0    0  0.11064322213E+03 -0.32186457154E+02  0.12901180316E+03  0.17297958256E+03  0.00000000000E+00 0. -1.
         22    1    3    3    0    0  0.18452004496E+03 -0.54867137013E+02  0.28416187899E+02  0.19459067154E+03  0.00000000000E+00 0. -1.
</event>
<event>
 7    1  0.6999029E-005  0.7169853E+02  0.7818608E-02  0.1432514E+00
          2   -1    0    0  502    0  0.00000000000E+00  0.00000000000E+00  0.73939350951E+03  0.73939350951E+03  0.00000000000E+00 0. -1.
          1   -1    0    0  501    0 -0.00000000000E+00 -0.00000000000E+00 -0.99761354329E+03  0.99761354329E+03  0.00000000000E+00 0. -1.
         25    2    1    2    0    0  0.44000065136E+02  0.47455183494E+02 -0.34938010780E+03  0.37667038186E+03  0.12500446660E+03 0.  0.
          2    1    1    2  501    0 -0.71249693094E+02 -0.20425446427E+02 -0.63191329939E+03  0.63624534228E+03  0.00000000000E+00 0. -1.
          1    1    1    2  502    0  0.27249627957E+02 -0.27029737067E+02  0.72307337341E+03  0.72409132866E+03  0.00000000000E+00 0. -1.
         22    1    3    3    0    0 -0.89639432648E+00 -0.21611105714E+02 -0.23347018904E+03  0.23446998226E+03  0.00000000000E+00 0. -1.
         22    1    3    3    0    0  0.44896459463E+02  0.69066289208E+02 -0.11590991876E+03  0.14220039960E+03  0.00000000000E+00 0. -1.
</event>
<event>
 7    1  0.7003916E-005  0.1605930E+03  0.7818608E-02  0.1283466E+00
          2   -1    0    0  502    0  0.00000000000E+00  0.00000000000E+00  0.89522313046E+03  0.89522313046E+03  0.00000000000E+00 0. -1.
          1   -1    0    0  501    0 -0.00000000000E+00 -0.00000000000E+00 -0.11656126418E+04  0.11656126418E+04  0.00000000000E+00 0. -1.
         25    2    1    2    0    0 -0.13829083055E+03  0.52045150127E+02 -0.21441730428E+03  0.28884683707E+03  0.12499865378E+03 0.  0.
          2    1    1    2  501    0 -0.22959176527E+02 -0.55892552295E+02 -0.90538416736E+03  0.90739825418E+03  0.00000000000E+00 0. -1.
          1    1    1    2  502    0  0.16125000707E+03  0.38474021677E+01  0.84941196032E+03  0.86459068097E+03  0.00000000000E+00 0. -1.
         22    1    3    3    0    0 -0.10270866660E+03  0.55798519818E+02 -0.62051578891E+02  0.13233647816E+03  0.00000000000E+00 0. -1.
         22    1    3    3    0    0 -0.35582163948E+02 -0.37533696911E+01 -0.15236572538E+03  0.15651035891E+03  0.00000000000E+00 0. -1.
</event>
<event>
 7    1  0.6999029E-005  0.3169533E+03  0.7818608E-02  0.1174084E+00
          2   -1    0    0  502    0  0.00000000000E+00  0.00000000000E+00  0.41288584932E+04  0.41288584932E+04  0.00000000000E+00 0. -1.
          1   -1    0    0  501    0 -0.00000000000E+00 -0.00000000000E+00 -0.22023049827E+03  0.22023049827E+03  0.00000000000E+00 0. -1.
         25    2    1    2    0    0 -0.23766428252E+03 -0.18626563553E+03  0.91968859392E+03  0.97602834361E+03  0.12500007829E+03 0.  0.
          2    1    1    2  501    0  0.29977170620E+03  0.11418214975E+03 -0.56854660665E+02  0.32578074161E+03  0.00000000000E+00 0. -1.
          1    1    1    2  502    0 -0.62107423683E+02  0.72083485778E+02  0.30457940617E+04  0.30472799063E+04  0.00000000000E+00 0. -1.
         22    1    3    3    0    0 -0.94455592621E+02 -0.83246090464E+02  0.57723275828E+03  0.59080405194E+03  0.00000000000E+00 0.  1.
         22    1    3    3    0    0 -0.14320868990E+03 -0.10301954506E+03  0.34245583564E+03  0.38522429167E+03  0.00000000000E+00 0.  1.
</event>
<event>
 7    1  0.6999029E-005  0.3752605E+03  0.7818608E-02  0.1133598E+00
          2   -1    0    0  502    0  0.00000000000E+00  0.00000000000E+00  0.15933732880E+04  0.15933732880E+04  0.00000000000E+00 0. -1.
          1   -1    0    0  501    0 -0.00000000000E+00 -0.00000000000E+00 -0.47902975186E+03  0.47902975186E+03  0.00000000000E+00 0. -1.
         25    2    1    2    0    0 -0.11052361021E+03 -0.44946851199E+03  0.73707641684E+03  0.87928582994E+03  0.12499805914E+03 0.  0.
          2    1    1    2  501    0  0.16061126363E+03  0.33012667871E+03 -0.31812636321E+03  0.48578182857E+03  0.00000000000E+00 0. -1.
          1    1    1    2  502    0 -0.50087653423E+02  0.11934183327E+03  0.69539348248E+03  0.70733538132E+03  0.00000000000E+00 0. -1.
         22    1    3    3    0    0 -0.29319190006E+02 -0.49653863984E+02  0.17849659058E+03  0.18757972694E+03  0.00000000000E+00 0.  1.
         22    1    3    3    0    0 -0.81204420202E+02 -0.39981464800E+03  0.55857982626E+03  0.69170610300E+03  0.00000000000E+00 0.  1.
</event>
<event>
 7    1  0.6999029E-005  0.3804914E+03  0.7818608E-02  0.1101015E+00
          2   -1    0    0  502    0  0.00000000000E+00  0.00000000000E+00  0.71982143720E+03  0.71982143720E+03  0.00000000000E+00 0. -1.
          1   -1    0    0  501    0 -0.00000000000E+00 -0.00000000000E+00 -0.14579315979E+04  0.14579315979E+04  0.00000000000E+00 0. -1.
         25    2    1    2    0    0  0.33420903517E+02  0.36606260433E+03 -0.11487767578E+04  0.12126135790E+04  0.12499946190E+03 0.  0.
          2    1    1    2  501    0 -0.20141760541E+03 -0.45953942863E+03 -0.10839557643E+02  0.50185957622E+03  0.00000000000E+00 0. -1.
          1    1    1    2  502    0  0.16799670190E+03  0.93476824298E+02  0.42150615483E+03  0.46327987987E+03  0.00000000000E+00 0. -1.
         22    1    3    3    0    0  0.66625112528E+02  0.24483099162E+03 -0.63814769350E+03  0.68674128957E+03  0.00000000000E+00 0.  1.
         22    1    3    3    0    0 -0.33204209012E+02  0.12123161271E+03 -0.51062906434E+03  0.52587228940E+03  0.00000000000E+00 0.  1.
</event>
<event>
 7    1  0.6999029E-005  0.2653143E+03  0.7818608E-02  0.1147968E+00
          2   -1    0    0  502    0  0.00000000000E+00  0.00000000000E+00  0.66416502726E+03  0.66416502726E+03  0.00000000000E+00 0. -1.
          1   -1    0    0  501    0 -0.00000000000E+00 -0.00000000000E+00 -0.19924105673E+04  0.19924105673E+04  0.00000000000E+00 0. -1.
         25    2    1    2    0    0  0.38894261230E+03 -0.11450297007E+03 -0.91127298824E+03  0.10052015109E+04  0.12499733049E+03 0.  0.
          2    1    1    2  501    0 -0.12941150429E+03  0.83420343478E+02 -0.10003424630E+04  0.10121221934E+04  0.00000000000E+00 0. -1.
          1    1    1    2  502    0 -0.25953110800E+03  0.31082626590E+02  0.58336991127E+03  0.63925189016E+03  0.00000000000E+00 0. -1.
         22    1    3    3    0    0  0.18159681303E+03  0.10961098802E+02 -0.39148436128E+03  0.43169150248E+03  0.00000000000E+00 0. -1.
         22    1    3    3    0    0  0.20734579927E+03 -0.12546406887E+03 -0.51978862697E+03  0.57351000844E+03  0.00000000000E+00 0. -1.
</event>
<event>
 7    1  0.6999029E-005  0.6633845E+03  0.7818608E-02  0.1106661E+00
          2   -1    0    0  502    0  0.00000000000E+00  0.00000000000E+00  0.11264913656E+04  0.11264913656E+04  0.00000000000E+00 0. -1.
          1   -1    0    0  501    0 -0.00000000000E+00 -0.00000000000E+00 -0.14294990353E+04  0.14294990353E+04  0.00000000000E+00 0. -1.
         25    2    1    2    0    0 -0.48932185819E+03 -0.49717237535E+03  0.63685413083E+03  0.95279805666E+03  0.12499880443E+03 0.  0.
          2    1    1    2  501    0  0.38321009156E+02  0.95102372688E+02 -0.99149873633E+03  0.99678618830E+03  0.00000000000E+00 0. -1.
          1    1    1    2  502    0  0.45100084903E+03  0.40207000267E+03  0.51636935844E+02  0.60640615598E+03  0.00000000000E+00 0. -1.
         22    1    3    3    0    0 -0.15013733518E+02 -0.60484179920E+00  0.40864550709E+02  0.43539516905E+02  0.00000000000E+00 0. -1.
         22    1    3    3    0    0 -0.47430812467E+03 -0.49656753356E+03  0.59598958012E+03  0.90925853976E+03  0.00000000000E+00 0. -1.
</event>
<event>
 7    1  0.6999029E-005  0.4648191E+03  0.7818608E-02  0.1126455E+00
          2   -1    0    0  502    0  0.00000000000E+00  0.00000000000E+00  0.12520348421E+04  0.12520348421E+04  0.00000000000E+00 0. -1.
          1   -1    0    0  501    0 -0.00000000000E+00 -0.00000000000E+00 -0.51375686361E+03  0.51375686361E+03  0.00000000000E+00 0. -1.
         25    2    1    2    0    0 -0.20681537257E+03 -0.48093338730E+03  0.18731981540E+03  0.56989571538E+03  0.12499156698E+03 0.  0.
          2    1    1    2  501    0  0.24049713987E+03  0.37195134702E+03 -0.16368466161E+03  0.47220689034E+03  0.00000000000E+00 0. -1.
          1    1    1    2  502    0 -0.33681767308E+02  0.10898204028E+03  0.71464282474E+03  0.72368910003E+03  0.00000000000E+00 0. -1.
         22    1    3    3    0    0 -0.54120747346E+02 -0.12041041517E+03  0.10766094727E+03  0.17034847502E+03  0.00000000000E+00 0. -1.
         22    1    3    3    0    0 -0.15269462522E+03 -0.36052297213E+03  0.79658868124E+02  0.39954724036E+03  0.00000000000E+00 0. -1.
</event>
<event>
 7    1  0.6999029E-005  0.4910896E+02  0.7818608E-02  0.1528802E+00
          2   -1    0    0  502    0  0.00000000000E+00  0.00000000000E+00  0.66790816069E+03  0.66790816069E+03  0.00000000000E+00 0. -1.
          1   -1    0    0  501    0 -0.00000000000E+00 -0.00000000000E+00 -0.13129466136E+03  0.13129466136E+03  0.00000000000E+00 0. -1.
         25    2    1    2    0    0 -0.33715419262E+02  0.21067652364E+02  0.16106427348E+03  0.20771813281E+03  0.12499818812E+03 0.  0.
          2    1    1    2  501    0  0.19490253575E+02 -0.45627409330E+02 -0.10182375163E+03  0.11326873736E+03  0.00000000000E+00 0. -1.
          1    1    1    2  502    0  0.14225165687E+02  0.24559756965E+02  0.47737297748E+03  0.47821595188E+03  0.00000000000E+00 0. -1.
         22    1    3    3    0    0 -0.64374301897E+02  0.50041326487E+02  0.13623237122E+03  0.15876852355E+03  0.00000000000E+00 0. -1.
         22    1    3    3    0    0  0.30658882635E+02 -0.28973674123E+02  0.24831902261E+02  0.48949609258E+02  0.00000000000E+00 0. -1.
</event>
<event>
 7    1  0.6999029E-005  0.8112608E+02  0.7818608E-02  0.1381803E+00
          2   -1    0    0  502    0  0.00000000000E+00  0.00000000000E+00  0.29454984607E+04  0.29454984607E+04  0.00000000000E+00 0. -1.
          1   -1    0    0  501    0 -0.00000000000E+00 -0.00000000000E+00 -0.28303606574E+03  0.28303606574E+03  0.00000000000E+00 0. -1.
         25    2    1    2    0    0 -0.23290845329E+02 -0.11832764030E+03  0.21012311653E+04  0.21083977129E+04  0.12499844569E+03 0.  0.
          2    1    1    2  501    0  0.39753973962E+02  0.70610832875E+02 -0.27279944781E+03  0.28458005357E+03  0.00000000000E+00 0. -1.
          1    1    1    2  502    0 -0.16463128632E+02  0.47716807420E+02  0.83403067738E+03  0.83555675997E+03  0.00000000000E+00 0. -1.
         22    1    3    3    0    0  0.32496830667E+02 -0.56780951787E+02  0.41530944210E+03  0.42043079476E+03  0.00000000000E+00 0. -1.
         22    1    3    3    0    0 -0.55787675996E+02 -0.61546688508E+02  0.16859217232E+04  0.16879669181E+04  0.00000000000E+00 0. -1.
</event>
<event>
 7    1  0.6999029E-005  0.3775268E+03  0.7818608E-02  0.1270847E+00
          2   -1    0    0  502    0  0.00000000000E+00  0.00000000000E+00  0.82846144231E+03  0.82846144231E+03  0.00000000000E+00 0. -1.
          1   -1    0    0  501    0 -0.00000000000E+00 -0.00000000000E+00 -0.61913473150E+03  0.61913473150E+03  0.00000000000E+00 0. -1.
         25    2    1    2    0    0  0.36630707533E+03 -0.23065161827E+02 -0.24948496782E+03  0.46106436645E+03  0.12499890283E+03 0.  0.
          2    1    1    2  501    0 -0.39204229956E+03  0.96998726631E+01 -0.11758109028E+03  0.40941002059E+03  0.00000000000E+00 0. -1.
          1    1    1    2  502    0  0.25735224224E+02  0.13365289164E+02  0.57639276891E+03  0.57712178677E+03  0.00000000000E+00 0. -1.
         22    1    3    3    0    0  0.24195321401E+03 -0.38672680148E+02 -0.22643851978E+03  0.33363353728E+03  0.00000000000E+00 0.  1.
         22    1    3    3    0    0  0.12435386133E+03  0.15607518321E+02 -0.23046448041E+02  0.12743082917E+03  0.00000000000E+00 0.  1.
</event>
<event>
 7    1  0.6999029E-005  0.2348716E+03  0.7818608E-02  0.1268624E+00
          2   -1    0    0  502    0  0.00000000000E+00  0.00000000000E+00  0.17685756581E+04  0.17685756581E+04  0.00000000000E+00 0. -1.
          1   -1    0    0  501    0 -0.00000000000E+00 -0.00000000000E+00 -0.68970885263E+03  0.68970885263E+03  0.00000000000E+00 0. -1.
         25    2    1    2    0    0 -0.19861387167E+03  0.65209625469E+02  0.16007352045E+03  0.29145942333E+03  0.12500119289E+03 0.  0.
          2    1    1    2  501    0 -0.37542796133E+02 -0.29303202921E+02 -0.61384201094E+03  0.61568673336E+03  0.00000000000E+00 0. -1.
          1    1    1    2  502    0  0.23615666781E+03 -0.35906422548E+02  0.15326352960E+04  0.15511383541E+04  0.00000000000E+00 0. -1.
         22    1    3    3    0    0 -0.79984876047E+01  0.45369492015E+02  0.78901656491E+01  0.46739932858E+02  0.00000000000E+00 0. -1.
         22    1    3    3    0    0 -0.19061538407E+03  0.19840133454E+02  0.15218335480E+03  0.24471949047E+03  0.00000000000E+00 0. -1.
</event>
<event>
 7    1  0.6999029E-005  0.1030247E+03  0.7818608E-02  0.1285693E+00
          2   -1    0    0  502    0  0.00000000000E+00  0.00000000000E+00  0.17485744020E+03  0.17485744020E+03  0.00000000000E+00 0. -1.
          1   -1    0    0  501    0 -0.00000000000E+00 -0.00000000000E+00 -0.10666354985E+04  0.10666354985E+04  0.00000000000E+00 0. -1.
         25    2    1    2    0    0 -0.10335308156E+03 -0.14040325933E+03 -0.13903499111E+03  0.25563592381E+03  0.12499624831E+03 0.  0.
          2    1    1    2  501    0  0.79570846086E+02  0.46631515023E+02 -0.84628044107E+03  0.85129113861E+03  0.00000000000E+00 0. -1.
          1    1    1    2  502    0  0.23782235471E+02  0.93771744311E+02  0.93537373855E+02  0.13456587629E+03  0.00000000000E+00 0. -1.
         22    1    3    3    0    0 -0.14954694682E+02 -0.12010779495E+03 -0.58891154337E+02  0.13460198126E+03  0.00000000000E+00 0. -1.
         22    1    3    3    0    0 -0.88398386876E+02 -0.20295464388E+02 -0.80143836774E+02  0.12103394255E+03  0.00000000000E+00 0. -1.
</event>
<event>
 7    1  0.6999029E-005  0.2319086E+03  0.7818608E-02  0.1182974E+00
          2   -1    0    0  502    0  0.00000000000E+00  0.00000000000E+00  0.14095271043E+04  0.14095271043E+04  0.00000000000E+00 0. -1.
          1   -1    0    0  501    0 -0.00000000000E+00 -0.00000000000E+00 -0.77917179496E+03  0.77917179496E+03  0.00000000000E+00 0. -1.
         25    2    1    2    0    0 -0.32457287433E+02 -0.20534958703E+03 -0.40133609938E+03  0.46895371080E+03  0.12499995923E+03 0.  0.
          2    1    1    2  501    0  0.14262170563E+03  0.24663262476E+03 -0.28195980850E+03  0.40083654539E+03  0.00000000000E+00 0. -1.
          1    1    1    2  502    0 -0.11016441820E+03 -0.41283037728E+02  0.13136512172E+04  0.13189086430E+04  0.00000000000E+00 0. -1.
         22    1    3    3    0    0  0.22941347768E+02 -0.17675409150E+03 -0.26932397349E+03  0.32296085985E+03  0.00000000000E+00 0. -1.
         22    1    3    3    0    0 -0.55398635201E+02 -0.28595495531E+02 -0.13201212589E+03  0.14599285095E+03  0.00000000000E+00 0. -1.
</event>
<event>
 7    1  0.6999029E-005  0.3115937E+03  0.7818608E-02  0.1142961E+00
          2   -1    0    0  502    0  0.00000000000E+00  0.00000000000E+00  0.18943172874E+04  0.18943172874E+04  0.00000000000E+00 0. -1.
          1   -1    0    0  501    0 -0.00000000000E+00 -0.00000000000E+00 -0.48009923162E+03  0.48009923162E+03  0.00000000000E+00 0. -1.
         25    2    1    2    0    0  0.16949816327E+03  0.39594861886E+03  0.42144280770E+03  0.61542079221E+03  0.12499510070E+03 0.  0.
          2    1    1    2  501    0 -0.42834558155E+02 -0.13242241920E+03 -0.35424657071E+03  0.38060626550E+03  0.00000000000E+00 0. -1.
          1    1    1    2  502    0 -0.12666360511E+03 -0.26352619966E+03  0.13470218188E+04  0.13783894613E+04  0.00000000000E+00 0. -1.
         22    1    3    3    0    0  0.13646158071E+03  0.38991200304E+03  0.40295857760E+03  0.57708643061E+03  0.00000000000E+00 0. -1.
         22    1    3    3    0    0  0.33036582555E+02  0.60366158152E+01  0.18484230097E+02  0.38334361605E+02  0.00000000000E+00 0. -1.
</event>
<event>
 7    1  0.6999029E-005  0.9778022E+02  0.7818608E-02  0.1396088E+00
          2   -1    0    0  502    0  0.00000000000E+00  0.00000000000E+00  0.42316348356E+02  0.42316348356E+02  0.00000000000E+00 0. -1.
          1   -1    0    0  501    0 -0.00000000000E+00 -0.00000000000E+00 -0.13226213676E+04  0.13226213676E+04  0.00000000000E+00 0. -1.
         25    2    1    2    0    0  0.10968560445E+03  0.87656565819E+01 -0.61632596809E+03  0.63842814334E+03  0.12500010683E+03 0.  0.
          2    1    1    2  501    0 -0.21146749146E+02  0.30764485293E+02 -0.61812487917E+03  0.61925116456E+03  0.00000000000E+00 0. -1.
          1    1    1    2  502    0 -0.88538855300E+02 -0.39530141875E+02 -0.45854172010E+02  0.10725840809E+03  0.00000000000E+00 0. -1.
         22    1    3    3    0    0 -0.19040429193E+02  0.27995550577E+02 -0.17780139029E+03  0.18099619660E+03  0.00000000000E+00 0. -1.
         22    1    3    3    0    0  0.12872603364E+03 -0.19229893995E+02 -0.43852457780E+03  0.45743194674E+03  0.00000000000E+00 0. -1.
</event>
<event>
 7    1  0.6999029E-005  0.2345618E+03  0.7818608E-02  0.1146226E+00
          2   -1    0    0  502    0  0.00000000000E+00  0.00000000000E+00  0.92507401535E+03  0.92507401535E+03  0.00000000000E+00 0. -1.
          1   -1    0    0  501    0 -0.00000000000E+00 -0.00000000000E+00 -0.33472192196E+03  0.33472192196E+03  0.00000000000E+00 0. -1.
         25    2    1    2    0    0  0.28386126325E+03  0.14395903437E+03  0.34100718826E+02  0.34363888937E+03  0.12499362748E+03 0.  0.
          2    1    1    2  501    0 -0.21480703068E+03  0.19888755987E+02 -0.98893286389E+02  0.23731309517E+03  0.00000000000E+00 0. -1.
          1    1    1    2  502    0 -0.69054232567E+02 -0.16384779036E+03  0.65514466095E+03  0.67884395277E+03  0.00000000000E+00 0. -1.
         22    1    3    3    0    0  0.22900297982E+02 -0.21012668636E+02 -0.78830645139E+01  0.32063976625E+02  0.00000000000E+00 0. -1.
         22    1    3    3    0    0  0.26096096527E+03  0.16497170301E+03  0.41983783340E+02  0.31157491274E+03  0.00000000000E+00 0. -1.
</event>
<event>
 7    1  0.6999029E-005  0.2574415E+03  0.7818608E-02  0.1209723E+00
          2   -1    0    0  502    0  0.00000000000E+00  0.00000000000E+00  0.16494836768E+04  0.16494836768E+04  0.00000000000E+00 0. -1.
          1   -1    0    0  501    0 -0.00000000000E+00 -0.00000000000E+00 -0.16873203714E+03  0.16873203714E+03  0.00000000000E+00 0. -1.
         25    2    1    2    0    0 -0.15820450583E+03 -0.18629442460E+03  0.52348130463E+03  0.59109461603E+03  0.12500356195E+03 0.  0.
          2    1    1    2  501    0  0.52330481698E+02 -0.59335048572E+02 -0.10512692950E+03  0.13157050813E+03  0.00000000000E+00 0. -1.
          1    1    1    2  502    0  0.10587402414E+03  0.24562947317E+03  0.10623972645E+04  0.10955505897E+04  0.00000000000E+00 0. -1.
         22    1    3    3    0    0 -0.12876437574E+03 -0.20318655227E+03  0.45611882755E+03  0.51566406151E+03  0.00000000000E+00 0. -1.
         22    1    3    3    0    0 -0.29440130094E+02  0.16892127676E+02  0.67362477076E+02  0.75430554520E+02  0.00000000000E+00 0. -1.
</event>
<event>
 7    1  0.6999029E-005  0.1605091E+03  0.7818608E-02  0.1273945E+00
          2   -1    0    0  502    0  0.00000000000E+00  0.00000000000E+00  0.70161699947E+03  0.70161699947E+03  0.00000000000E+00 0. -1.
          1   -1    0    0  501    0 -0.00000000000E+00 -0.00000000000E+00 -0.30271463258E+03  0.30271463258E+03  0.00000000000E+00 0. -1.
         25    2    1    2    0    0  0.62937034578E+01  0.12353127970E+03  0.47645724923E+02  0.18219777484E+03  0.12500530503E+03 0.  0.
          2    1    1    2  501    0 -0.60958651429E+02 -0.16087305879E+03 -0.20177214754E+03  0.26515674186E+03  0.00000000000E+00 0. -1.
          1    1    1    2  502    0  0.54664947972E+02  0.37341779091E+02  0.55302878951E+03  0.55697711535E+03  0.00000000000E+00 0. -1.
         22    1    3    3    0    0 -0.33315651581E+02  0.56099260824E+02 -0.30161522160E+02  0.71880297191E+02  0.00000000000E+00 0. -1.
         22    1    3    3    0    0  0.39609355039E+02  0.67432018879E+02  0.77807247083E+02  0.11031747765E+03  0.00000000000E+00 0. -1.
</event>
<event>
 7    1  0.6999029E-005  0.9455257E+02  0.7818608E-02  0.1305007E+00
          2   -1    0    0  502    0  0.00000000000E+00  0.00000000000E+00  0.12404973056E+04  0.12404973056E+04  0.00000000000E+00 0. -1.
          1   -1    0    0  501    0 -0.00000000000E+00 -0.00000000000E+00 -0.16551347793E+03  0.16551347793E+03  0.00000000000E+00 0. -1.
         25    2    1    2    0    0  0.13471149105E+03  0.51734131988E+02  0.13624357715E+03  0.23454253691E+03  0.12499713226E+03 0.  0.
          2    1    1    2  501    0 -0.89634094364E+02  0.19136339686E+02 -0.96347353279E+02  0.13297850523E+03  0.00000000000E+00 0. -1.
          1    1    1    2  502    0 -0.45077396687E+02 -0.70870471674E+02  0.10350876038E+04  0.10384897414E+04  0.00000000000E+00 0. -1.
         22    1    3    3    0    0  0.15174965439E+03  0.44869934563E+02  0.83985952967E+02  0.17915052032E+03  0.00000000000E+00 0. -1.
         22    1    3    3    0    0 -0.17038163344E+02  0.68641974248E+01  0.52257624179E+02  0.55392016584E+02  0.00000000000E+00 0. -1.
</event>
<event>
 7    1  0.6999029E-005  0.1338907E+03  0.7818608E-02  0.1308866E+00
          2   -1    0    0  502    0  0.00000000000E+00  0.00000000000E+00  0.13339952781E+03  0.13339952781E+03  0.00000000000E+00 0. -1.
          1   -1    0    0  501    0 -0.00000000000E+00 -0.00000000000E+00 -0.10043466314E+04  0.10043466314E+04  0.00000000000E+00 0. -1.
         25    2    1    2    0    0  0.14824134280E+03  0.19892579533E+01 -0.91680116902E+03  0.93708526073E+03  0.12499979801E+03 0.  0.
          2    1    1    2  501    0 -0.91079020832E+02  0.14164030112E+01 -0.38347199801E+02  0.98832696845E+02  0.00000000000E+00 0. -1.
          1    1    1    2  502    0 -0.57162321968E+02 -0.34056609645E+01  0.84201265238E+02  0.10182820163E+03  0.00000000000E+00 0. -1.
         22    1    3    3    0    0  0.79000113728E+02 -0.83489416151E+01 -0.77379593678E+03  0.77786301787E+03  0.00000000000E+00 0. -1.
         22    1    3    3    0    0  0.69241229071E+02  0.10338199568E+02 -0.14300523224E+03  0.15922224286E+03  0.00000000000E+00 0. -1.
</event>
<event>
 7    1  0.6999029E-005  0.2714187E+03  0.7818608E-02  0.1183404E+00
          2   -1    0    0  502    0  0.00000000000E+00  0.00000000000E+00  0.64929997331E+02  0.64929997331E+02  0.00000000000E+00 0. -1.
          1   -1    0    0  501    0 -0.00000000000E+00 -0.00000000000E+00 -0.36413041903E+04  0.36413041903E+04  0.00000000000E+00 0. -1.
         25    2    1    2    0    0  0.20797715349E+03  0.23690683023E+03 -0.14775192198E+04  0.15159379829E+04  0.12500232189E+03 0.  0.
          2    1    1    2  501    0 -0.10000335090E+03  0.26410943843E+01 -0.17534804917E+04  0.17563318252E+04  0.00000000000E+00 0. -1.
          1    1    1    2  502    0 -0.10797380259E+03 -0.23954792462E+03 -0.34537448146E+03  0.43396437950E+03  0.00000000000E+00 0. -1.
         22    1    3    3    0    0  0.22148635611E+02  0.95619462995E+02 -0.30491123314E+03  0.32031937790E+03  0.00000000000E+00 0. -1.
         22    1    3    3    0    0  0.18582851788E+03  0.14128736724E+03 -0.11726079867E+04  0.11956186050E+04  0.00000000000E+00 0. -1.
</event>
<event>
 7    1  0.6999029E-005  0.9961380E+03  0.7818608E-02  0.1209141E+00
          2   -1    0    0  502    0  0.00000000000E+00  0.00000000000E+00  0.23875224616E+04  0.23875224616E+04  0.00000000000E+00 0. -1.
          1   -1    0    0  501    0 -0.00000000000E+00 -0.00000000000E+00 -0.14264199093E+04  0.14264199093E+04  0.00000000000E+00 0. -1.
         25    2    1    2    0    0 -0.83239711517E+02 -0.10091728797E+04  0.14465639900E+04  0.17701785260E+04  0.12500354402E+03 0.  0.
          2    1    1    2  501    0  0.90693765651E+02  0.98999693789E+03 -0.10690235053E+04  0.14598392210E+04  0.00000000000E+00 0. -1.
          1    1    1    2  502    0 -0.74540541341E+01  0.19175941811E+02  0.58356206763E+03  0.58392462394E+03  0.00000000000E+00 0. -1.
         22    1    3    3    0    0 -0.92029411587E+01 -0.51893230655E+03  0.64812129271E+03  0.83032321596E+03  0.00000000000E+00 0. -1.
         22    1    3    3    0    0 -0.74036770358E+02 -0.49024057315E+03  0.79844269726E+03  0.93985531000E+03  0.00000000000E+00 0. -1.
</event>
<event>
 7    1  0.8351526E-005  0.1627148E+03  0.7818608E-02  0.1205452E+00
          2   -1    0    0  502    0  0.00000000000E+00  0.00000000000E+00  0.81082917624E+03  0.81082917624E+03  0.00000000000E+00 0. -1.
          1   -1    0    0  501    0 -0.00000000000E+00 -0.00000000000E+00 -0.13946924196E+04  0.13946924196E+04  0.00000000000E+00 0. -1.
         25    2    1    2    0    0 -0.28195180776E+03  0.58965550782E+02 -0.35682883318E+03  0.47531563590E+03  0.12499751781E+03 0.  0.
          2    1    1    2  501    0  0.12219667784E+03 -0.47313089460E+02 -0.96560994820E+03  0.97446042945E+03  0.00000000000E+00 0. -1.
          1    1    1    2  502    0  0.15975512992E+03 -0.11652461322E+02  0.73857553805E+03  0.75574553045E+03  0.00000000000E+00 0. -1.
         22    1    3    3    0    0 -0.28596373280E+03  0.38353494974E+02 -0.30730687332E+03  0.42152551695E+03  0.00000000000E+00 0. -1.
         22    1    3    3    0    0  0.40119250394E+01  0.20612055808E+02 -0.49521959866E+02  0.53790118945E+02  0.00000000000E+00 0. -1.
</event>
<event>
 7    1  0.6999029E-005  0.6181102E+02  0.7818608E-02  0.1408913E+00
          2   -1    0    0  502    0  0.00000000000E+00  0.00000000000E+00  0.47841310227E+03  0.47841310227E+03  0.00000000000E+00 0. -1.
          1   -1    0    0  501    0 -0.00000000000E+00 -0.00000000000E+00 -0.24360043955E+03  0.24360043955E+03  0.00000000000E+00 0. -1.
         25    2    1    2    0    0 -0.95445977682E+02  0.41391768859E+02 -0.12710053738E+02  0.16312520964E+03  0.12500030147E+03 0.  0.
          2    1    1    2  501    0  0.42073344946E+02 -0.41497205072E+02 -0.14821821770E+03  0.15956448365E+03  0.00000000000E+00 0. -1.
          1    1    1    2  502    0  0.53372632736E+02  0.10543621233E+00  0.39574093416E+03  0.39932384854E+03  0.00000000000E+00 0. -1.
         22    1    3    3    0    0 -0.12655703800E+02  0.57303690863E+02 -0.43844347865E+02  0.73254396898E+02  0.00000000000E+00 0.  1.
         22    1    3    3    0    0 -0.82790273881E+02 -0.15911922004E+02  0.31134294127E+02  0.89870812737E+02  0.00000000000E+00 0.  1.
</event>
<event>
 7    1  0.6999029E-005  0.2214584E+03  0.7818608E-02  0.1229237E+00
          2   -1    0    0  502    0  0.00000000000E+00  0.00000000000E+00  0.67624344830E+03  0.67624344830E+03  0.00000000000E+00 0. -1.
          1   -1    0    0  501    0 -0.00000000000E+00 -0.00000000000E+00 -0.25739651558E+03  0.25739651558E+03  0.00000000000E+00 0. -1.
         25    2    1    2    0    0 -0.34294413212E+02  0.24347183735E+03  0.51793988336E+03  0.58680623104E+03  0.12500075063E+03 0.  0.
          2    1    1    2  501    0 -0.10350965718E+02 -0.74199410633E+02 -0.14729930077E+03  0.16525670648E+03  0.00000000000E+00 0. -1.
          1    1    1    2  502    0  0.44645378930E+02 -0.16927242672E+03  0.48206350127E+02  0.18157702635E+03  0.00000000000E+00 0. -1.
         22    1    3    3    0    0  0.16738246064E+02 -0.65293842055E+01  0.59368238317E+02  0.62027328334E+02  0.00000000000E+00 0. -1.
         22    1    3    3    0    0 -0.51032659276E+02  0.25000122155E+03  0.45857164504E+03  0.52477890271E+03  0.00000000000E+00 0. -1.
</event>
<event>
 7    1  0.6999029E-005  0.1886576E+03  0.7818608E-02  0.1391586E+00
          2   -1    0    0  502    0  0.00000000000E+00  0.00000000000E+00  0.36660405726E+04  0.36660405726E+04  0.00000000000E+00 0. -1.
          1   -1    0    0  501    0 -0.00000000000E+00 -0.00000000000E+00 -0.15380995745E+03  0.15380995745E+03  0.00000000000E+00 0. -1.
         25    2    1    2    0    0  0.35930863989E+02  0.19152709787E+03  0.48465914290E+02  0.23653191684E+03  0.12499898652E+03 0.  0.
          2    1    1    2  501    0 -0.19711269333E+02 -0.37101423992E+01 -0.55497573315E+02  0.59010845946E+02  0.00000000000E+00 0. -1.
          1    1    1    2  502    0 -0.16219594656E+02 -0.18781695547E+03  0.35192622742E+04  0.35243077673E+04  0.00000000000E+00 0. -1.
         22    1    3    3    0    0  0.57849867204E+02  0.72818075360E+02 -0.23590794987E+02  0.95945843280E+02  0.00000000000E+00 0. -1.
         22    1    3    3    0    0 -0.21919003215E+02  0.11870902251E+03  0.72056709277E+02  0.14058607356E+03  0.00000000000E+00 0. -1.
</event>
<event>
 7    1  0.6999029E-005  0.4303029E+03  0.7818608E-02  0.1283749E+00
          2   -1    0    0  502    0  0.00000000000E+00  0.00000000000E+00  0.25940415676E+04  0.25940415676E+04  0.00000000000E+00 0. -1.
          1   -1    0    0  501    0 -0.00000000000E+00 -0.00000000000E+00 -0.72996901618E+03  0.72996901618E+03  0.00000000000E+00 0. -1.
         25    2    1    2    0    0 -0.28550406422E+03 -0.30203173131E+03  0.48921040733E+03  0.65397997010E+03  0.12500896462E+03 0.  0.
          2    1    1    2  501    0 -0.37792654946E+01 -0.22170929966E+02 -0.62404220953E+03  0.62444736548E+03  0.00000000000E+00 0. -1.
          1    1    1    2  502    0  0.28928332972E+03  0.32420266128E+03  0.19989043536E+04  0.20455832482E+04  0.00000000000E+00 0. -1.
         22    1    3    3    0    0 -0.62351095624E+02 -0.35563498886E+02  0.15949444034E+03  0.17490253880E+03  0.00000000000E+00 0.  1.
         22    1    3    3    0    0 -0.22315296860E+03 -0.26646823243E+03  0.32971596699E+03  0.47907743129E+03  0.00000000000E+00 0.  1.
</event>
<event>
 7    1  0.6999029E-005  0.8377402E+02  0.7818608E-02  0.1348750E+00
          2   -1    0    0  502    0  0.00000000000E+00  0.00000000000E+00  0.40455325349E+04  0.40455325349E+04  0.00000000000E+00 0. -1.
          1   -1    0    0  501    0 -0.00000000000E+00 -0.00000000000E+00 -0.88552501077E+03  0.88552501077E+03  0.00000000000E+00 0. -1.
         25    2    1    2    0    0 -0.57668011599E+00 -0.32987327172E+02 -0.62539088929E+02  0.14361424989E+03  0.12500167524E+03 0.  0.
          2    1    1    2  501    0 -0.52193703577E+02  0.69887515522E+02 -0.77975758195E+03  0.78462114051E+03  0.00000000000E+00 0. -1.
          1    1    1    2  502    0  0.52770383693E+02 -0.36900188350E+02  0.40023041950E+04  0.40028221552E+04  0.00000000000E+00 0. -1.
         22    1    3    3    0    0 -0.21430320984E+02  0.41654566882E+02 -0.50421595145E+01  0.47114594046E+02  0.00000000000E+00 0. -1.
         22    1    3    3    0    0  0.20853640868E+02 -0.74641894054E+02 -0.57496929415E+02  0.96499655841E+02  0.00000000000E+00 0. -1.
</event>
<event>
 7    1  0.6999029E-005  0.1126260E+03  0.7818608E-02  0.1319305E+00
          2   -1    0    0  502    0  0.00000000000E+00  0.00000000000E+00  0.11236067651E+04  0.11236067651E+04  0.00000000000E+00 0. -1.
          1   -1    0    0  501    0 -0.00000000000E+00 -0.00000000000E+00 -0.53313395678E+03  0.53313395678E+03  0.00000000000E+00 0. -1.
         25    2    1    2    0    0 -0.14371792985E+03  0.96078071589E+02  0.62105323312E+03  0.65667333676E+03  0.12500765433E+03 0.  0.
          2    1    1    2  501    0  0.87529521670E+02 -0.69963859382E+02 -0.50720336367E+03  0.51943393315E+03  0.00000000000E+00 0. -1.
          1    1    1    2  502    0  0.56188408176E+02 -0.26114212207E+02  0.47662293889E+03  0.48063345198E+03  0.00000000000E+00 0. -1.
         22    1    3    3    0    0 -0.33510270665E+02  0.73114785552E+02  0.40649627812E+03  0.41437656091E+03  0.00000000000E+00 0.  1.
         22    1    3    3    0    0 -0.11020765918E+03  0.22963286037E+02  0.21455695500E+03  0.24229677585E+03  0.00000000000E+00 0.  1.
</event>
<event>
 7    1  0.6999029E-005  0.1809628E+03  0.7818608E-02  0.1186546E+00
          2   -1    0    0  502    0  0.00000000000E+00  0.00000000000E+00  0.17656237709E+04  0.17656237709E+04  0.00000000000E+00 0. -1.
          1   -1    0    0  501    0 -0.00000000000E+00 -0.00000000000E+00 -0.18580292353E+03  0.18580292353E+03  0.00000000000E+00 0. -1.
         25    2    1    2    0    0 -0.83925156995E+02 -0.10411422862E+03  0.20596832471E+03  0.27555456609E+03  0.12499665408E+03 0.  0.
          2    1    1    2  501    0  0.11285344378E+03 -0.90854960671E+02 -0.10816543690E+03  0.18080455025E+03  0.00000000000E+00 0. -1.
          1    1    1    2  502    0 -0.28928286783E+02  0.19496918929E+03  0.14820179595E+04  0.14950675781E+04  0.00000000000E+00 0. -1.
         22    1    3    3    0    0 -0.49093768923E+02 -0.10067209458E+03  0.21225417683E+03  0.23999355065E+03  0.00000000000E+00 0.  1.
         22    1    3    3    0    0 -0.34831388073E+02 -0.34421340429E+01 -0.62858521227E+01  0.35561015435E+02  0.00000000000E+00 0.  1.
</event>
<event>
 7    1  0.6999029E-005  0.1170366E+03  0.7818608E-02  0.1396193E+00
          2   -1    0    0  502    0  0.00000000000E+00  0.00000000000E+00  0.25192764782E+04  0.25192764782E+04  0.00000000000E+00 0. -1.
          1   -1    0    0  501    0 -0.00000000000E+00 -0.00000000000E+00 -0.13248328963E+03  0.13248328963E+03  0.00000000000E+00 0. -1.
         25    2    1    2    0    0 -0.12552080225E+03  0.67662468523E+01  0.49988373360E+03  0.53038516025E+03  0.12499366866E+03 0.  0.
          2    1    1    2  501    0  0.11225085960E+02 -0.29071199275E+02 -0.11343786068E+03  0.11764049225E+03  0.00000000000E+00 0. -1.
          1    1    1    2  502    0  0.11429571629E+03  0.22304952422E+02  0.20003473156E+04  0.20037341153E+04  0.00000000000E+00 0. -1.
         22    1    3    3    0    0 -0.58379271091E+01  0.26503015709E+02  0.26160126803E+03  0.26300516091E+03  0.00000000000E+00 0.  1.
         22    1    3    3    0    0 -0.11968287514E+03 -0.19736768857E+02  0.23828246557E+03  0.26737999934E+03  0.00000000000E+00 0.  1.
</event>
<event>
 7    1  0.6999029E-005  0.5817905E+02  0.7818608E-02  0.1541955E+00
          2   -1    0    0  502    0  0.00000000000E+00  0.00000000000E+00  0.23976016538E+03  0.23976016538E+03  0.00000000000E+00 0. -1.
          1   -1    0    0  501    0 -0.00000000000E+00 -0.00000000000E+00 -0.18774794451E+03  0.18774794451E+03  0.00000000000E+00 0. -1.
         25    2    1    2    0    0 -0.66282974039E+02 -0.15207939711E+02 -0.14394034097E+03  0.20240918827E+03  0.12500377459E+03 0.  0.
          2    1    1    2  501    0  0.16476818487E+02 -0.14547276547E+02  0.13379376305E+01  0.22020419603E+02  0.00000000000E+00 0. -1.
          1    1    1    2  502    0  0.49806155552E+02  0.29755216258E+02  0.19461462421E+03  0.20307850201E+03  0.00000000000E+00 0. -1.
         22    1    3    3    0    0 -0.43624487022E+02  0.28281512556E+02 -0.17707850744E+01  0.52019952904E+02  0.00000000000E+00 0. -1.
         22    1    3    3    0    0 -0.22658487017E+02 -0.43489452267E+02 -0.14216955589E+03  0.15038923537E+03  0.00000000000E+00 0. -1.
</event>
<event>
 7    1  0.6999029E-005  0.1102621E+03  0.7818608E-02  0.1324099E+00
          2   -1    0    0  502    0  0.00000000000E+00  0.00000000000E+00  0.42377335972E+02  0.42377335972E+02  0.00000000000E+00 0. -1.
          1   -1    0    0  501    0 -0.00000000000E+00 -0.00000000000E+00 -0.89747078210E+03  0.89747078210E+03  0.00000000000E+00 0. -1.
         25    2    1    2    0    0 -0.90343257367E+02 -0.12589342298E+03 -0.41298282622E+03  0.45846600871E+03  0.12500083317E+03 0.  0.
          2    1    1    2  501    0  0.71009207667E+02  0.68416155837E+02 -0.38725128159E+03  0.39960809933E+03  0.00000000000E+00 0. -1.
          1    1    1    2  502    0  0.19334049700E+02  0.57477267141E+02 -0.54859338317E+02  0.81774010030E+02  0.00000000000E+00 0. -1.
         22    1    3    3    0    0 -0.88094138827E+01 -0.30531224234E+02 -0.25380120405E+03  0.25578274492E+03  0.00000000000E+00 0.  1.
         22    1    3    3    0    0 -0.81533843485E+02 -0.95362198744E+02 -0.15918162217E+03  0.20268326379E+03  0.00000000000E+00 0.  1.
</event>
<event>
 7    1  0.6999029E-005  0.1052350E+03  0.7818608E-02  0.1290919E+00
          2   -1    0    0  502    0  0.00000000000E+00  0.00000000000E+00  0.97405916935E+02  0.97405916935E+02  0.00000000000E+00 0. -1.
          1   -1    0    0  501    0 -0.00000000000E+00 -0.00000000000E+00 -0.18764629271E+04  0.18764629271E+04  0.00000000000E+00 0. -1.
         25    2    1    2    0    0 -0.62203758113E+02  0.12969047345E+03 -0.69407429736E+03  0.71975973277E+03  0.12500406485E+03 0.  0.
          2    1    1    2  501    0  0.90203527661E+02 -0.48411490576E+02 -0.11448069412E+04  0.11493751700E+04  0.00000000000E+00 0. -1.
          1    1    1    2  502    0 -0.27999769548E+02 -0.81278982875E+02  0.59824228383E+02  0.10473394127E+03  0.00000000000E+00 0. -1.
         22    1    3    3    0    0 -0.37866418641E+02  0.13811106852E+02 -0.41026976737E+03  0.41224494460E+03  0.00000000000E+00 0. -1.
         22    1    3    3    0    0 -0.24337339472E+02  0.11587936660E+03 -0.28380452999E+03  0.30751478816E+03  0.00000000000E+00 0. -1.
</event>
<event>
 7    1  0.6999029E-005  0.8940684E+03  0.7818608E-02  0.1094196E+00
          2   -1    0    0  502    0  0.00000000000E+00  0.00000000000E+00  0.25449203933E+04  0.25449203933E+04  0.00000000000E+00 0. -1.
          1   -1    0    0  501    0 -0.00000000000E+00 -0.00000000000E+00 -0.15223148520E+04  0.15223148520E+04  0.00000000000E+00 0. -1.
         25    2    1    2    0    0 -0.86939372300E+03 -0.35776366402E+03  0.13443127535E+04  0.16451874333E+04  0.12499850589E+03 0.  0.
          2    1    1    2  501    0  0.84760363171E+03  0.27103875563E+03 -0.12251292168E+04  0.15142111879E+04  0.00000000000E+00 0. -1.
          1    1    1    2  502    0  0.21790091292E+02  0.86724908388E+02  0.90342200463E+03  0.90783662421E+03  0.00000000000E+00 0. -1.
         22    1    3    3    0    0 -0.35168747028E+03 -0.13311423493E+03  0.64443732142E+03  0.74612528274E+03  0.00000000000E+00 0. -1.
         22    1    3    3    0    0 -0.51770625272E+03 -0.22464942909E+03  0.69987543206E+03  0.89906215052E+03  0.00000000000E+00 0. -1.
</event>
<event>
 7    1  0.6999029E-005  0.1803456E+03  0.7818608E-02  0.1192331E+00
          2   -1    0    0  502    0  0.00000000000E+00  0.00000000000E+00  0.23519023712E+03  0.23519023712E+03  0.00000000000E+00 0. -1.
          1   -1    0    0  501    0 -0.00000000000E+00 -0.00000000000E+00 -0.18659875817E+04  0.18659875817E+04  0.00000000000E+00 0. -1.
         25    2    1    2    0    0 -0.14616245714E+03 -0.26506869787E+03 -0.33457375303E+03  0.46817600108E+03  0.12499717320E+03 0.  0.
          2    1    1    2  501    0  0.10549199960E+03  0.13490555902E+03 -0.14310346218E+04  0.14412453506E+04  0.00000000000E+00 0. -1.
          1    1    1    2  502    0  0.40670457539E+02  0.13016313884E+03  0.13481103022E+03  0.19175646717E+03  0.00000000000E+00 0. -1.
         22    1    3    3    0    0 -0.66117481660E+02 -0.22109758826E+03 -0.27561537700E+03  0.35947114064E+03  0.00000000000E+00 0. -1.
         22    1    3    3    0    0 -0.80044975477E+02 -0.43971109608E+02 -0.58958376025E+02  0.10870486044E+03  0.00000000000E+00 0. -1.
</event>
<event>
 7    1  0.6999029E-005  0.1316000E+03  0.7818608E-02  0.1256388E+00
          2   -1    0    0  502    0  0.00000000000E+00  0.00000000000E+00  0.29391493597E+04  0.29391493597E+04  0.00000000000E+00 0. -1.
          1   -1    0    0  501    0 -0.00000000000E+00 -0.00000000000E+00 -0.50430417265E+02  0.50430417265E+02  0.00000000000E+00 0. -1.
         25    2    1    2    0    0  0.15731082103E+03  0.12260717490E+03  0.36955775353E+03  0.43815196087E+03  0.12499997548E+03 0.  0.
          2    1    1    2  501    0 -0.95333418823E+02 -0.95696809182E+01  0.14516256007E+03  0.17393161985E+03  0.00000000000E+00 0. -1.
          1    1    1    2  502    0 -0.61977402210E+02 -0.11303749399E+03  0.23739986288E+04  0.23774961963E+04  0.00000000000E+00 0. -1.
         22    1    3    3    0    0  0.15035211913E+03  0.72308974235E+02  0.34165378932E+03  0.38021265003E+03  0.00000000000E+00 0. -1.
         22    1    3    3    0    0  0.69587019046E+01  0.50298200669E+02  0.27903964204E+02  0.57939310844E+02  0.00000000000E+00 0. -1.
</event>
<event>
 7    1  0.6999029E-005  0.6506143E+03  0.7818608E-02  0.1120109E+00
          2   -1    0    0  502    0  0.00000000000E+00  0.00000000000E+00  0.17163414308E+04  0.17163414308E+04  0.00000000000E+00 0. -1.
          1   -1    0    0  501    0 -0.00000000000E+00 -0.00000000000E+00 -0.16684813242E+04  0.16684813242E+04  0.00000000000E+00 0. -1.
         25    2    1    2    0    0 -0.28298793067E+03 -0.56971756280E+03 -0.11541638556E+04  0.13237785009E+04  0.12504016871E+03 0.  0.
          2    1    1    2  501    0  0.36629941915E+03  0.59862117168E+03 -0.14041785180E+03  0.71570925994E+03  0.00000000000E+00 0. -1.
          1    1    1    2  502    0 -0.83311488482E+02 -0.28903608877E+02  0.13424418139E+04  0.13453349942E+04  0.00000000000E+00 0. -1.
         22    1    3    3    0    0 -0.11906778405E+03 -0.28527491424E+03 -0.68101113934E+03  0.74788708091E+03  0.00000000000E+00 0. -1.
         22    1    3    3    0    0 -0.16392014662E+03 -0.28444264856E+03 -0.47315271622E+03  0.57589142002E+03  0.00000000000E+00 0. -1.
</event>
<event>
 7    1  0.6999029E-005  0.1433006E+04  0.7818608E-02  0.1082130E+00
          2   -1    0    0  502    0  0.00000000000E+00  0.00000000000E+00  0.27081531288E+04  0.27081531288E+04  0.00000000000E+00 0. -1.
          1   -1    0    0  501    0 -0.00000000000E+00 -0.00000000000E+00 -0.18248038750E+04  0.18248038750E+04  0.00000000000E+00 0. -1.
         25    2    1    2    0    0 -0.13829361953E+04  0.43610670864E+03  0.97787791446E+03  0.17534458231E+04  0.12500183056E+03 0.  0.
          2    1    1    2  501    0  0.13799159908E+04 -0.37070319796E+03 -0.10804880347E+04  0.17913803046E+04  0.00000000000E+00 0. -1.
          1    1    1    2  502    0  0.30202044691E+01 -0.65403510682E+02  0.98595937403E+03  0.98813087599E+03  0.00000000000E+00 0. -1.
         22    1    3    3    0    0 -0.12105596194E+03  0.33282029766E+02  0.45287486040E+02  0.13346608490E+03  0.00000000000E+00 0. -1.
         22    1    3    3    0    0 -0.12618802333E+04  0.40282467888E+03  0.93259042842E+03  0.16199797382E+04  0.00000000000E+00 0. -1.
</event>
<event>
 7    1  0.1878674E-004  0.2021334E+03  0.7818608E-02  0.1197075E+00
          2   -1    0    0  502    0  0.00000000000E+00  0.00000000000E+00  0.21744196576E+04  0.21744196576E+04  0.00000000000E+00 0. -1.
          1   -1    0    0  501    0 -0.00000000000E+00 -0.00000000000E+00 -0.13856676100E+04  0.13856676100E+04  0.00000000000E+00 0. -1.
         25    2    1    2    0    0  0.12623688436E+03 -0.28881559259E+03 -0.31577245034E+03  0.46334031470E+03  0.12498723670E+03 0.  0.
          2    1    1    2  501    0 -0.34617988374E+02  0.11019551383E+03 -0.98794285569E+03  0.99467207787E+03  0.00000000000E+00 0. -1.
          1    1    1    2  502    0 -0.91618895983E+02  0.17862007876E+03  0.20924673536E+04  0.21020748751E+04  0.00000000000E+00 0. -1.
         22    1    3    3    0    0  0.48839209655E+02 -0.26157933366E+02 -0.16737956581E+02  0.57876291072E+02  0.00000000000E+00 0.  1.
         22    1    3    3    0    0  0.77397674701E+02 -0.26265765922E+03 -0.29903449376E+03  0.40546402363E+03  0.00000000000E+00 0.  1.
</event>
<event>
 7    1  0.6999029E-005  0.3657021E+03  0.7818608E-02  0.1159285E+00
          2   -1    0    0  502    0  0.00000000000E+00  0.00000000000E+00  0.12724794640E+04  0.12724794640E+04  0.00000000000E+00 0. -1.
          1   -1    0    0  501    0 -0.00000000000E+00 -0.00000000000E+00 -0.69974827041E+03  0.69974827041E+03  0.00000000000E+00 0. -1.
         25    2    1    2    0    0  0.22308153422E+03 -0.30163953440E+03 -0.39011121212E+03  0.55548396766E+03  0.12499560346E+03 0.  0.
          2    1    1    2  501    0 -0.13039294879E+03  0.33275124497E+03 -0.82543491554E+02  0.36679577441E+03  0.00000000000E+00 0. -1.
          1    1    1    2  502    0 -0.92688585434E+02 -0.31111710577E+02  0.10453858972E+04  0.10499479923E+04  0.00000000000E+00 0. -1.
         22    1    3    3    0    0  0.18095180373E+03 -0.26910747318E+03 -0.26249577063E+03  0.41721267597E+03  0.00000000000E+00 0.  1.
         22    1    3    3    0    0  0.42129730497E+02 -0.32532061220E+02 -0.12761544149E+03  0.13827129169E+03  0.00000000000E+00 0.  1.
</event>
<event>
 7    1  0.6999029E-005  0.1240593E+03  0.7818608E-02  0.1293263E+00
          2   -1    0    0  502    0  0.00000000000E+00  0.00000000000E+00  0.99868399531E+03  0.99868399531E+03  0.00000000000E+00 0. -1.
          1   -1    0    0  501    0 -0.00000000000E+00 -0.00000000000E+00 -0.40256936606E+04  0.40256936606E+04  0.00000000000E+00 0. -1.
         25    2    1    2    0    0  0.13634424476E+03 -0.98757044591E+02 -0.58784880526E+03  0.62412723154E+03  0.12500350539E+03 0.  0.
          2    1    1    2  501    0 -0.65140578425E+02  0.10323639841E+03 -0.34173166778E+04  0.34194962093E+04  0.00000000000E+00 0. -1.
          1    1    1    2  502    0 -0.71203666339E+02 -0.44793538214E+01  0.97815581774E+03  0.98075421512E+03  0.00000000000E+00 0. -1.
         22    1    3    3    0    0  0.47973346976E+02 -0.52584814633E+02 -0.82172159823E+02  0.10871461999E+03  0.00000000000E+00 0. -1.
         22    1    3    3    0    0  0.88370897789E+02 -0.46172229957E+02 -0.50567664544E+03  0.51541261154E+03  0.00000000000E+00 0. -1.
</event>
<event>
 7    1  0.6999029E-005  0.3072100E+03  0.7818608E-02  0.1174330E+00
          2   -1    0    0  502    0  0.00000000000E+00  0.00000000000E+00  0.14562823076E+04  0.14562823076E+04  0.00000000000E+00 0. -1.
          1   -1    0    0  501    0 -0.00000000000E+00 -0.00000000000E+00 -0.16594292394E+04  0.16594292394E+04  0.00000000000E+00 0. -1.
         25    2    1    2    0    0  0.10822334511E+03  0.35593753017E+03  0.67720958263E+03  0.78271669986E+03  0.12501518153E+03 0.  0.
          2    1    1    2  501    0 -0.16264925377E+02 -0.96531822194E+02 -0.15790329474E+04  0.15820644707E+04  0.00000000000E+00 0. -1.
          1    1    1    2  502    0 -0.91958419737E+02 -0.25940570797E+03  0.69867643300E+03  0.75093037647E+03  0.00000000000E+00 0. -1.
         22    1    3    3    0    0  0.16724218536E+02  0.25742711820E+03  0.45118338639E+03  0.51972576309E+03  0.00000000000E+00 0.  1.
         22    1    3    3    0    0  0.91499126578E+02  0.98510411972E+02  0.22602619624E+03  0.26299093676E+03  0.00000000000E+00 0.  1.
</event>
<event>
 7    1  0.6999029E-005  0.8341192E+02  0.7818608E-02  0.1341385E+00
          2   -1    0    0  502    0  0.00000000000E+00  0.00000000000E+00  0.27223466838E+03  0.27223466838E+03  0.00000000000E+00 0. -1.
          1   -1    0    0  501    0 -0.00000000000E+00 -0.00000000000E+00 -0.20995578154E+04  0.20995578154E+04  0.00000000000E+00 0. -1.
         25    2    1    2    0    0  0.43168967315E+02 -0.11944028374E+03 -0.12020107795E+04  0.12151472013E+04  0.12499306299E+03 0.  0.
          2    1    1    2  501    0  0.20500211016E+02  0.65778042748E+02 -0.88307932754E+03  0.88576300910E+03  0.00000000000E+00 0. -1.
          1    1    1    2  502    0 -0.63669178331E+02  0.53662240994E+02  0.25776695997E+03  0.27088227338E+03  0.00000000000E+00 0. -1.
         22    1    3    3    0    0  0.20167364183E+02 -0.68533304218E+02 -0.10620519907E+04  0.10644519563E+04  0.00000000000E+00 0.  1.
         22    1    3    3    0    0  0.23001603133E+02 -0.50906979525E+02 -0.13995878874E+03  0.15069524497E+03  0.00000000000E+00 0.  1.
</event>
<event>
 7    1  0.6999029E-005  0.1228284E+04  0.7818608E-02  0.1112644E+00
          2   -1    0    0  502    0  0.00000000000E+00  0.00000000000E+00  0.32304858604E+04  0.32304858604E+04  0.00000000000E+00 0. -1.
          1   -1    0    0  501    0 -0.00000000000E+00 -0.00000000000E+00 -0.12754819302E+04  0.12754819302E+04  0.00000000000E+00 0. -1.
         25    2    1    2    0    0 -0.12235780755E+04 -0.14395188929E+02  0.35262135127E+03  0.12795764120E+04  0.12499379334E+03 0.  0.
          2    1    1    2  501    0  0.12307712589E+04 -0.36409822655E+02 -0.34468773592E+03  0.12786450650E+04  0.00000000000E+00 0. -1.
          1    1    1    2  502    0 -0.71931833605E+01  0.50805011584E+02  0.19470703148E+04  0.19477463136E+04  0.00000000000E+00 0. -1.
         22    1    3    3    0    0 -0.95682035164E+03 -0.21349316702E+02  0.22197683680E+03  0.98246358442E+03  0.00000000000E+00 0. -1.
         22    1    3    3    0    0 -0.26675772391E+03  0.69541277724E+01  0.13064451447E+03  0.29711282759E+03  0.00000000000E+00 0. -1.
</event>
<event>
 7    1  0.6999029E-005  0.9992834E+02  0.7818608E-02  0.1320076E+00
          2   -1    0    0  502    0  0.00000000000E+00  0.00000000000E+00  0.23967083330E+04  0.23967083330E+04  0.00000000000E+00 0. -1.
          1   -1    0    0  501    0 -0.00000000000E+00 -0.00000000000E+00 -0.59505741878E+03  0.59505741878E+03  0.00000000000E+00 0. -1.
         25    2    1    2    0    0  0.53536704159E+02  0.60353984060E+02  0.90765090200E+02  0.17427065567E+03  0.12499271076E+03 0.  0.
          2    1    1    2  501    0 -0.56201893566E+02  0.40636254056E+02 -0.54999891767E+03  0.55435436990E+03  0.00000000000E+00 0. -1.
          1    1    1    2  502    0  0.26651894065E+01 -0.10099023812E+03  0.22608847417E+04  0.22631407262E+04  0.00000000000E+00 0. -1.
         22    1    3    3    0    0  0.59037080989E+01  0.29989314663E+02  0.11033367894E+03  0.11448901027E+03  0.00000000000E+00 0. -1.
         22    1    3    3    0    0  0.47632996061E+02  0.30364669397E+02 -0.19568588743E+02  0.59781645400E+02  0.00000000000E+00 0. -1.
</event>
<event>
 7    1  0.6999029E-005  0.8096836E+03  0.7818608E-02  0.1164701E+00
          2   -1    0    0  502    0  0.00000000000E+00  0.00000000000E+00  0.15475150718E+04  0.15475150718E+04  0.00000000000E+00 0. -1.
          1   -1    0    0  501    0 -0.00000000000E+00 -0.00000000000E+00 -0.67558065733E+03  0.67558065733E+03  0.00000000000E+00 0. -1.
         25    2    1    2    0    0 -0.35827927616E+03  0.71592141892E+03 -0.18802617149E+03  0.83179657473E+03  0.12499673103E+03 0.  0.
          2    1    1    2  501    0  0.36590010216E+03 -0.75668575015E+03  0.92371416844E+03  0.12488811289E+04  0.00000000000E+00 0. -1.
          1    1    1    2  502    0 -0.76208260006E+01  0.40764331233E+02  0.13624641755E+03  0.14241802549E+03  0.00000000000E+00 0. -1.
         22    1    3    3    0    0 -0.12737436668E+03  0.13808663395E+03 -0.37040284640E+02  0.19147879895E+03  0.00000000000E+00 0. -1.
         22    1    3    3    0    0 -0.23090490948E+03  0.57783478497E+03 -0.15098588685E+03  0.64031777577E+03  0.00000000000E+00 0. -1.
</event>
<event>
 7    1  0.6999029E-005  0.3983029E+03  0.7818608E-02  0.1287927E+00
          2   -1    0    0  502    0  0.00000000000E+00  0.00000000000E+00  0.31835690886E+04  0.31835690886E+04  0.00000000000E+00 0. -1.
          1   -1    0    0  501    0 -0.00000000000E+00 -0.00000000000E+00 -0.71355950635E+03  0.71355950635E+03  0.00000000000E+00 0. -1.
         25    2    1    2    0    0  0.63543300976E+02 -0.38838413077E+03  0.24752124516E+04  0.25094190330E+04  0.12500887268E+03 0.  0.
          2    1    1    2  501    0  0.10969756486E+02 -0.20623301333E+02 -0.63371218054E+03  0.63414255801E+03  0.00000000000E+00 0. -1.
          1    1    1    2  502    0 -0.74513057463E+02  0.40900743211E+03  0.62850931119E+03  0.75356700399E+03  0.00000000000E+00 0. -1.
         22    1    3    3    0    0 -0.22780051167E+02 -0.21915247721E+03  0.11874003726E+04  0.12076698158E+04  0.00000000000E+00 0.  1.
         22    1    3    3    0    0  0.86323352143E+02 -0.16923165356E+03  0.12878120790E+04  0.13017492172E+04  0.00000000000E+00 0.  1.
</event>
<event>
 7    1  0.6999029E-005  0.2948177E+03  0.7818608E-02  0.1313254E+00
          2   -1    0    0  502    0  0.00000000000E+00  0.00000000000E+00  0.19953636082E+04  0.19953636082E+04  0.00000000000E+00 0. -1.
          1   -1    0    0  501    0 -0.00000000000E+00 -0.00000000000E+00 -0.21797845059E+03  0.21797845059E+03  0.00000000000E+00 0. -1.
         25    2    1    2    0    0 -0.21264672019E+03 -0.22506685591E+03  0.31963296994E+03  0.46223874198E+03  0.12500280745E+03 0.  0.
          2    1    1    2  501    0  0.24964167685E+02  0.11932069279E+01 -0.13219674333E+03  0.13453851626E+03  0.00000000000E+00 0. -1.
          1    1    1    2  502    0  0.18768255250E+03  0.22387364899E+03  0.15899489309E+04  0.16165648005E+04  0.00000000000E+00 0. -1.
         22    1    3    3    0    0 -0.15525736595E+03 -0.19968266460E+03  0.18397450528E+03  0.31276929967E+03  0.00000000000E+00 0. -1.
         22    1    3    3    0    0 -0.57389354237E+02 -0.25384191314E+02  0.13565846466E+03  0.14946944230E+03  0.00000000000E+00 0. -1.
</event>
<event>
 7    1  0.6999029E-005  0.4358734E+03  0.7818608E-02  0.1277273E+00
          2   -1    0    0  502    0  0.00000000000E+00  0.00000000000E+00  0.52960438659E+03  0.52960438659E+03  0.00000000000E+00 0. -1.
          1   -1    0    0  501    0 -0.00000000000E+00 -0.00000000000E+00 -0.62064018433E+03  0.62064018433E+03  0.00000000000E+00 0. -1.
         25    2    1    2    0    0  0.94982110587E+02  0.42366906230E+03  0.13068246024E+03  0.47034012391E+03  0.12499940426E+03 0.  0.
          2    1    1    2  501    0  0.23552280561E+02 -0.16963584632E+01 -0.24005728294E+03  0.24121585073E+03  0.00000000000E+00 0. -1.
          1    1    1    2  502    0 -0.11853439115E+03 -0.42197270384E+03  0.18339024951E+02  0.43868859628E+03  0.00000000000E+00 0. -1.
         22    1    3    3    0    0 -0.35548081466E+01  0.28343079008E+02  0.46098340893E+02  0.54231207083E+02  0.00000000000E+00 0. -1.
         22    1    3    3    0    0  0.98536918733E+02  0.39532598329E+03  0.84584119348E+02  0.41610891683E+03  0.00000000000E+00 0. -1.
</event>
<event>
 7    1  0.6999029E-005  0.1553034E+03  0.7818608E-02  0.1287153E+00
          2   -1    0    0  502    0  0.00000000000E+00  0.00000000000E+00  0.68552570294E+03  0.68552570294E+03  0.00000000000E+00 0. -1.
          1   -1    0    0  501    0 -0.00000000000E+00 -0.00000000000E+00 -0.45957181777E+03  0.45957181777E+03  0.00000000000E+00 0. -1.
         25    2    1    2    0    0 -0.17104902595E+03  0.16725658305E+02 -0.52058855208E+02  0.21879172423E+03  0.12498870854E+03 0.  0.
          2    1    1    2  501    0  0.13806536291E+03 -0.67260451556E+02 -0.30430848278E+03  0.34086605210E+03  0.00000000000E+00 0. -1.
          1    1    1    2  502    0  0.32983663043E+02  0.50534793251E+02  0.58232122316E+03  0.58543974438E+03  0.00000000000E+00 0. -1.
         22    1    3    3    0    0 -0.12346123877E+03 -0.15803990934E+02  0.20475769564E+02  0.12614159008E+03  0.00000000000E+00 0.  1.
         22    1    3    3    0    0 -0.47587787182E+02  0.32529649240E+02 -0.72534624771E+02  0.92650134157E+02  0.00000000000E+00 0.  1.
</event>
<event>
 7    1  0.6999029E-005  0.3002542E+03  0.7818608E-02  0.1227660E+00
          2   -1    0    0  502    0  0.00000000000E+00  0.00000000000E+00  0.92775548572E+03  0.92775548572E+03  0.00000000000E+00 0. -1.
          1   -1    0    0  501    0 -0.00000000000E+00 -0.00000000000E+00 -0.42731340893E+03  0.42731340893E+03  0.00000000000E+00 0. -1.
         25    2    1    2    0    0  0.26044759081E+03 -0.41264817034E+02  0.16759447424E+03  0.33652531731E+03  0.12500259483E+03 0.  0.
          2    1    1    2  501    0 -0.30010227075E+03  0.81041281050E+02 -0.27081481948E+03  0.41227385145E+03  0.00000000000E+00 0. -1.
          1    1    1    2  502    0  0.39654679935E+02 -0.39776464015E+02  0.60366242204E+03  0.60626972588E+03  0.00000000000E+00 0. -1.
         22    1    3    3    0    0  0.15459473892E+03  0.36659677288E+02  0.74672540135E+02  0.17555470228E+03  0.00000000000E+00 0. -1.
         22    1    3    3    0    0  0.10585285189E+03 -0.77924494322E+02  0.92921934100E+02  0.16097061504E+03  0.00000000000E+00 0. -1.
</event>
<event>
 7    1  0.6999029E-005  0.1077745E+04  0.7818608E-02  0.1132175E+00
          2   -1    0    0  502    0  0.00000000000E+00  0.00000000000E+00  0.26737013113E+04  0.26737013113E+04  0.00000000000E+00 0. -1.
          1   -1    0    0  501    0 -0.00000000000E+00 -0.00000000000E+00 -0.97745297817E+03  0.97745297817E+03  0.00000000000E+00 0. -1.
         25    2    1    2    0    0 -0.10542357399E+04 -0.89560861728E+02  0.84976951507E+03  0.13627789501E+04  0.12499637954E+03 0.  0.
          2    1    1    2  501    0 -0.31385562875E+02 -0.33431431611E+02 -0.52944502865E+03  0.53142709052E+03  0.00000000000E+00 0. -1.
          1    1    1    2  502    0  0.10856213027E+04  0.12299229334E+03  0.13759238467E+04  0.17569482488E+04  0.00000000000E+00 0. -1.
         22    1    3    3    0    0 -0.58674794699E+03 -0.11208938949E+03  0.47786813762E+03  0.76498048438E+03  0.00000000000E+00 0. -1.
         22    1    3    3    0    0 -0.46748779288E+03  0.22528527762E+02  0.37190137745E+03  0.59779846571E+03  0.00000000000E+00 0. -1.
</event>
<event>
 7    1  0.6999029E-005  0.8635416E+03  0.7818608E-02  0.1159710E+00
          2   -1    0    0  502    0  0.00000000000E+00  0.00000000000E+00  0.17775959056E+04  0.17775959056E+04  0.00000000000E+00 0. -1.
          1   -1    0    0  501    0 -0.00000000000E+00 -0.00000000000E+00 -0.20601238136E+04  0.20601238136E+04  0.00000000000E+00 0. -1.
         25    2    1    2    0    0  0.32888835570E+03  0.83296888266E+03 -0.24593351719E+03  0.93707744600E+03  0.12500453964E+03 0.  0.
          2    1    1    2  501    0 -0.26627192613E+02 -0.31440151847E+02 -0.13401662564E+04  0.13407994203E+04  0.00000000000E+00 0. -1.
          1    1    1    2  502    0 -0.30226116309E+03 -0.80152873082E+03  0.13035718656E+04  0.15598428529E+04  0.00000000000E+00 0. -1.
         22    1    3    3    0    0  0.60452902271E+02  0.85971154477E+02 -0.62900410361E+02  0.12248287398E+03  0.00000000000E+00 0. -1.
         22    1    3    3    0    0  0.26843545343E+03  0.74699772819E+03 -0.18303310683E+03  0.81459457202E+03  0.00000000000E+00 0. -1.
</event>
<event>
 7    1  0.6999029E-005  0.4503675E+03  0.7818608E-02  0.1268489E+00
          2   -1    0    0  502    0  0.00000000000E+00  0.00000000000E+00  0.19416356123E+04  0.19416356123E+04  0.00000000000E+00 0. -1.
          1   -1    0    0  501    0 -0.00000000000E+00 -0.00000000000E+00 -0.19750815232E+04  0.19750815232E+04  0.00000000000E+00 0. -1.
         25    2    1    2    0    0  0.17749769880E+03 -0.41438121475E+03 -0.10570075617E+04  0.11559012338E+04  0.12500181073E+03 0.  0.
          2    1    1    2  501    0 -0.15417428164E+03  0.42301315470E+03 -0.81019512701E+03  0.92689049083E+03  0.00000000000E+00 0. -1.
          1    1    1    2  502    0 -0.23323417162E+02 -0.86319399545E+01  0.18337567778E+04  0.18339254108E+04  0.00000000000E+00 0. -1.
         22    1    3    3    0    0  0.12901527805E+03 -0.19711462390E+03 -0.42633716859E+03  0.48709598464E+03  0.00000000000E+00 0.  1.
         22    1    3    3    0    0  0.48482420753E+02 -0.21726659085E+03 -0.63067039309E+03  0.66880524919E+03  0.00000000000E+00 0.  1.
</event>
<event>
 7    1  0.6999029E-005  0.2364244E+03  0.7818608E-02  0.1272303E+00
          2   -1    0    0  502    0  0.00000000000E+00  0.00000000000E+00  0.17852398539E+04  0.17852398539E+04  0.00000000000E+00 0. -1.
          1   -1    0    0  501    0 -0.00000000000E+00 -0.00000000000E+00 -0.25535483342E+03  0.25535483342E+03  0.00000000000E+00 0. -1.
         25    2    1    2    0    0 -0.15648883487E+03 -0.16227952465E+03  0.14204433177E+04  0.14436450760E+04  0.12501394799E+03 0.  0.
          2    1    1    2  501    0  0.19397985667E+03  0.13621730796E+03 -0.18394457077E+03  0.30003157317E+03  0.00000000000E+00 0. -1.
          1    1    1    2  502    0 -0.37491021798E+02  0.26062216690E+02  0.29338627362E+03  0.29691803819E+03  0.00000000000E+00 0. -1.
         22    1    3    3    0    0 -0.76850242464E+02 -0.92660637820E+02  0.10913560360E+04  0.10979753872E+04  0.00000000000E+00 0.  1.
         22    1    3    3    0    0 -0.79638592405E+02 -0.69618886830E+02  0.32908728166E+03  0.34566968880E+03  0.00000000000E+00 0.  1.
</event>
<event>
 7    1  0.6999029E-005  0.3017635E+03  0.7818608E-02  0.1147169E+00
          2   -1    0    0  502    0  0.00000000000E+00  0.00000000000E+00  0.37945591190E+03  0.37945591190E+03  0.00000000000E+00 0. -1.
          1   -1    0    0  501    0 -0.00000000000E+00 -0.00000000000E+00 -0.42243933942E+03  0.42243933942E+03  0.00000000000E+00 0. -1.
         25    2    1    2    0    0 -0.18718081265E+03  0.27398804637E+03  0.50542638679E+02  0.35817094958E+03  0.12500305844E+03 0.  0.
          2    1    1    2  501    0  0.13659574703E+03 -0.43050505265E+01  0.34483270492E+02  0.14094689606E+03  0.00000000000E+00 0. -1.
          1    1    1    2  502    0  0.50585065623E+02 -0.26968299584E+03 -0.12800933669E+03  0.30277740568E+03  0.00000000000E+00 0. -1.
         22    1    3    3    0    0 -0.19807660487E+03  0.27794466472E+03  0.55087587522E+02  0.34571985818E+03  0.00000000000E+00 0. -1.
         22    1    3    3    0    0  0.10895792219E+02 -0.39566183535E+01 -0.45449488430E+01  0.12451091392E+02  0.00000000000E+00 0. -1.
</event>
<event>
 7    1  0.6999029E-005  0.3795636E+03  0.7818608E-02  0.1283038E+00
          2   -1    0    0  502    0  0.00000000000E+00  0.00000000000E+00  0.10980237615E+04  0.10980237615E+04  0.00000000000E+00 0. -1.
          1   -1    0    0  501    0 -0.00000000000E+00 -0.00000000000E+00 -0.57081658316E+03  0.57081658316E+03  0.00000000000E+00 0. -1.
         25    2    1    2    0    0 -0.19974466891E+03 -0.33618975313E+03  0.21956353933E+03  0.46556864157E+03  0.12499811735E+03 0.  0.
          2    1    1    2  501    0  0.17413860191E+03  0.33438957452E+03 -0.36817468109E+03  0.52696606724E+03  0.00000000000E+00 0. -1.
          1    1    1    2  502    0  0.25606066992E+02  0.18001786071E+01  0.67581832015E+03  0.67630563591E+03  0.00000000000E+00 0. -1.
         22    1    3    3    0    0  0.16041610441E+01 -0.30047385945E+02  0.57521705060E+02  0.64916602559E+02  0.00000000000E+00 0.  1.
         22    1    3    3    0    0 -0.20134882995E+03 -0.30614236719E+03  0.16204183427E+03  0.40065203901E+03  0.00000000000E+00 0.  1.
</event>
<event>
 7    1  0.6999029E-005  0.5561514E+03  0.7818608E-02  0.1108988E+00
          2   -1    0    0  502    0  0.00000000000E+00  0.00000000000E+00  0.11903435344E+04  0.11903435344E+04  0.00000000000E+00 0. -1.
          1   -1    0    0  501    0 -0.00000000000E+00 -0.00000000000E+00 -0.42995907929E+03  0.42995907929E+03  0.00000000000E+00 0. -1.
         25    2    1    2    0    0  0.50691756630E+03  0.37536100246E+03  0.34049468265E+03  0.72761469290E+03  0.12500084489E+03 0.  0.
          2    1    1    2  501    0 -0.42897457975E+03 -0.28581455871E+03  0.66318685569E+02  0.51971850083E+03  0.00000000000E+00 0. -1.
          1    1    1    2  502    0 -0.77942986545E+02 -0.89546443744E+02  0.35357108685E+03  0.37296941992E+03  0.00000000000E+00 0. -1.
         22    1    3    3    0    0  0.19185517156E+03  0.12485329690E+03  0.58845478146E+02  0.23634623521E+03  0.00000000000E+00 0. -1.
         22    1    3    3    0    0  0.31506239474E+03  0.25050770556E+03  0.28164920450E+03  0.49126845769E+03  0.00000000000E+00 0. -1.
</event>
<event>
 7    1  0.6999029E-005  0.2013605E+03  0.7818608E-02  0.1188714E+00
          2   -1    0    0  502    0  0.00000000000E+00  0.00000000000E+00  0.22619152632E+03  0.22619152632E+03  0.00000000000E+00 0. -1.
          1   -1    0    0  501    0 -0.00000000000E+00 -0.00000000000E+00 -0.27166508618E+04  0.27166508618E+04  0.00000000000E+00 0. -1.
         25    2    1    2    0    0 -0.27247372701E+03 -0.16167209053E+03 -0.12980326076E+04  0.13419735011E+04  0.12499772266E+03 0.  0.
          2    1    1    2  501    0  0.12267965275E+03  0.33271476379E+02 -0.13452919401E+04  0.13512837202E+04  0.00000000000E+00 0. -1.
          1    1    1    2  502    0  0.14979407426E+03  0.12840061415E+03  0.15286521218E+03  0.24958516681E+03  0.00000000000E+00 0. -1.
         22    1    3    3    0    0 -0.23261588504E+03 -0.74721720909E+02 -0.96823737349E+03  0.99858755098E+03  0.00000000000E+00 0.  1.
         22    1    3    3    0    0 -0.39857841974E+02 -0.86950369620E+02 -0.32979523407E+03  0.34338595015E+03  0.00000000000E+00 0.  1.
</event>
<event>
 7    1  0.6999029E-005  0.4995683E+03  0.7818608E-02  0.1267554E+00
          2   -1    0    0  502    0  0.00000000000E+00  0.00000000000E+00  0.10608852959E+04  0.10608852959E+04  0.00000000000E+00 0. -1.
          1   -1    0    0  501    0 -0.00000000000E+00 -0.00000000000E+00 -0.10526644136E+04  0.10526644136E+04  0.00000000000E+00 0. -1.
         25    2    1    2    0    0  0.44039679059E+03 -0.27382105620E+03  0.38554313880E+03  0.65816949114E+03  0.12496504796E+03 0.  0.
          2    1    1    2  501    0 -0.41842990487E+03  0.26840589340E+03 -0.84863890179E+03  0.98352086634E+03  0.00000000000E+00 0. -1.
          1    1    1    2  502    0 -0.21966885717E+02  0.54151628006E+01  0.47131664526E+03  0.47185935209E+03  0.00000000000E+00 0. -1.
         22    1    3    3    0    0  0.18145920920E+03 -0.44214862878E+02  0.12058059773E+03  0.22231077178E+03  0.00000000000E+00 0. -1.
         22    1    3    3    0    0  0.25893758139E+03 -0.22960619332E+03  0.26496254108E+03  0.43585871935E+03  0.00000000000E+00 0. -1.
</event>
<event>
 7    1  0.6999029E-005  0.1019358E+03  0.7818608E-02  0.1296809E+00
          2   -1    0    0  502    0  0.00000000000E+00  0.00000000000E+00  0.15547779163E+04  0.15547779163E+04  0.00000000000E+00 0. -1.
          1   -1    0    0  501    0 -0.00000000000E+00 -0.00000000000E+00 -0.40712114637E+03  0.40712114637E+03  0.00000000000E+00 0. -1.
         25    2    1    2    0    0  0.13043886654E+03 -0.46189407533E+02  0.66893037048E+02  0.19810547094E+03  0.12499335957E+03 0.  0.
          2    1    1    2  501    0 -0.96590463764E+02 -0.30704758570E+02 -0.33272025257E+03  0.34781498869E+03  0.00000000000E+00 0. -1.
          1    1    1    2  502    0 -0.33848402779E+02  0.76894166102E+02  0.14134839854E+04  0.14159786030E+04  0.00000000000E+00 0. -1.
         22    1    3    3    0    0  0.83164469775E+02 -0.43374818100E+02 -0.22933847642E+02  0.96559128236E+02  0.00000000000E+00 0. -1.
         22    1    3    3    0    0  0.47274396769E+02 -0.28145894325E+01  0.89826884690E+02  0.10154634270E+03  0.00000000000E+00 0. -1.
</event>
<event>
 7    1  0.6999029E-005  0.2733238E+03  0.7818608E-02  0.1300203E+00
          2   -1    0    0  502    0  0.00000000000E+00  0.00000000000E+00  0.19082332321E+04  0.19082332321E+04  0.00000000000E+00 0. -1.
          1   -1    0    0  501    0 -0.00000000000E+00 -0.00000000000E+00 -0.70397286191E+02  0.70397286191E+02  0.00000000000E+00 0. -1.
         25    2    1    2    0    0  0.29040371187E+03 -0.48993544723E+02  0.10003280347E+04  0.10502454094E+04  0.12499823832E+03 0.  0.
          2    1    1    2  501    0 -0.26276276680E+03  0.36421553609E+02  0.34624152965E+03  0.43618115277E+03  0.00000000000E+00 0. -1.
          1    1    1    2  502    0 -0.27640945075E+02  0.12571991114E+02  0.49126638157E+03  0.49220395617E+03  0.00000000000E+00 0. -1.
         22    1    3    3    0    0  0.19542897767E+03 -0.63055767961E+02  0.82688599324E+03  0.85200291138E+03  0.00000000000E+00 0.  1.
         22    1    3    3    0    0  0.94974734199E+02  0.14062223238E+02  0.17344204145E+03  0.19824249797E+03  0.00000000000E+00 0.  1.
</event>
<event>
 7    1  0.6999029E-005  0.4327102E+03  0.7818608E-02  0.1245875E+00
          2   -1    0    0  502    0  0.00000000000E+00  0.00000000000E+00  0.18689708611E+03  0.18689708611E+03  0.00000000000E+00 0. -1.
          1   -1    0    0  501    0 -0.00000000000E+00 -0.00000000000E+00 -0.13815066842E+04  0.13815066842E+04  0.00000000000E+00 0. -1.
         25    2    1    2    0    0 -0.44401945555E+03 -0.87181490629E+02 -0.28246995149E+03  0.54787600688E+03  0.12499982482E+03 0.  0.
          2    1    1    2  501    0  0.42023000375E+03  0.65244813248E+02 -0.84317967753E+03  0.94435274676E+03  0.00000000000E+00 0. -1.
          1    1    1    2  502    0  0.23789451792E+02  0.21936677381E+02 -0.68959969026E+02  0.76175016634E+02  0.00000000000E+00 0. -1.
         22    1    3    3    0    0 -0.20080463364E+03 -0.96592405267E+02 -0.10309109561E+03  0.24552060533E+03  0.00000000000E+00 0.  1.
         22    1    3    3    0    0 -0.24321482191E+03  0.94109146386E+01 -0.17937885588E+03  0.30235540155E+03  0.00000000000E+00 0.  1.
</event>
<event>
 7    1  0.6999029E-005  0.8799237E+03  0.7818608E-02  0.1149899E+00
          2   -1    0    0  502    0  0.00000000000E+00  0.00000000000E+00  0.22445031901E+04  0.22445031901E+04  0.00000000000E+00 0. -1.
          1   -1    0    0  501    0 -0.00000000000E+00 -0.00000000000E+00 -0.13360426993E+04  0.13360426993E+04  0.00000000000E+00 0. -1.
         25    2    1    2    0    0 -0.90288602253E+03  0.12681478052E+03  0.19027494678E+03  0.93974180418E+03  0.12499977963E+03 0.  0.
          2    1    1    2  501    0  0.86235015934E+03 -0.10643141889E+03 -0.76455093401E+03  0.11573735676E+04  0.00000000000E+00 0. -1.
          1    1    1    2  502    0  0.40535863191E+02 -0.20383361630E+02  0.14827364780E+04  0.14834305176E+04  0.00000000000E+00 0. -1.
         22    1    3    3    0    0 -0.70724904970E+03  0.14484358286E+03  0.12468657770E+03  0.73261696981E+03  0.00000000000E+00 0.  1.
         22    1    3    3    0    0 -0.19563697283E+03 -0.18028802346E+02  0.65588369078E+02  0.20712483437E+03  0.00000000000E+00 0.  1.
</event>
<event>
 7    1  0.6999029E-005  0.5086915E+03  0.7818608E-02  0.1273516E+00
          2   -1    0    0  502    0  0.00000000000E+00  0.00000000000E+00  0.68925117384E+03  0.68925117384E+03  0.00000000000E+00 0. -1.
          1   -1    0    0  501    0 -0.00000000000E+00 -0.00000000000E+00 -0.16614513372E+04  0.16614513372E+04  0.00000000000E+00 0. -1.
         25    2    1    2    0    0  0.36491551060E+03 -0.36935734362E+03  0.28215769154E+02  0.53479848665E+03  0.12500045812E+03 0.  0.
          2    1    1    2  501    0 -0.20673886514E+02  0.35420809553E+01 -0.12533321280E+04  0.12535076303E+04  0.00000000000E+00 0. -1.
          1    1    1    2  502    0 -0.34424162408E+03  0.36581526267E+03  0.25291619555E+03  0.56239639412E+03  0.00000000000E+00 0. -1.
         22    1    3    3    0    0  0.24069739178E+03 -0.31988338485E+03  0.19142388877E+02  0.40078304026E+03  0.00000000000E+00 0. -1.
         22    1    3    3    0    0  0.12421811882E+03 -0.49473958773E+02  0.90733802772E+01  0.13401544638E+03  0.00000000000E+00 0. -1.
</event>
<event>
 7    1  0.6999029E-005  0.3399630E+03  0.7818608E-02  0.1122128E+00
          2   -1    0    0  502    0  0.00000000000E+00  0.00000000000E+00  0.69345709326E+03  0.69345709326E+03  0.00000000000E+00 0. -1.
          1   -1    0    0  501    0 -0.00000000000E+00 -0.00000000000E+00 -0.48109098009E+03  0.48109098009E+03  0.00000000000E+00 0. -1.
         25    2    1    2    0    0  0.15113045610E+03  0.30657291750E+03  0.80657987480E+01  0.36402908360E+03  0.12499899236E+03 0.  0.
          2    1    1    2  501    0 -0.15884027779E+03  0.43015851380E+02 -0.21101866839E+03  0.26759946885E+03  0.00000000000E+00 0. -1.
          1    1    1    2  502    0  0.77098216925E+01 -0.34958876888E+03  0.41531898281E+03  0.54291952089E+03  0.00000000000E+00 0. -1.
         22    1    3    3    0    0  0.57684127559E+02  0.11298127504E+03  0.63744533479E+02  0.14197039350E+03  0.00000000000E+00 0. -1.
         22    1    3    3    0    0  0.93446328543E+02  0.19359164246E+03 -0.55678734731E+02  0.22205869010E+03  0.00000000000E+00 0. -1.
</event>
<event>
 7    1  0.6999029E-005  0.5394690E+03  0.7818608E-02  0.1139102E+00
          2   -1    0    0  502    0  0.00000000000E+00  0.00000000000E+00  0.69898911725E+03  0.69898911725E+03  0.00000000000E+00 0. -1.
          1   -1    0    0  501    0 -0.00000000000E+00 -0.00000000000E+00 -0.17298251651E+04  0.17298251651E+04  0.00000000000E+00 0. -1.
         25    2    1    2    0    0 -0.97782362273E+02  0.48998369429E+03 -0.37980601139E+03  0.63993902441E+03  0.12499575047E+03 0.  0.
          2    1    1    2  501    0  0.48375225288E+02 -0.55817826743E+03 -0.11519250865E+04  0.12809506413E+04  0.00000000000E+00 0. -1.
          1    1    1    2  502    0  0.49407136985E+02  0.68194573145E+02  0.50089505004E+03  0.50792461659E+03  0.00000000000E+00 0. -1.
         22    1    3    3    0    0 -0.77946980931E+02  0.44761104052E+03 -0.29095812478E+03  0.53952572302E+03  0.00000000000E+00 0. -1.
         22    1    3    3    0    0 -0.19835381342E+02  0.42372653774E+02 -0.88847886610E+02  0.10041330139E+03  0.00000000000E+00 0. -1.
</event>
<event>
 7    1  0.6999029E-005  0.1686202E+03  0.7818608E-02  0.1251582E+00
          2   -1    0    0  502    0  0.00000000000E+00  0.00000000000E+00  0.28560217838E+03  0.28560217838E+03  0.00000000000E+00 0. -1.
          1   -1    0    0  501    0 -0.00000000000E+00 -0.00000000000E+00 -0.55236057400E+03  0.55236057400E+03  0.00000000000E+00 0. -1.
         25    2    1    2    0    0 -0.11682656662E+03 -0.15615940972E+03  0.60689413583E+01  0.23170037685E+03  0.12495609097E+03 0.  0.
          2    1    1    2  501    0  0.78395460536E+02 -0.23208145980E+01 -0.39486643036E+03  0.40258009419E+03  0.00000000000E+00 0. -1.
          1    1    1    2  502    0  0.38431106088E+02  0.15848022432E+03  0.12203909338E+03  0.20368228133E+03  0.00000000000E+00 0. -1.
         22    1    3    3    0    0  0.12438182358E+02 -0.51588218577E+02  0.34113338107E+02  0.63085438202E+02  0.00000000000E+00 0.  1.
         22    1    3    3    0    0 -0.12926474898E+03 -0.10457119114E+03 -0.28044396749E+02  0.16861493865E+03  0.00000000000E+00 0.  1.
</event>
<event>
 7    1  0.6999029E-005  0.2962305E+03  0.7818608E-02  0.1182204E+00
          2   -1    0    0  502    0  0.00000000000E+00  0.00000000000E+00  0.14257418883E+04  0.14257418883E+04  0.00000000000E+00 0. -1.
          1   -1    0    0  501    0 -0.00000000000E+00 -0.00000000000E+00 -0.15515780251E+03  0.15515780251E+03  0.00000000000E+00 0. -1.
         25    2    1    2    0    0 -0.33939900318E+03  0.66075559455E+02  0.79779691437E+03  0.87844318806E+03  0.12499942058E+03 0.  0.
          2    1    1    2  501    0  0.91839025497E+02  0.13985595585E+02 -0.59265962695E+02  0.11019282110E+03  0.00000000000E+00 0. -1.
          1    1    1    2  502    0  0.24755997768E+03 -0.80061155040E+02  0.53205313415E+03  0.59226368170E+03  0.00000000000E+00 0. -1.
         22    1    3    3    0    0 -0.21731786133E+02 -0.19692819827E+02  0.25089841293E+02  0.38595049130E+02  0.00000000000E+00 0.  1.
         22    1    3    3    0    0 -0.31766721705E+03  0.85768379282E+02  0.77270707308E+03  0.83984813893E+03  0.00000000000E+00 0.  1.
</event>
<event>
 7    1  0.6999029E-005  0.1038890E+04  0.7818608E-02  0.1085823E+00
          2   -1    0    0  502    0  0.00000000000E+00  0.00000000000E+00  0.15930750827E+04  0.15930750827E+04  0.00000000000E+00 0. -1.
          1   -1    0    0  501    0 -0.00000000000E+00 -0.00000000000E+00 -0.95765035576E+03  0.95765035576E+03  0.00000000000E+00 0. -1.
         25    2    1    2    0    0  0.96771001676E+03  0.45859745563E+03  0.50817801519E+03  0.11919081346E+04  0.12500321330E+03 0.  0.
          2    1    1    2  501    0 -0.95281107903E+03 -0.37393784904E+03 -0.18044345669E+03  0.10393451344E+04  0.00000000000E+00 0. -1.
          1    1    1    2  502    0 -0.14898937733E+02 -0.84659606592E+02  0.30769016840E+03  0.31947216947E+03  0.00000000000E+00 0. -1.
         22    1    3    3    0    0  0.50290236474E+03  0.30223321331E+03  0.25108719194E+03  0.63820097277E+03  0.00000000000E+00 0. -1.
         22    1    3    3    0    0  0.46480765202E+03  0.15636424232E+03  0.25709082325E+03  0.55370716182E+03  0.00000000000E+00 0. -1.
</event>
<event>
 7    1  0.6999029E-005  0.7438158E+02  0.7818608E-02  0.1372699E+00
          2   -1    0    0  502    0  0.00000000000E+00  0.00000000000E+00  0.92697843516E+03  0.92697843516E+03  0.00000000000E+00 0. -1.
          1   -1    0    0  501    0 -0.00000000000E+00 -0.00000000000E+00 -0.31890967055E+03  0.31890967055E+03  0.00000000000E+00 0. -1.
         25    2    1    2    0    0  0.53329782068E+02  0.55809187157E+02  0.34200925609E+03  0.37222676199E+03  0.12499480015E+03 0.  0.
          2    1    1    2  501    0 -0.55280014761E+02  0.21503973352E+02 -0.29824286517E+03  0.30408404682E+03  0.00000000000E+00 0. -1.
          1    1    1    2  502    0  0.19502326924E+01 -0.77313160510E+02  0.56430237370E+03  0.56957729691E+03  0.00000000000E+00 0. -1.
         22    1    3    3    0    0  0.20404094390E+02  0.48161910873E+01  0.29423756386E+03  0.29498350250E+03  0.00000000000E+00 0. -1.
         22    1    3    3    0    0  0.32925687678E+02  0.50992996070E+02  0.47771692228E+02  0.77243259483E+02  0.00000000000E+00 0. -1.
</event>
<event>
 7    1  0.6999029E-005  0.1512715E+03  0.7818608E-02  0.1304493E+00
          2   -1    0    0  502    0  0.00000000000E+00  0.00000000000E+00  0.11311556446E+04  0.11311556446E+04  0.00000000000E+00 0. -1.
          1   -1    0    0  501    0 -0.00000000000E+00 -0.00000000000E+00 -0.13166722989E+03  0.13166722989E+03  0.00000000000E+00 0. -1.
         25    2    1    2    0    0 -0.12725855726E+01  0.19377573340E+03  0.10037214234E+04  0.10298710724E+04  0.12500830281E+03 0.  0.
          2    1    1    2  501    0  0.25667743871E+02 -0.14700955187E+03 -0.55668203086E+02  0.15927834207E+03  0.00000000000E+00 0. -1.
          1    1    1    2  502    0 -0.24395158298E+02 -0.46766181521E+02  0.51435194458E+02  0.73673460020E+02  0.00000000000E+00 0. -1.
         22    1    3    3    0    0 -0.12426095197E+02  0.18549233578E+03  0.99745172207E+03  0.10146288742E+04  0.00000000000E+00 0.  1.
         22    1    3    3    0    0  0.11153509625E+02  0.82833976140E+01  0.62697013062E+01  0.15242198249E+02  0.00000000000E+00 0.  1.
</event>
<event>
 7    1  0.6999029E-005  0.4915206E+03  0.7818608E-02  0.1159400E+00
          2   -1    0    0  502    0  0.00000000000E+00  0.00000000000E+00  0.24839523344E+04  0.24839523344E+04  0.00000000000E+00 0. -1.
          1   -1    0    0  501    0 -0.00000000000E+00 -0.00000000000E+00 -0.57901992617E+03  0.57901992617E+03  0.00000000000E+00 0. -1.
         25    2    1    2    0    0 -0.28346014731E+03  0.36088305155E+03  0.90049418676E+03  0.10183815423E+04  0.12499981340E+03 0.  0.
          2    1    1    2  501    0  0.25278298141E+03 -0.42673387201E+03 -0.40067177668E+03  0.63760403531E+03  0.00000000000E+00 0. -1.
          1    1    1    2  502    0  0.30677165899E+02  0.65850820468E+02  0.14051099981E+04  0.14069866829E+04  0.00000000000E+00 0. -1.
         22    1    3    3    0    0 -0.48039951657E+02  0.87402479135E+02  0.10472531400E+03  0.14461819286E+03  0.00000000000E+00 0.  1.
         22    1    3    3    0    0 -0.23542019565E+03  0.27348057241E+03  0.79576887277E+03  0.87376334947E+03  0.00000000000E+00 0.  1.
</event>
<event>
 7    1  0.6999029E-005  0.3736674E+03  0.7818608E-02  0.1108468E+00
          2   -1    0    0  502    0  0.00000000000E+00  0.00000000000E+00  0.13521988455E+04  0.13521988455E+04  0.00000000000E+00 0. -1.
          1   -1    0    0  501    0 -0.00000000000E+00 -0.00000000000E+00 -0.61985864827E+03  0.61985864827E+03  0.00000000000E+00 0. -1.
         25    2    1    2    0    0  0.50234914177E+03  0.97580634926E+01 -0.23221122603E+02  0.51827966203E+03  0.12499883002E+03 0.  0.
          2    1    1    2  501    0 -0.33049385397E+03  0.36111106783E+02 -0.26043882515E+03  0.42232520785E+03  0.00000000000E+00 0. -1.
          1    1    1    2  502    0 -0.17185528780E+03 -0.45869170276E+02  0.10160001450E+04  0.10314526239E+04  0.00000000000E+00 0. -1.
         22    1    3    3    0    0  0.45729241359E+03 -0.68857591479E+01 -0.55069298215E+02  0.46064779693E+03  0.00000000000E+00 0. -1.
         22    1    3    3    0    0  0.45056728173E+02  0.16643822641E+02  0.31848175612E+02  0.57631865106E+02  0.00000000000E+00 0. -1.
</event>
<event>
 7    1  0.6999029E-005  0.1249082E+03  0.7818608E-02  0.1269556E+00
          2   -1    0    0  502    0  0.00000000000E+00  0.00000000000E+00  0.17025675814E+04  0.17025675814E+04  0.00000000000E+00 0. -1.
          1   -1    0    0  501    0 -0.00000000000E+00 -0.00000000000E+00 -0.48098583822E+03  0.48098583822E+03  0.00000000000E+00 0. -1.
         25    2    1    2    0    0 -0.17819349872E+03  0.10259552049E+03  0.37174128714E+03  0.44282704033E+03  0.12500175710E+03 0.  0.
          2    1    1    2  501    0  0.82918555915E+02 -0.31632934547E+02 -0.43826197088E+03  0.44715733762E+03  0.00000000000E+00 0. -1.
          1    1    1    2  502    0  0.95274942806E+02 -0.70962585946E+02  0.12881024270E+04  0.12935690417E+04  0.00000000000E+00 0. -1.
         22    1    3    3    0    0 -0.93486280768E+02 -0.15737730606E+02  0.15762125215E+03  0.18393428170E+03  0.00000000000E+00 0. -1.
         22    1    3    3    0    0 -0.84707217953E+02  0.11833325110E+03  0.21412003499E+03  0.25889275863E+03  0.00000000000E+00 0. -1.
</event>
<event>
 7    1  0.6999029E-005  0.7581069E+03  0.7818608E-02  0.1100142E+00
          2   -1    0    0  502    0  0.00000000000E+00  0.00000000000E+00  0.15306423873E+04  0.15306423873E+04  0.00000000000E+00 0. -1.
          1   -1    0    0  501    0 -0.00000000000E+00 -0.00000000000E+00 -0.15419555167E+04  0.15419555167E+04  0.00000000000E+00 0. -1.
         25    2    1    2    0    0  0.12539536007E+03  0.67783537356E+03  0.58202806598E+02  0.70299465451E+03  0.12501650932E+03 0.  0.
          2    1    1    2  501    0  0.21048450537E+02  0.95292081598E+02 -0.10825097619E+04  0.10868997206E+04  0.00000000000E+00 0. -1.
          1    1    1    2  502    0 -0.14644381060E+03 -0.77312745516E+03  0.10129938259E+04  0.12827035288E+04  0.00000000000E+00 0. -1.
         22    1    3    3    0    0  0.89650428477E+02  0.18967216612E+03 -0.22597984744E+01  0.20980428169E+03  0.00000000000E+00 0. -1.
         22    1    3    3    0    0  0.35744931588E+02  0.48816320744E+03  0.60462605072E+02  0.49319037282E+03  0.00000000000E+00 0. -1.
</event>
<event>
 7    1  0.6999029E-005  0.4540498E+03  0.7818608E-02  0.1097253E+00
          2   -1    0    0  502    0  0.00000000000E+00  0.00000000000E+00  0.13166579250E+04  0.13166579250E+04  0.00000000000E+00 0. -1.
          1   -1    0    0  501    0 -0.00000000000E+00 -0.00000000000E+00 -0.55540574177E+03  0.55540574177E+03  0.00000000000E+00 0. -1.
         25    2    1    2    0    0  0.52670601519E+03 -0.10914181937E+03  0.80995161136E+03  0.98029484508E+03  0.12500082946E+03 0.  0.
          2    1    1    2  501    0 -0.16859690342E+03  0.13999772049E+02 -0.36647157581E+03  0.40363637762E+03  0.00000000000E+00 0. -1.
          1    1    1    2  502    0 -0.35810911178E+03  0.95142047320E+02  0.31777214767E+03  0.48813244406E+03  0.00000000000E+00 0. -1.
         22    1    3    3    0    0  0.31156282514E+03 -0.41863582078E+02  0.57086770723E+03  0.65170076927E+03  0.00000000000E+00 0.  1.
         22    1    3    3    0    0  0.21514319006E+03 -0.67278237291E+02  0.23908390413E+03  0.32859407581E+03  0.00000000000E+00 0.  1.
</event>
<event>
 7    1  0.6999029E-005  0.1889438E+03  0.7818608E-02  0.1330690E+00
          2   -1    0    0  502    0  0.00000000000E+00  0.00000000000E+00  0.94119941349E+03  0.94119941349E+03  0.00000000000E+00 0. -1.
          1   -1    0    0  501    0 -0.00000000000E+00 -0.00000000000E+00 -0.98748510853E+03  0.98748510853E+03  0.00000000000E+00 0. -1.
         25    2    1    2    0    0  0.17553028476E+03  0.13423496384E+03  0.18280516440E+03  0.31284700342E+03  0.12500245209E+03 0.  0.
          2    1    1    2  501    0 -0.15069205443E+03 -0.11192354946E+03 -0.91250328331E+03  0.93161001403E+03  0.00000000000E+00 0. -1.
          1    1    1    2  502    0 -0.24838230333E+02 -0.22311414380E+02  0.68341242387E+03  0.68422750456E+03  0.00000000000E+00 0. -1.
         22    1    3    3    0    0  0.69462717276E+02 -0.13837688470E+02  0.39571998633E+02  0.81132569227E+02  0.00000000000E+00 0. -1.
         22    1    3    3    0    0  0.10606756749E+03  0.14807265231E+03  0.14323316577E+03  0.23171443419E+03  0.00000000000E+00 0. -1.
</event>
<event>
 7    1  0.6999029E-005  0.3434892E+02  0.7818608E-02  0.1570748E+00
          2   -1    0    0  502    0  0.00000000000E+00  0.00000000000E+00  0.26887620699E+03  0.26887620699E+03  0.00000000000E+00 0. -1.
          1   -1    0    0  501    0 -0.00000000000E+00 -0.00000000000E+00 -0.16894513943E+04  0.16894513943E+04  0.00000000000E+00 0. -1.
         25    2    1    2    0    0  0.32095122150E+01  0.63003093000E+02  0.27111795288E+01  0.14004338338E+03  0.12500043215E+03 0.  0.
          2    1    1    2  501    0  0.66622479111E+01 -0.33627100027E+02 -0.16193870698E+04  0.16197498724E+04  0.00000000000E+00 0. -1.
          1    1    1    2  502    0 -0.98717601262E+01 -0.29375992973E+02  0.19610070299E+03  0.19853434546E+03  0.00000000000E+00 0. -1.
         22    1    3    3    0    0 -0.60239848309E+02  0.27203172181E+02 -0.73295163173E+01  0.66502433868E+02  0.00000000000E+00 0. -1.
         22    1    3    3    0    0  0.63449360524E+02  0.35799920819E+02  0.10040695846E+02  0.73540949508E+02  0.00000000000E+00 0. -1.
</event>
<event>
 7    1  0.6999029E-005  0.2328954E+03  0.7818608E-02  0.1311549E+00
          2   -1    0    0  502    0  0.00000000000E+00  0.00000000000E+00  0.28542744541E+04  0.28542744541E+04  0.00000000000E+00 0. -1.
          1   -1    0    0  501    0 -0.00000000000E+00 -0.00000000000E+00 -0.21670098458E+04  0.21670098458E+04  0.00000000000E+00 0. -1.
         25    2    1    2    0    0  0.11709254510E+02  0.26268060226E+03  0.20459045229E+04  0.20665158898E+04  0.12499760294E+03 0.  0.
          2    1    1    2  501    0  0.10996474285E+00 -0.23280437016E+03 -0.21500947858E+04  0.21626616644E+04  0.00000000000E+00 0. -1.
          1    1    1    2  502    0 -0.11819219253E+02 -0.29876232098E+02  0.79145487124E+03  0.79210674558E+03  0.00000000000E+00 0. -1.
         22    1    3    3    0    0 -0.29387434380E+02  0.20801473524E+03  0.12357555296E+04  0.12534853331E+04  0.00000000000E+00 0. -1.
         22    1    3    3    0    0  0.41096688890E+02  0.54665867014E+02  0.81014899329E+03  0.81303055673E+03  0.00000000000E+00 0. -1.
</event>
<event>
 7    1  0.6999029E-005  0.3520801E+03  0.7818608E-02  0.1124813E+00
          2   -1    0    0  502    0  0.00000000000E+00  0.00000000000E+00  0.13792671601E+04  0.13792671601E+04  0.00000000000E+00 0. -1.
          1   -1    0    0  501    0 -0.00000000000E+00 -0.00000000000E+00 -0.38212485696E+03  0.38212485696E+03  0.00000000000E+00 0. -1.
         25    2    1    2    0    0 -0.26043151850E+03  0.31540401792E+03  0.34416978400E+02  0.42908494650E+03  0.12500037023E+03 0.  0.
          2    1    1    2  501    0  0.10698818362E+03 -0.30677439316E+03 -0.31366106358E+02  0.32640593187E+03  0.00000000000E+00 0. -1.
          1    1    1    2  502    0  0.15344333489E+03 -0.86296247653E+01  0.99409143113E+03  0.10059011387E+04  0.00000000000E+00 0. -1.
         22    1    3    3    0    0 -0.21040374724E+02  0.27757090232E+02  0.42270144818E+02  0.54771512391E+02  0.00000000000E+00 0.  1.
         22    1    3    3    0    0 -0.23939114378E+03  0.28764692769E+03 -0.78531664177E+01  0.37431343411E+03  0.00000000000E+00 0.  1.
</event>
<event>
 7    1  0.6999029E-005  0.1435670E+04  0.7818608E-02  0.1071338E+00
          2   -1    0    0  502    0  0.00000000000E+00  0.00000000000E+00  0.15775586153E+04  0.15775586153E+04  0.00000000000E+00 0. -1.
          1   -1    0    0  501    0 -0.00000000000E+00 -0.00000000000E+00 -0.31747279337E+04  0.31747279337E+04  0.00000000000E+00 0. -1.
         25    2    1    2    0    0 -0.12515845687E+04  0.71935875719E+03 -0.50349821721E+03  0.15339741293E+04  0.12500088115E+03 0.  0.
          2    1    1    2  501    0  0.12032585368E+04 -0.77755428574E+03 -0.19160737627E+04  0.23924381784E+04  0.00000000000E+00 0. -1.
          1    1    1    2  502    0  0.48326031972E+02  0.58195528557E+02  0.82240266143E+03  0.82587424130E+03  0.00000000000E+00 0. -1.
         22    1    3    3    0    0 -0.61643997960E+03  0.32414569070E+03 -0.18276065865E+03  0.72004870363E+03  0.00000000000E+00 0. -1.
         22    1    3    3    0    0 -0.63514458915E+03  0.39521306648E+03 -0.32073755856E+03  0.81392542565E+03  0.00000000000E+00 0. -1.
</event>
<event>
 7    1  0.6999029E-005  0.6874061E+03  0.7818608E-02  0.1142152E+00
          2   -1    0    0  502    0  0.00000000000E+00  0.00000000000E+00  0.96366876046E+03  0.96366876046E+03  0.00000000000E+00 0. -1.
          1   -1    0    0  501    0 -0.00000000000E+00 -0.00000000000E+00 -0.36349077716E+04  0.36349077716E+04  0.00000000000E+00 0. -1.
         25    2    1    2    0    0  0.67035707702E+03 -0.88261000307E+02  0.50858516024E+03  0.85524446176E+03  0.12496243141E+03 0.  0.
          2    1    1    2  501    0  0.33818655570E+02 -0.53985589555E+02 -0.30027577098E+04  0.30034333701E+04  0.00000000000E+00 0. -1.
          1    1    1    2  502    0 -0.70417573259E+03  0.14224658986E+03 -0.17706646163E+03  0.73989870018E+03  0.00000000000E+00 0. -1.
         22    1    3    3    0    0  0.26216390535E+02  0.11271778105E+02  0.36805357456E-01  0.28536879103E+02  0.00000000000E+00 0.  1.
         22    1    3    3    0    0  0.64414068649E+03 -0.99532778412E+02  0.50854835488E+03  0.82670758265E+03  0.00000000000E+00 0.  1.
</event>
<event>
 7    1  0.6999029E-005  0.2575263E+03  0.7818608E-02  0.1190469E+00
          2   -1    0    0  502    0  0.00000000000E+00  0.00000000000E+00  0.10795047435E+04  0.10795047435E+04  0.00000000000E+00 0. -1.
          1   -1    0    0  501    0 -0.00000000000E+00 -0.00000000000E+00 -0.20968018441E+03  0.20968018441E+03  0.00000000000E+00 0. -1.
         25    2    1    2    0    0 -0.27899335307E+03  0.86614853520E+02  0.68894362349E+03  0.75868867484E+03  0.12500306026E+03 0.  0.
          2    1    1    2  501    0  0.53706290787E+02 -0.81348867219E+02 -0.11998701801E+03  0.15459265299E+03  0.00000000000E+00 0. -1.
          1    1    1    2  502    0  0.22528706228E+03 -0.52659863009E+01  0.30086795361E+03  0.37590360008E+03  0.00000000000E+00 0. -1.
         22    1    3    3    0    0 -0.19138904134E+03  0.25086269526E+02  0.31240149102E+03  0.36722442410E+03  0.00000000000E+00 0. -1.
         22    1    3    3    0    0 -0.87604311725E+02  0.61528583994E+02  0.37654213246E+03  0.39146425073E+03  0.00000000000E+00 0. -1.
</event>
<event>
 7    1  0.6999029E-005  0.2249460E+03  0.7818608E-02  0.1252743E+00
          2   -1    0    0  502    0  0.00000000000E+00  0.00000000000E+00  0.21995539405E+04  0.21995539405E+04  0.00000000000E+00 0. -1.
          1   -1    0    0  501    0 -0.00000000000E+00 -0.00000000000E+00 -0.47731337238E+03  0.47731337238E+03  0.00000000000E+00 0. -1.
         25    2    1    2    0    0  0.39773050836E+01 -0.21188306720E+03 -0.18675094727E+03  0.30888796024E+03  0.12500241018E+03 0.  0.
          2    1    1    2  501    0  0.48726688550E+02  0.23637240009E+03 -0.16552357045E+03  0.29265039566E+03  0.00000000000E+00 0. -1.
          1    1    1    2  502    0 -0.52703993634E+02 -0.24489332897E+02  0.20745150858E+04  0.20753289570E+04  0.00000000000E+00 0. -1.
         22    1    3    3    0    0 -0.19159729929E+02 -0.71077000381E+02 -0.14096349102E+03  0.15902748516E+03  0.00000000000E+00 0.  1.
         22    1    3    3    0    0  0.23137035012E+02 -0.14080606682E+03 -0.45787456251E+02  0.14986047508E+03  0.00000000000E+00 0.  1.
</event>
<event>
 7    1  0.6999029E-005  0.7625905E+03  0.7818608E-02  0.1069499E+00
          2   -1    0    0  502    0  0.00000000000E+00  0.00000000000E+00  0.17774773942E+04  0.17774773942E+04  0.00000000000E+00 0. -1.
          1   -1    0    0  501    0 -0.00000000000E+00 -0.00000000000E+00 -0.17651287855E+04  0.17651287855E+04  0.00000000000E+00 0. -1.
         25    2    1    2    0    0 -0.50261889796E+03 -0.73925830051E+03  0.82802117974E+03  0.12248967468E+04  0.12499749923E+03 0.  0.
          2    1    1    2  501    0  0.39906422641E+03  0.63627068298E+03 -0.14681384252E+04  0.16490976545E+04  0.00000000000E+00 0. -1.
          1    1    1    2  502    0  0.10355467155E+03  0.10298761753E+03  0.65246585407E+03  0.66861177830E+03  0.00000000000E+00 0. -1.
         22    1    3    3    0    0 -0.43559725363E+03 -0.64886510613E+03  0.66134874943E+03  0.10237934663E+04  0.00000000000E+00 0.  1.
         22    1    3    3    0    0 -0.67021644332E+02 -0.90393194377E+02  0.16667243031E+03  0.20110328049E+03  0.00000000000E+00 0.  1.
</event>
<event>
 7    1  0.6999029E-005  0.3029861E+03  0.7818608E-02  0.1205091E+00
          2   -1    0    0  502    0  0.00000000000E+00  0.00000000000E+00  0.91856105067E+03  0.91856105067E+03  0.00000000000E+00 0. -1.
          1   -1    0    0  501    0 -0.00000000000E+00 -0.00000000000E+00 -0.25244777741E+04  0.25244777741E+04  0.00000000000E+00 0. -1.
         25    2    1    2    0    0  0.31566240041E+03 -0.11371168740E+02 -0.21190334765E+04  0.21460901828E+04  0.12501257271E+03 0.  0.
          2    1    1    2  501    0 -0.25821857322E+03  0.52491968428E+02 -0.34601141751E+03  0.43492084262E+03  0.00000000000E+00 0. -1.
          1    1    1    2  502    0 -0.57443827195E+02 -0.41120799689E+02  0.85912817059E+03  0.86202779941E+03  0.00000000000E+00 0. -1.
         22    1    3    3    0    0  0.60830693739E+02 -0.40069950400E+02 -0.72635440827E+03  0.72999774016E+03  0.00000000000E+00 0.  1.
         22    1    3    3    0    0  0.25483170667E+03  0.28698781660E+02 -0.13926790683E+04  0.14160924426E+04  0.00000000000E+00 0.  1.
</event>
<event>
 7    1  0.6999029E-005  0.4153917E+03  0.7818608E-02  0.1130446E+00
          2   -1    0    0  502    0  0.00000000000E+00  0.00000000000E+00  0.11499593742E+04  0.11499593742E+04  0.00000000000E+00 0. -1.
          1   -1    0    0  501    0 -0.00000000000E+00 -0.00000000000E+00 -0.82330378642E+03  0.82330378642E+03  0.00000000000E+00 0. -1.
         25    2    1    2    0    0 -0.46691448144E+03 -0.10330633398E+03 -0.36315290706E+03  0.61334071725E+03  0.12500187962E+03 0.  0.
          2    1    1    2  501    0  0.36369425773E+03  0.39177839907E+02 -0.23001564057E+03  0.43210601842E+03  0.00000000000E+00 0. -1.
          1    1    1    2  502    0  0.10322022371E+03  0.64128494074E+02  0.91982413539E+03  0.92781642493E+03  0.00000000000E+00 0. -1.
         22    1    3    3    0    0 -0.12855859111E+03  0.21268505140E+02 -0.12938418863E+03  0.18362986937E+03  0.00000000000E+00 0. -1.
         22    1    3    3    0    0 -0.33835589034E+03 -0.12457483912E+03 -0.23376871843E+03  0.42971084788E+03  0.00000000000E+00 0. -1.
</event>
<event>
 7    1  0.6999029E-005  0.2297890E+03  0.7818608E-02  0.1200258E+00
          2   -1    0    0  502    0  0.00000000000E+00  0.00000000000E+00  0.18673096718E+04  0.18673096718E+04  0.00000000000E+00 0. -1.
          1   -1    0    0  501    0 -0.00000000000E+00 -0.00000000000E+00 -0.48785769629E+02  0.48785769629E+02  0.00000000000E+00 0. -1.
         25    2    1    2    0    0 -0.12234413000E+03  0.24220899540E+03  0.84078128601E+03  0.89228458915E+03  0.12500133412E+03 0.  0.
          2    1    1    2  501    0  0.33036443337E+02 -0.20150835875E+03  0.61428965389E+03  0.64733979030E+03  0.00000000000E+00 0. -1.
          1    1    1    2  502    0  0.89307686661E+02 -0.40700636655E+02  0.36345296230E+03  0.37647106200E+03  0.00000000000E+00 0. -1.
         22    1    3    3    0    0 -0.67886645592E+02  0.21254499985E+03  0.52457985574E+03  0.57005964483E+03  0.00000000000E+00 0.  1.
         22    1    3    3    0    0 -0.54457484405E+02  0.29663995550E+02  0.31620143026E+03  0.32222494432E+03  0.00000000000E+00 0.  1.
</event>
<event>
 7    1  0.6999029E-005  0.1078454E+04  0.7818608E-02  0.1127121E+00
          2   -1    0    0  502    0  0.00000000000E+00  0.00000000000E+00  0.12564964739E+04  0.12564964739E+04  0.00000000000E+00 0. -1.
          1   -1    0    0  501    0 -0.00000000000E+00 -0.00000000000E+00 -0.16519418269E+04  0.16519418269E+04  0.00000000000E+00 0. -1.
         25    2    1    2    0    0  0.86485186107E+03 -0.66741618448E+03 -0.98215940843E+02  0.11039405850E+04  0.12500135731E+03 0.  0.
          2    1    1    2  501    0  0.76740563540E+01  0.48153260461E+02 -0.66977423651E+03  0.67154683792E+03  0.00000000000E+00 0. -1.
          1    1    1    2  502    0 -0.87252591742E+03  0.61926292402E+03  0.37254482437E+03  0.11329508779E+04  0.00000000000E+00 0. -1.
         22    1    3    3    0    0  0.78875818236E+03 -0.61929104228E+03 -0.12355199888E+03  0.10104088092E+04  0.00000000000E+00 0.  1.
         22    1    3    3    0    0  0.76093678713E+02 -0.48125142199E+02  0.25336058039E+02  0.93531775823E+02  0.00000000000E+00 0.  1.
</event>
<event>
 7    1  0.6999029E-005  0.6192153E+02  0.7818608E-02  0.1540359E+00
          2   -1    0    0  502    0  0.00000000000E+00  0.00000000000E+00  0.28267082084E+04  0.28267082084E+04  0.00000000000E+00 0. -1.
          1   -1    0    0  501    0 -0.00000000000E+00 -0.00000000000E+00 -0.13434983638E+02  0.13434983638E+02  0.00000000000E+00 0. -1.
         25    2    1    2    0    0 -0.53213745672E+02  0.31906210133E+02  0.19278115656E+04  0.19328561223E+04  0.12500259135E+03 0.  0.
          2    1    1    2  501    0  0.60805717542E+02 -0.12469675247E+02  0.78591566311E+02  0.10014720356E+03  0.00000000000E+00 0. -1.
          1    1    1    2  502    0 -0.75919718702E+01 -0.19436534886E+02  0.80687009282E+03  0.80713986620E+03  0.00000000000E+00 0. -1.
         22    1    3    3    0    0  0.14851498615E+02 -0.33064277270E+02  0.27647892361E+03  0.27884477518E+03  0.00000000000E+00 0.  1.
         22    1    3    3    0    0 -0.68065244287E+02  0.64970487403E+02  0.16513326420E+04  0.16540113471E+04  0.00000000000E+00 0.  1.
</event>
<event>
 7    1  0.6999029E-005  0.4520536E+03  0.7818608E-02  0.1190940E+00
          2   -1    0    0  502    0  0.00000000000E+00  0.00000000000E+00  0.34310973869E+04  0.34310973869E+04  0.00000000000E+00 0. -1.
          1   -1    0    0  501    0 -0.00000000000E+00 -0.00000000000E+00 -0.15965158137E+03  0.15965158137E+03  0.00000000000E+00 0. -1.
         25    2    1    2    0    0  0.25147674651E+03  0.40830957970E+03  0.59007891586E+03  0.77056871028E+03  0.12500297361E+03 0.  0.
          2    1    1    2  501    0 -0.23281477873E+03 -0.35631347106E+03  0.58693793056E+03  0.72502285839E+03  0.00000000000E+00 0. -1.
          1    1    1    2  502    0 -0.18661967783E+02 -0.51996108635E+02  0.20944289591E+04  0.20951573996E+04  0.00000000000E+00 0. -1.
         22    1    3    3    0    0  0.21538999639E+03  0.39897118890E+03  0.51102335852E+03  0.68316596305E+03  0.00000000000E+00 0. -1.
         22    1    3    3    0    0  0.36086750120E+02  0.93383907990E+01  0.79055557342E+02  0.87402747231E+02  0.00000000000E+00 0. -1.
</event>
<event>
 7    1  0.6999029E-005  0.2320381E+03  0.7818608E-02  0.1216951E+00
          2   -1    0    0  502    0  0.00000000000E+00  0.00000000000E+00  0.20370585205E+04  0.20370585205E+04  0.00000000000E+00 0. -1.
          1   -1    0    0  501    0 -0.00000000000E+00 -0.00000000000E+00 -0.13465199771E+03  0.13465199771E+03  0.00000000000E+00 0. -1.
         25    2    1    2    0    0 -0.12075580219E+03 -0.26229658285E+03  0.15347296790E+03  0.35008566298E+03  0.12499823362E+03 0.  0.
          2    1    1    2  501    0  0.70964767472E+02  0.39653527561E+02  0.28519243700E+02  0.86149566056E+02  0.00000000000E+00 0. -1.
          1    1    1    2  502    0  0.49791034722E+02  0.22264305529E+03  0.17204143112E+04  0.17354752892E+04  0.00000000000E+00 0. -1.
         22    1    3    3    0    0 -0.12966554738E+03 -0.14337411712E+03  0.75124448694E+02  0.20739569530E+03  0.00000000000E+00 0. -1.
         22    1    3    3    0    0  0.89097451835E+01 -0.11892246573E+03  0.78348519209E+02  0.14268996768E+03  0.00000000000E+00 0. -1.
</event>
<event>
 7    1  0.6999029E-005  0.1291401E+03  0.7818608E-02  0.1288193E+00
          2   -1    0    0  502    0  0.00000000000E+00  0.00000000000E+00  0.55077387120E+03  0.55077387120E+03  0.00000000000E+00 0. -1.
          1   -1    0    0  501    0 -0.00000000000E+00 -0.00000000000E+00 -0.25806492842E+04  0.25806492842E+04  0.00000000000E+00 0. -1.
         25    2    1    2    0    0  0.12933387486E+03 -0.74014667806E+02  0.48143248447E+03  0.51923761581E+03  0.12500016934E+03 0.  0.
          2    1    1    2  501    0 -0.39893567280E+02  0.59776948136E+02 -0.25201627600E+04  0.25211872436E+04  0.00000000000E+00 0. -1.
          1    1    1    2  502    0 -0.89440307575E+02  0.14237719670E+02  0.88548625650E+01  0.90998295982E+02  0.00000000000E+00 0. -1.
         22    1    3    3    0    0  0.12027654426E+03 -0.53266908775E+02  0.21643151994E+03  0.25327142258E+03  0.00000000000E+00 0. -1.
         22    1    3    3    0    0  0.90573305908E+01 -0.20747759031E+02  0.26500096453E+03  0.26596619323E+03  0.00000000000E+00 0. -1.
</event>
<event>
 7    1  0.6999029E-005  0.1327906E+03  0.7818608E-02  0.1279780E+00
          2   -1    0    0  502    0  0.00000000000E+00  0.00000000000E+00  0.32900794354E+03  0.32900794354E+03  0.00000000000E+00 0. -1.
          1   -1    0    0  501    0 -0.00000000000E+00 -0.00000000000E+00 -0.61218593675E+03  0.61218593675E+03  0.00000000000E+00 0. -1.
         25    2    1    2    0    0  0.15673476682E+03 -0.83413788622E+02 -0.39438594376E+02  0.22069297356E+03  0.12500535424E+03 0.  0.
          2    1    1    2  501    0 -0.29218085656E+02  0.69809537528E+02 -0.46156570542E+03  0.46772852006E+03  0.00000000000E+00 0. -1.
          1    1    1    2  502    0 -0.12751668116E+03  0.13604251093E+02  0.21782630659E+03  0.25277238667E+03  0.00000000000E+00 0. -1.
         22    1    3    3    0    0  0.16162868618E+03 -0.59546848913E+02  0.24137128925E+01  0.17226574071E+03  0.00000000000E+00 0. -1.
         22    1    3    3    0    0 -0.48939193612E+01 -0.23866939709E+02 -0.41852307269E+02  0.48427232850E+02  0.00000000000E+00 0. -1.
</event>
<event>
 7    1  0.6999029E-005  0.5055229E+03  0.7818608E-02  0.1094797E+00
          2   -1    0    0  502    0  0.00000000000E+00  0.00000000000E+00  0.83119046330E+03  0.83119046330E+03  0.00000000000E+00 0. -1.
          1   -1    0    0  501    0 -0.00000000000E+00 -0.00000000000E+00 -0.12979014973E+04  0.12979014973E+04  0.00000000000E+00 0. -1.
         25    2    1    2    0    0 -0.29466746714E+01 -0.56886842322E+03  0.36914092003E+03  0.68956728280E+03  0.12497220824E+03 0.  0.
          2    1    1    2  501    0  0.84367421533E+02  0.13229703947E+03 -0.96449011407E+03  0.97717017382E+03  0.00000000000E+00 0. -1.
          1    1    1    2  502    0 -0.81420746862E+02  0.43657138376E+03  0.12863816003E+03  0.46235450398E+03  0.00000000000E+00 0. -1.
         22    1    3    3    0    0 -0.24690230296E+02 -0.16954583465E+03  0.17539969774E+03  0.24519472157E+03  0.00000000000E+00 0. -1.
         22    1    3    3    0    0  0.21743555625E+02 -0.39932258857E+03  0.19374122229E+03  0.44437256122E+03  0.00000000000E+00 0. -1.
</event>
<event>
 7    1  0.6999029E-005  0.1035176E+03  0.7818608E-02  0.1397266E+00
          2   -1    0    0  502    0  0.00000000000E+00  0.00000000000E+00  0.19412466127E+04  0.19412466127E+04  0.00000000000E+00 0. -1.
          1   -1    0    0  501    0 -0.00000000000E+00 -0.00000000000E+00 -0.17807506002E+03  0.17807506002E+03  0.00000000000E+00 0. -1.
         25    2    1    2    0    0 -0.92480748123E+02  0.92217192448E+02  0.61421359424E+03  0.64026547651E+03  0.12499936685E+03 0.  0.
          2    1    1    2  501    0  0.58360650507E+02 -0.84723572157E+02 -0.14875953948E+03  0.18086859814E+03  0.00000000000E+00 0. -1.
          1    1    1    2  502    0  0.34120097616E+02 -0.74936202902E+01  0.12977174979E+04  0.12981875981E+04  0.00000000000E+00 0. -1.
         22    1    3    3    0    0 -0.25246608582E+02  0.85147397257E+02  0.49767651850E+03  0.50553871026E+03  0.00000000000E+00 0.  1.
         22    1    3    3    0    0 -0.67234139541E+02  0.70697951908E+01  0.11653707574E+03  0.13472676625E+03  0.00000000000E+00 0.  1.
</event>
<event>
 7    1  0.6999029E-005  0.1154022E+03  0.7818608E-02  0.1254150E+00
          2   -1    0    0  502    0  0.00000000000E+00  0.00000000000E+00  0.71146384080E+03  0.71146384080E+03  0.00000000000E+00 0. -1.
          1   -1    0    0  501    0 -0.00000000000E+00 -0.00000000000E+00 -0.49270533695E+03  0.49270533695E+03  0.00000000000E+00 0. -1.
         25    2    1    2    0    0  0.12385868246E+03  0.80178747461E+02  0.16619548186E+03  0.25498339615E+03  0.12500395737E+03 0.  0.
          2    1    1    2  501    0 -0.10594570653E+03  0.35416806163E+02 -0.43431594484E+03  0.44845198498E+03  0.00000000000E+00 0. -1.
          1    1    1    2  502    0 -0.17912975928E+02 -0.11559555362E+03  0.48687896683E+03  0.50073379661E+03  0.00000000000E+00 0. -1.
         22    1    3    3    0    0  0.56407342643E+02 -0.13233532743E+02  0.11526885570E+03  0.12901094445E+03  0.00000000000E+00 0.  1.
         22    1    3    3    0    0  0.67451339819E+02  0.93412280204E+02  0.50926626154E+02  0.12597245170E+03  0.00000000000E+00 0.  1.
</event>
<event>
 7    1  0.6999029E-005  0.4669502E+03  0.7818608E-02  0.1064808E+00
          2   -1    0    0  502    0  0.00000000000E+00  0.00000000000E+00  0.27556431086E+04  0.27556431086E+04  0.00000000000E+00 0. -1.
          1   -1    0    0  501    0 -0.00000000000E+00 -0.00000000000E+00 -0.64943051135E+03  0.64943051135E+03  0.00000000000E+00 0. -1.
         25    2    1    2    0    0  0.33214689118E+03 -0.43241476369E+03  0.97972555595E+02  0.56791548211E+03  0.12500115198E+03 0.  0.
          2    1    1    2  501    0 -0.78088802270E+02  0.44686566325E+03 -0.28113198075E+03  0.53368714865E+03  0.00000000000E+00 0. -1.
          1    1    1    2  502    0 -0.25405808891E+03 -0.14450899556E+02  0.22893720224E+04  0.23034709892E+04  0.00000000000E+00 0. -1.
         22    1    3    3    0    0  0.19180093000E+03 -0.16465151262E+03  0.96542797406E+01  0.25296427114E+03  0.00000000000E+00 0. -1.
         22    1    3    3    0    0  0.14034596118E+03 -0.26776325107E+03  0.88318275855E+02  0.31495121097E+03  0.00000000000E+00 0. -1.
</event>
<event>
 7    1  0.6999029E-005  0.7199396E+02  0.7818608E-02  0.1462083E+00
          2   -1    0    0  502    0  0.00000000000E+00  0.00000000000E+00  0.11581183050E+04  0.11581183050E+04  0.00000000000E+00 0. -1.
          1   -1    0    0  501    0 -0.00000000000E+00 -0.00000000000E+00 -0.80376199403E+03  0.80376199403E+03  0.00000000000E+00 0. -1.
         25    2    1    2    0    0  0.26110715064E+02 -0.60607451762E+02  0.72081854150E+02  0.15867018327E+03  0.12500160284E+03 0.  0.
          2    1    1    2  501    0 -0.28399484989E+02 -0.11700781511E+02 -0.75890199501E+03  0.75952332227E+03  0.00000000000E+00 0. -1.
          1    1    1    2  502    0  0.22887699253E+01  0.72308233273E+02  0.10411764519E+04  0.10436867935E+04  0.00000000000E+00 0. -1.
         22    1    3    3    0    0  0.36093122627E+02 -0.86309189313E+02  0.14288953392E+02  0.94637010994E+02  0.00000000000E+00 0. -1.
         22    1    3    3    0    0 -0.99824075630E+01  0.25701737551E+02  0.57792900758E+02  0.64033172278E+02  0.00000000000E+00 0. -1.
</event>
<event>
 7    1  0.6999029E-005  0.2702153E+03  0.7818608E-02  0.1180147E+00
          2   -1    0    0  502    0  0.00000000000E+00  0.00000000000E+00  0.28714318501E+04  0.28714318501E+04  0.00000000000E+00 0. -1.
          1   -1    0    0  501    0 -0.00000000000E+00 -0.00000000000E+00 -0.18320669116E+04  0.18320669116E+04  0.00000000000E+00 0. -1.
         25    2    1    2    0    0 -0.33721608751E+02 -0.35225202953E+03  0.16808710815E+03  0.41121340300E+03  0.12499819066E+03 0.  0.
          2    1    1    2  501    0  0.56712197729E+02  0.87437097467E+02 -0.17020639448E+04  0.17052516505E+04  0.00000000000E+00 0. -1.
          1    1    1    2  502    0 -0.22990588978E+02  0.26481493207E+03  0.25733417752E+04  0.25870337082E+04  0.00000000000E+00 0. -1.
         22    1    3    3    0    0  0.34383318983E+02 -0.18074628366E+03  0.45046348948E+02  0.18942176547E+03  0.00000000000E+00 0.  1.
         22    1    3    3    0    0 -0.68104927734E+02 -0.17150574587E+03  0.12304075920E+03  0.22179163752E+03  0.00000000000E+00 0.  1.
</event>
<event>
 7    1  0.6999029E-005  0.1249332E+03  0.7818608E-02  0.1334613E+00
          2   -1    0    0  502    0  0.00000000000E+00  0.00000000000E+00  0.10090269497E+04  0.10090269497E+04  0.00000000000E+00 0. -1.
          1   -1    0    0  501    0 -0.00000000000E+00 -0.00000000000E+00 -0.98869865852E+02  0.98869865852E+02  0.00000000000E+00 0. -1.
         25    2    1    2    0    0 -0.61996661186E+02 -0.89846460263E+02  0.10189444506E+03  0.19474289329E+03  0.12500537641E+03 0.  0.
          2    1    1    2  501    0  0.11008004122E+03  0.81583560921E+02  0.39156174556E+02  0.14250157505E+03  0.00000000000E+00 0. -1.
          1    1    1    2  502    0 -0.48083380031E+02  0.82628993425E+01  0.76910646422E+03  0.77065234720E+03  0.00000000000E+00 0. -1.
         22    1    3    3    0    0 -0.10035256903E+03 -0.64188303614E+02  0.81207170915E+02  0.14417135998E+03  0.00000000000E+00 0. -1.
         22    1    3    3    0    0  0.38355907842E+02 -0.25658156650E+02  0.20687274144E+02  0.50571533302E+02  0.00000000000E+00 0. -1.
</event>
<event>
 7    1  0.6999029E-005  0.3695653E+03  0.7818608E-02  0.1151669E+00
          2   -1    0    0  502    0  0.00000000000E+00  0.00000000000E+00  0.69199432412E+03  0.69199432412E+03  0.00000000000E+00 0. -1.
          1   -1    0    0  501    0 -0.00000000000E+00 -0.00000000000E+00 -0.59903859168E+03  0.59903859168E+03  0.00000000000E+00 0. -1.
         25    2    1    2    0    0  0.94560956589E+02 -0.38558033814E+03  0.51113850873E+03  0.65916961953E+03  0.12501216152E+03 0.  0.
          2    1    1    2  501    0 -0.17843017452E+03  0.32109913480E+03 -0.31177369099E+03  0.48181408857E+03  0.00000000000E+00 0. -1.
          1    1    1    2  502    0  0.83869217929E+02  0.64481203339E+02 -0.10640908530E+03  0.15004920771E+03  0.00000000000E+00 0. -1.
         22    1    3    3    0    0  0.58780280799E+02 -0.23261454878E+03  0.20710941756E+03  0.31695261563E+03  0.00000000000E+00 0. -1.
         22    1    3    3    0    0  0.35780675790E+02 -0.15296578936E+03  0.30402909117E+03  0.34221700389E+03  0.00000000000E+00 0. -1.
</event>
<event>
 7    1  0.6999029E-005  0.8524946E+03  0.7818608E-02  0.1108267E+00
          2   -1    0    0  502    0  0.00000000000E+00  0.00000000000E+00  0.17483597705E+04  0.17483597705E+04  0.00000000000E+00 0. -1.
          1   -1    0    0  501    0 -0.00000000000E+00 -0.00000000000E+00 -0.17106426657E+04  0.17106426657E+04  0.00000000000E+00 0. -1.
         25    2    1    2    0    0 -0.46424690777E+03  0.63540065345E+03  0.53475131450E+03  0.95960582427E+03  0.12500075133E+03 0.  0.
          2    1    1    2  501    0  0.49577733150E+03 -0.70692444257E+03 -0.13719239199E+04  0.16210220763E+04  0.00000000000E+00 0. -1.
          1    1    1    2  502    0 -0.31530423724E+02  0.71523789117E+02  0.87488971009E+03  0.87837453563E+03  0.00000000000E+00 0. -1.
         22    1    3    3    0    0 -0.42111845662E+03  0.60682125293E+03  0.52683848361E+03  0.90726598929E+03  0.00000000000E+00 0. -1.
         22    1    3    3    0    0 -0.43128451146E+02  0.28579400524E+02  0.79128308828E+01  0.52339834975E+02  0.00000000000E+00 0. -1.
</event>
<event>
 7    1  0.6999029E-005  0.1119974E+03  0.7818608E-02  0.1364621E+00
          2   -1    0    0  502    0  0.00000000000E+00  0.00000000000E+00  0.68280930039E+03  0.68280930039E+03  0.00000000000E+00 0. -1.
          1   -1    0    0  501    0 -0.00000000000E+00 -0.00000000000E+00 -0.72758308388E+03  0.72758308388E+03  0.00000000000E+00 0. -1.
         25    2    1    2    0    0 -0.42406503501E+02  0.12710342587E+03  0.50071591268E+03  0.53319332940E+03  0.12500043560E+03 0.  0.
          2    1    1    2  501    0  0.18509369541E+01 -0.42082744705E+02 -0.69728225500E+03  0.69855345286E+03  0.00000000000E+00 0. -1.
          1    1    1    2  502    0  0.40555566546E+02 -0.85020681161E+02  0.15179255883E+03  0.17864560201E+03  0.00000000000E+00 0. -1.
         22    1    3    3    0    0 -0.66887314061E+02  0.10542342441E+03  0.47627655009E+03  0.49236913323E+03  0.00000000000E+00 0. -1.
         22    1    3    3    0    0  0.24480810561E+02  0.21680001455E+02  0.24439362590E+02  0.40824196166E+02  0.00000000000E+00 0. -1.
</event>
<event>
 7    1  0.6999029E-005  0.5082407E+03  0.7818608E-02  0.1129058E+00
          2   -1    0    0  502    0  0.00000000000E+00  0.00000000000E+00  0.39444660662E+04  0.39444660662E+04  0.00000000000E+00 0. -1.
          1   -1    0    0  501    0 -0.00000000000E+00 -0.00000000000E+00 -0.69010845702E+03  0.69010845702E+03  0.00000000000E+00 0. -1.
         25    2    1    2    0    0  0.39223913353E+03 -0.40322322633E+03  0.14034676231E+04  0.15171640600E+04  0.12499963163E+03 0.  0.
          2    1    1    2  501    0 -0.40400059394E+03  0.30288246587E+03 -0.53136769969E+03  0.73301152809E+03  0.00000000000E+00 0. -1.
          1    1    1    2  502    0  0.11761460414E+02  0.10034076046E+03  0.23822576858E+04  0.23843989351E+04  0.00000000000E+00 0. -1.
         22    1    3    3    0    0  0.30211719510E+03 -0.25932393345E+03  0.85795694919E+03  0.94584027652E+03  0.00000000000E+00 0. -1.
         22    1    3    3    0    0  0.90121938433E+02 -0.14389929287E+03  0.54551067389E+03  0.57132378351E+03  0.00000000000E+00 0. -1.
</event>
<event>
 7    1  0.6999029E-005  0.2859051E+03  0.7818608E-02  0.1171969E+00
          2   -1    0    0  502    0  0.00000000000E+00  0.00000000000E+00  0.15633891719E+04  0.15633891719E+04  0.00000000000E+00 0. -1.
          1   -1    0    0  501    0 -0.00000000000E+00 -0.00000000000E+00 -0.51631835027E+03  0.51631835027E+03  0.00000000000E+00 0. -1.
         25    2    1    2    0    0  0.29529652938E+03  0.23305972171E+03  0.10531972795E+04  0.11253302762E+04  0.12500738728E+03 0.  0.
          2    1    1    2  501    0 -0.24768924756E+03 -0.13606212260E+03 -0.43132814525E+03  0.51566154933E+03  0.00000000000E+00 0. -1.
          1    1    1    2  502    0 -0.47607281819E+02 -0.96997599113E+02  0.42520168734E+03  0.43871569659E+03  0.00000000000E+00 0. -1.
         22    1    3    3    0    0  0.24368313150E+03  0.12961060314E+03  0.81688953561E+03  0.86225801847E+03  0.00000000000E+00 0.  1.
         22    1    3    3    0    0  0.51613397878E+02  0.10344911857E+03  0.23630774389E+03  0.26307225775E+03  0.00000000000E+00 0.  1.
</event>
<event>
 7    1  0.6999029E-005  0.4752020E+02  0.7818608E-02  0.1501347E+00
          2   -1    0    0  502    0  0.00000000000E+00  0.00000000000E+00  0.17521206106E+04  0.17521206106E+04  0.00000000000E+00 0. -1.
          1   -1    0    0  501    0 -0.00000000000E+00 -0.00000000000E+00 -0.28969718067E+03  0.28969718067E+03  0.00000000000E+00 0. -1.
         25    2    1    2    0    0  0.40783731056E+02  0.10999082397E+02  0.42080119338E+03  0.44100196097E+03  0.12499917077E+03 0.  0.
          2    1    1    2  501    0 -0.40944326675E+02  0.24285680142E+02 -0.27733279824E+03  0.28138890014E+03  0.00000000000E+00 0. -1.
          1    1    1    2  502    0  0.16059561861E+00 -0.35284762539E+02  0.13189550348E+04  0.13194269302E+04  0.00000000000E+00 0. -1.
         22    1    3    3    0    0  0.36050058796E+02 -0.40560914387E+02  0.34477346350E+03  0.34901795892E+03  0.00000000000E+00 0. -1.
         22    1    3    3    0    0  0.47336722604E+01  0.51559996784E+02  0.76027729875E+02  0.91984002041E+02  0.00000000000E+00 0. -1.
</event>
<event>
 7    1  0.6999029E-005  0.8793651E+02  0.7818608E-02  0.1346966E+00
          2   -1    0    0  502    0  0.00000000000E+00  0.00000000000E+00  0.22250761713E+04  0.22250761713E+04  0.00000000000E+00 0. -1.
          1   -1    0    0  501    0 -0.00000000000E+00 -0.00000000000E+00 -0.93214526022E+02  0.93214526022E+02  0.00000000000E+00 0. -1.
         25    2    1    2    0    0 -0.61924964313E+02  0.12703928138E+03  0.34884544691E+03  0.39659899215E+03  0.12499573803E+03 0.  0.
          2    1    1    2  501    0  0.58283352914E+01 -0.62014777997E+02 -0.54140597496E+02  0.82528822114E+02  0.00000000000E+00 0. -1.
          1    1    1    2  502    0  0.56096629022E+02 -0.65024503385E+02  0.18371567958E+04  0.18391628830E+04  0.00000000000E+00 0. -1.
         22    1    3    3    0    0 -0.30784653386E+02  0.52357680750E+00  0.18361188649E+03  0.18617543843E+03  0.00000000000E+00 0.  1.
         22    1    3    3    0    0 -0.31140310928E+02  0.12651570457E+03  0.16523356042E+03  0.21042355372E+03  0.00000000000E+00 0.  1.
</event>
<event>
 7    1  0.6999029E-005  0.3202027E+03  0.7818608E-02  0.1169198E+00
          2   -1    0    0  502    0  0.00000000000E+00  0.00000000000E+00  0.28309839213E+04  0.28309839213E+04  0.00000000000E+00 0. -1.
          1   -1    0    0  501    0 -0.00000000000E+00 -0.00000000000E+00 -0.44826335343E+03  0.44826335343E+03  0.00000000000E+00 0. -1.
         25    2    1    2    0    0 -0.89701662845E+02  0.35357845190E+03  0.99438205595E+02  0.39821751796E+03  0.12500049964E+03 0.  0.
          2    1    1    2  501    0  0.93588508845E+00 -0.30844713308E+03 -0.21803577688E+03  0.37773020767E+03  0.00000000000E+00 0. -1.
          1    1    1    2  502    0  0.88765777756E+02 -0.45131318826E+02  0.25013181392E+04  0.25032995491E+04  0.00000000000E+00 0. -1.
         22    1    3    3    0    0 -0.23171417633E+01  0.72517366577E+02 -0.27617438157E+02  0.77632857035E+02  0.00000000000E+00 0.  1.
         22    1    3    3    0    0 -0.87384521082E+02  0.28106108533E+03  0.12705564375E+03  0.32058466092E+03  0.00000000000E+00 0.  1.
</event>
<event>
 7    1  0.6999029E-005  0.9307641E+02  0.7818608E-02  0.1400492E+00
          2   -1    0    0  502    0  0.00000000000E+00  0.00000000000E+00  0.29543021725E+02  0.29543021725E+02  0.00000000000E+00 0. -1.
          1   -1    0    0  501    0 -0.00000000000E+00 -0.00000000000E+00 -0.15562380130E+04  0.15562380130E+04  0.00000000000E+00 0. -1.
         25    2    1    2    0    0  0.68562002921E+02  0.66090331302E+02 -0.11719888294E+04  0.11824769079E+04  0.12500056589E+03 0.  0.
          2    1    1    2  501    0 -0.32156900604E+02  0.20003423017E+02 -0.28292481808E+03  0.28544816671E+03  0.00000000000E+00 0. -1.
          1    1    1    2  502    0 -0.36405102317E+02 -0.86093754319E+02 -0.71781343814E+02  0.11785596008E+03  0.00000000000E+00 0. -1.
         22    1    3    3    0    0  0.68799173618E+02  0.70834363765E+02 -0.11733797882E+04  0.11775274777E+04  0.00000000000E+00 0. -1.
         22    1    3    3    0    0 -0.23717069688E+00 -0.47440324625E+01  0.13909587633E+01  0.49494302931E+01  0.00000000000E+00 0. -1.
</event>
<event>
 7    1  0.6999029E-005  0.4090578E+03  0.7818608E-02  0.1259248E+00
          2   -1    0    0  502    0  0.00000000000E+00  0.00000000000E+00  0.14521385339E+04  0.14521385339E+04  0.00000000000E+00 0. -1.
          1   -1    0    0  501    0 -0.00000000000E+00 -0.00000000000E+00 -0.21993895864E+04  0.21993895864E+04  0.00000000000E+00 0. -1.
         25    2    1    2    0    0  0.11213876446E+03  0.39409201218E+03  0.12560812427E+04  0.13271209327E+04  0.12500506016E+03 0.  0.
          2    1    1    2  501    0 -0.29855987053E+02  0.25786082269E+01 -0.19079886872E+04  0.19082240067E+04  0.00000000000E+00 0. -1.
          1    1    1    2  502    0 -0.82282777412E+02 -0.39667062041E+03 -0.95343607972E+02  0.41618318099E+03  0.00000000000E+00 0. -1.
         22    1    3    3    0    0  0.12925323640E+03  0.23744982166E+03  0.76364889732E+03  0.81009163389E+03  0.00000000000E+00 0.  1.
         22    1    3    3    0    0 -0.17114471931E+02  0.15664219053E+03  0.49243234539E+03  0.51702929877E+03  0.00000000000E+00 0.  1.
</event>
<event>
 7    1  0.6999029E-005  0.1480916E+03  0.7818608E-02  0.1270895E+00
          2   -1    0    0  502    0  0.00000000000E+00  0.00000000000E+00  0.24031723379E+04  0.24031723379E+04  0.00000000000E+00 0. -1.
          1   -1    0    0  501    0 -0.00000000000E+00 -0.00000000000E+00 -0.41167533203E+03  0.41167533203E+03  0.00000000000E+00 0. -1.
         25    2    1    2    0    0 -0.10205340206E+03 -0.30060926990E+02 -0.12199768124E+03  0.20450829004E+03  0.12498660033E+03 0.  0.
          2    1    1    2  501    0 -0.46510393722E+01 -0.73744864945E+02 -0.24052400222E+03  0.25161822851E+03  0.00000000000E+00 0. -1.
          1    1    1    2  502    0  0.10670444143E+03  0.10380579193E+03  0.23540186893E+04  0.23587211514E+04  0.00000000000E+00 0. -1.
         22    1    3    3    0    0 -0.10401674577E+03 -0.53240349459E+02 -0.13444283099E+03  0.17812605934E+03  0.00000000000E+00 0. -1.
         22    1    3    3    0    0  0.19633437071E+01  0.23179422468E+02  0.12445149747E+02  0.26382230700E+02  0.00000000000E+00 0. -1.
</event>
<event>
 7    1  0.6999029E-005  0.3895108E+03  0.7818608E-02  0.1218639E+00
          2   -1    0    0  502    0  0.00000000000E+00  0.00000000000E+00  0.19356268918E+04  0.19356268918E+04  0.00000000000E+00 0. -1.
          1   -1    0    0  501    0 -0.00000000000E+00 -0.00000000000E+00 -0.25927103442E+04  0.25927103442E+04  0.00000000000E+00 0. -1.
         25    2    1    2    0    0 -0.27280550190E+03  0.32384988759E+03  0.43891076896E+03  0.62255062501E+03  0.12500010415E+03 0.  0.
          2    1    1    2  501    0  0.13967884405E+02 -0.45476378163E+02 -0.24749460049E+04  0.24754031853E+04  0.00000000000E+00 0. -1.
          1    1    1    2  502    0  0.25883761750E+03 -0.27837350943E+03  0.13789517835E+04  0.14303834256E+04  0.00000000000E+00 0. -1.
         22    1    3    3    0    0 -0.38768984555E+02  0.70832247965E+02  0.15982337646E+03  0.17906354508E+03  0.00000000000E+00 0.  1.
         22    1    3    3    0    0 -0.23403651735E+03  0.25301763963E+03  0.27908739250E+03  0.44348707993E+03  0.00000000000E+00 0.  1.
</event>
<event>
 7    1  0.6999029E-005  0.4020681E+03  0.7818608E-02  0.1251787E+00
          2   -1    0    0  502    0  0.00000000000E+00  0.00000000000E+00  0.18652201870E+04  0.18652201870E+04  0.00000000000E+00 0. -1.
          1   -1    0    0  501    0 -0.00000000000E+00 -0.00000000000E+00 -0.12713631529E+04  0.12713631529E+04  0.00000000000E+00 0. -1.
         25    2    1    2    0    0 -0.40831119441E+03 -0.13994922291E+03  0.53880129298E+03  0.70159511726E+03  0.12500023512E+03 0.  0.
          2    1    1    2  501    0  0.37549441340E+03  0.13920894459E+03 -0.11560443428E+04  0.12234433813E+04  0.00000000000E+00 0. -1.
          1    1    1    2  502    0  0.32816781008E+02  0.74027832366E+00  0.12111000840E+04  0.12115448413E+04  0.00000000000E+00 0. -1.
         22    1    3    3    0    0 -0.25138437883E+03 -0.23376036449E+02  0.33098513510E+03  0.41628320247E+03  0.00000000000E+00 0.  1.
         22    1    3    3    0    0 -0.15692681558E+03 -0.11657318646E+03  0.20781615788E+03  0.28531191480E+03  0.00000000000E+00 0.  1.
</event>
<event>
 7    1  0.6999029E-005  0.4468047E+03  0.7818608E-02  0.1101922E+00
          2   -1    0    0  502    0  0.00000000000E+00  0.00000000000E+00  0.96089536488E+03  0.96089536488E+03  0.00000000000E+00 0. -1.
          1   -1    0    0  501    0 -0.00000000000E+00 -0.00000000000E+00 -0.12888793289E+04  0.12888793289E+04  0.00000000000E+00 0. -1.
         25    2    1    2    0    0 -0.15099311122E+03  0.52849574586E+03  0.34246271461E+03  0.65955477310E+03  0.12500045915E+03 0.  0.
          2    1    1    2  501    0  0.12789549190E+02 -0.16130305699E+03 -0.10392390995E+04  0.10517605026E+04  0.00000000000E+00 0. -1.
          1    1    1    2  502    0  0.13820356203E+03 -0.36719268887E+03  0.36879242086E+03  0.53845941815E+03  0.00000000000E+00 0. -1.
         22    1    3    3    0    0 -0.38696833382E+02  0.71478621859E+02  0.69264804419E+01  0.81575820118E+02  0.00000000000E+00 0. -1.
         22    1    3    3    0    0 -0.11229627784E+03  0.45701712400E+03  0.33553623417E+03  0.57797895298E+03  0.00000000000E+00 0. -1.
</event>
<event>
 7    1  0.6999029E-005  0.1378742E+03  0.7818608E-02  0.1346803E+00
          2   -1    0    0  502    0  0.00000000000E+00  0.00000000000E+00  0.10867248030E+04  0.10867248030E+04  0.00000000000E+00 0. -1.
          1   -1    0    0  501    0 -0.00000000000E+00 -0.00000000000E+00 -0.36132994113E+03  0.36132994113E+03  0.00000000000E+00 0. -1.
         25    2    1    2    0    0  0.17490714721E+03 -0.23392902446E+02  0.79663178509E+03  0.82546197801E+03  0.12500215239E+03 0.  0.
          2    1    1    2  501    0 -0.13666404736E+03  0.12431230669E+02 -0.33177482939E+03  0.35903500491E+03  0.00000000000E+00 0. -1.
          1    1    1    2  502    0 -0.38243099852E+02  0.10961671777E+02  0.26053790621E+03  0.26355776123E+03  0.00000000000E+00 0. -1.
         22    1    3    3    0    0  0.12198464934E+03 -0.63985705848E+02  0.64908507214E+03  0.66354039523E+03  0.00000000000E+00 0. -1.
         22    1    3    3    0    0  0.52922497875E+02  0.40592803401E+02  0.14754671295E+03  0.16192158279E+03  0.00000000000E+00 0. -1.
</event>
<event>
 7    1  0.6999029E-005  0.2346651E+03  0.7818608E-02  0.1347826E+00
          2   -1    0    0  502    0  0.00000000000E+00  0.00000000000E+00  0.23848788022E+04  0.23848788022E+04  0.00000000000E+00 0. -1.
          1   -1    0    0  501    0 -0.00000000000E+00 -0.00000000000E+00 -0.59229600948E+02  0.59229600948E+02  0.00000000000E+00 0. -1.
         25    2    1    2    0    0  0.22487982192E+03  0.15932801215E+01  0.11682321633E+04  0.11962294292E+04  0.12499994807E+03 0.  0.
          2    1    1    2  501    0  0.18287374147E+02 -0.14227628798E+02 -0.28780215864E+02  0.36947994527E+02  0.00000000000E+00 0. -1.
          1    1    1    2  502    0 -0.24316719607E+03  0.12634348677E+02  0.11861972538E+04  0.12109309794E+04  0.00000000000E+00 0. -1.
         22    1    3    3    0    0  0.10491023600E+02  0.35336689565E+02  0.24969967087E+03  0.25240576229E+03  0.00000000000E+00 0. -1.
         22    1    3    3    0    0  0.21438879832E+03 -0.33743409444E+02  0.91853249246E+03  0.94382366691E+03  0.00000000000E+00 0. -1.
</event>
<event>
 7    1  0.6999029E-005  0.5074740E+03  0.7818608E-02  0.1187534E+00
          2   -1    0    0  502    0  0.00000000000E+00  0.00000000000E+00  0.16587417108E+04  0.16587417108E+04  0.00000000000E+00 0. -1.
          1   -1    0    0  501    0 -0.00000000000E+00 -0.00000000000E+00 -0.37330155303E+03  0.37330155303E+03  0.00000000000E+00 0. -1.
         25    2    1    2    0    0  0.43722978058E+03  0.31313882774E+03  0.35928077593E+03  0.65873673077E+03  0.12500239219E+03 0.  0.
          2    1    1    2  501    0 -0.38720471655E+03 -0.30271038081E+03  0.48183514372E+02  0.49384483213E+03  0.00000000000E+00 0. -1.
          1    1    1    2  502    0 -0.50025064034E+02 -0.10428446925E+02  0.87797586746E+03  0.87946170092E+03  0.00000000000E+00 0. -1.
         22    1    3    3    0    0  0.66899845561E+02  0.46337087293E+00  0.53519692062E+02  0.85674742411E+02  0.00000000000E+00 0. -1.
         22    1    3    3    0    0  0.37032993502E+03  0.31267545687E+03  0.30576108387E+03  0.57306198836E+03  0.00000000000E+00 0. -1.
</event>
<event>
 7    1  0.6999029E-005  0.2801399E+03  0.7818608E-02  0.1119047E+00
          2   -1    0    0  502    0  0.00000000000E+00  0.00000000000E+00  0.33672658339E+04  0.33672658339E+04  0.00000000000E+00 0. -1.
          1   -1    0    0  501    0 -0.00000000000E+00 -0.00000000000E+00 -0.19162943749E+03  0.19162943749E+03  0.00000000000E+00 0. -1.
         25    2    1    2    0    0 -0.24603231097E+03 -0.18048666195E+03  0.14241475372E+03  0.35918540919E+03  0.12499945165E+03 0.  0.
          2    1    1    2  501    0  0.18417439803E+03 -0.95668013117E+02  0.64215465840E+02  0.21724687265E+03  0.00000000000E+00 0. -1.
          1    1    1    2  502    0  0.61857912943E+02  0.27615467507E+03  0.29690061769E+04  0.29824629896E+04  0.00000000000E+00 0. -1.
         22    1    3    3    0    0 -0.24366817160E+03 -0.12673450448E+03  0.10694820741E+03  0.29474350128E+03  0.00000000000E+00 0. -1.
         22    1    3    3    0    0 -0.23641393677E+01 -0.53752157472E+02  0.35466546309E+02  0.64441907909E+02  0.00000000000E+00 0. -1.
</event>
<event>
 7    1  0.6999029E-005  0.1184931E+03  0.7818608E-02  0.1374287E+00
          2   -1    0    0  502    0  0.00000000000E+00  0.00000000000E+00  0.62860077125E+03  0.62860077125E+03  0.00000000000E+00 0. -1.
          1   -1    0    0  501    0 -0.00000000000E+00 -0.00000000000E+00 -0.83714645459E+02  0.83714645459E+02  0.00000000000E+00 0. -1.
         25    2    1    2    0    0 -0.10723651504E+03  0.16020181577E+02  0.64078792200E+02  0.17744708514E+03  0.12500024015E+03 0.  0.
          2    1    1    2  501    0 -0.11672909288E+02 -0.34847005677E+02 -0.24586640376E+01  0.36832263639E+02  0.00000000000E+00 0. -1.
          1    1    1    2  502    0  0.11890942433E+03  0.18826824100E+02  0.48326599763E+03  0.49803606793E+03  0.00000000000E+00 0. -1.
         22    1    3    3    0    0 -0.86845941257E+02  0.59185583125E+02  0.10397463627E+02  0.10560898642E+03  0.00000000000E+00 0.  1.
         22    1    3    3    0    0 -0.20390573783E+02 -0.43165401548E+02  0.53681328573E+02  0.71838098717E+02  0.00000000000E+00 0.  1.
</event>
<event>
 7    1  0.6999029E-005  0.1081537E+03  0.7818608E-02  0.1283540E+00
          2   -1    0    0  502    0  0.00000000000E+00  0.00000000000E+00  0.10635966054E+03  0.10635966054E+03  0.00000000000E+00 0. -1.
          1   -1    0    0  501    0 -0.00000000000E+00 -0.00000000000E+00 -0.84180562303E+03  0.84180562303E+03  0.00000000000E+00 0. -1.
         25    2    1    2    0    0 -0.14070881195E+03  0.11952391687E+03 -0.34636005811E+03  0.41191483430E+03  0.12499441748E+03 0.  0.
          2    1    1    2  501    0  0.66766167477E+02 -0.68817140808E+02 -0.42792893968E+03  0.43853927692E+03  0.00000000000E+00 0. -1.
          1    1    1    2  502    0  0.73942644475E+02 -0.50706776060E+02  0.38843035292E+02  0.97711172345E+02  0.00000000000E+00 0. -1.
         22    1    3    3    0    0 -0.39100848030E+02  0.36185140985E+02 -0.14847136554E+02  0.55305318086E+02  0.00000000000E+00 0. -1.
         22    1    3    3    0    0 -0.10160796392E+03  0.83338775882E+02 -0.33151292156E+03  0.35660951622E+03  0.00000000000E+00 0. -1.
</event>
<event>
 7    1  0.6999029E-005  0.8261271E+02  0.7818608E-02  0.1486600E+00
          2   -1    0    0  502    0  0.00000000000E+00  0.00000000000E+00  0.37300976577E+03  0.37300976577E+03  0.00000000000E+00 0. -1.
          1   -1    0    0  501    0 -0.00000000000E+00 -0.00000000000E+00 -0.10396220862E+03  0.10396220862E+03  0.00000000000E+00 0. -1.
         25    2    1    2    0    0  0.20112069451E+02 -0.75775402773E+02 -0.50142707524E+01  0.14763577568E+03  0.12499908938E+03 0.  0.
          2    1    1    2  501    0 -0.21241196272E+02 -0.73595459409E+01 -0.16000691717E+02  0.27592996774E+02  0.00000000000E+00 0. -1.
          1    1    1    2  502    0  0.11291268212E+01  0.83134948714E+02  0.29006251962E+03  0.30174320194E+03  0.00000000000E+00 0. -1.
         22    1    3    3    0    0  0.83333859450E+01 -0.97571101600E+02  0.32064115877E+02  0.10304209196E+03  0.00000000000E+00 0. -1.
         22    1    3    3    0    0  0.11778683506E+02  0.21795698827E+02 -0.37078386629E+02  0.44593683718E+02  0.00000000000E+00 0. -1.
</event>
<event>
 7    1  0.6999029E-005  0.6344930E+02  0.7818608E-02  0.1395240E+00
          2   -1    0    0  502    0  0.00000000000E+00  0.00000000000E+00  0.22050709998E+03  0.22050709998E+03  0.00000000000E+00 0. -1.
          1   -1    0    0  501    0 -0.00000000000E+00 -0.00000000000E+00 -0.11081039826E+04  0.11081039826E+04  0.00000000000E+00 0. -1.
         25    2    1    2    0    0 -0.38661389581E+02  0.11392639263E+03 -0.68037325662E+03  0.70214365800E+03  0.12499608855E+03 0.  0.
          2    1    1    2  501    0  0.24526492794E+02 -0.52471396207E+02 -0.41002114550E+03  0.41409194151E+03  0.00000000000E+00 0. -1.
          1    1    1    2  502    0  0.14134896787E+02 -0.61454996420E+02  0.20279751950E+03  0.21237548307E+03  0.00000000000E+00 0. -1.
         22    1    3    3    0    0  0.34176952284E+02  0.44268617817E+01 -0.24283064447E+03  0.24526390494E+03  0.00000000000E+00 0.  1.
         22    1    3    3    0    0 -0.72838341865E+02  0.10949953085E+03 -0.43754261215E+03  0.45687975306E+03  0.00000000000E+00 0.  1.
</event>
<event>
 7    1  0.6999029E-005  0.5588117E+03  0.7818608E-02  0.1112345E+00
          2   -1    0    0  502    0  0.00000000000E+00  0.00000000000E+00  0.31911360654E+04  0.31911360654E+04  0.00000000000E+00 0. -1.
          1   -1    0    0  501    0 -0.00000000000E+00 -0.00000000000E+00 -0.43743286062E+03  0.43743286062E+03  0.00000000000E+00 0. -1.
         25    2    1    2    0    0 -0.78820375322E+02 -0.61592679863E+03  0.83340403301E+03  0.10467885598E+04  0.12500213503E+03 0.  0.
          2    1    1    2  501    0 -0.63374659395E+02  0.93811965180E+02 -0.28731339801E+03  0.30881389369E+03  0.00000000000E+00 0. -1.
          1    1    1    2  502    0  0.14219503472E+03  0.52211483345E+03  0.22076125698E+04  0.22729664726E+04  0.00000000000E+00 0. -1.
         22    1    3    3    0    0 -0.99839401218E+02 -0.46443722562E+03  0.68561722385E+03  0.83411079613E+03  0.00000000000E+00 0.  1.
         22    1    3    3    0    0  0.21019025896E+02 -0.15148957301E+03  0.14778680916E+03  0.21267776363E+03  0.00000000000E+00 0.  1.
</event>
<event>
 7    1  0.6999029E-005  0.1891158E+03  0.7818608E-02  0.1225239E+00
          2   -1    0    0  502    0  0.00000000000E+00  0.00000000000E+00  0.29394525093E+03  0.29394525093E+03  0.00000000000E+00 0. -1.
          1   -1    0    0  501    0 -0.00000000000E+00 -0.00000000000E+00 -0.14237615846E+04  0.14237615846E+04  0.00000000000E+00 0. -1.
         25    2    1    2    0    0  0.14672424866E+03  0.57055007029E+02  0.20759795255E+03  0.28897059867E+03  0.12499527199E+03 0.  0.
          2    1    1    2  501    0 -0.12309009501E+03 -0.14539333522E+03 -0.13224188943E+04  0.13360696559E+04  0.00000000000E+00 0. -1.
          1    1    1    2  502    0 -0.23634153647E+02  0.88338328190E+02 -0.14995391901E+02  0.92666580947E+02  0.00000000000E+00 0. -1.
         22    1    3    3    0    0 -0.16962692234E+02 -0.38710071619E+01  0.52780587214E+02  0.55574346698E+02  0.00000000000E+00 0.  1.
         22    1    3    3    0    0  0.16368694089E+03  0.60926014191E+02  0.15481736534E+03  0.23339625197E+03  0.00000000000E+00 0.  1.
</event>
<event>
 7    1  0.6999029E-005  0.1261488E+04  0.7818608E-02  0.1137436E+00
          2   -1    0    0  502    0  0.00000000000E+00  0.00000000000E+00  0.31763655047E+04  0.31763655047E+04  0.00000000000E+00 0. -1.
          1   -1    0    0  501    0 -0.00000000000E+00 -0.00000000000E+00 -0.11855093199E+04  0.11855093199E+04  0.00000000000E+00 0. -1.
         25    2    1    2    0    0  0.12602952949E+04  0.32238465176E+02  0.15581894732E+04  0.20082240147E+04  0.12500284018E+03 0.  0.
          2    1    1    2  501    0  0.59859920561E+00  0.36741053891E+02 -0.67373814436E+03  0.67473946863E+03  0.00000000000E+00 0. -1.
          1    1    1    2  502    0 -0.12608938941E+04 -0.68979519068E+02  0.11064048560E+04  0.16789113413E+04  0.00000000000E+00 0. -1.
         22    1    3    3    0    0  0.28094920477E+01  0.86708229960E+01  0.13059969716E+02  0.15926054941E+02  0.00000000000E+00 0. -1.
         22    1    3    3    0    0  0.12574858029E+04  0.23567642180E+02  0.15451295034E+04  0.19922979598E+04  0.00000000000E+00 0. -1.
</event>
<event>
 7    1  0.6999029E-005  0.7053268E+02  0.7818608E-02  0.1362784E+00
          2   -1    0    0  502    0  0.00000000000E+00  0.00000000000E+00  0.10065786636E+02  0.10065786636E+02  0.00000000000E+00 0. -1.
          1   -1    0    0  501    0 -0.00000000000E+00 -0.00000000000E+00 -0.49927528812E+04  0.49927528812E+04  0.00000000000E+00 0. -1.
         25    2    1    2    0    0  0.39425775970E+01  0.68347452899E+01 -0.43874753804E+04  0.43892627706E+04  0.12500079492E+03 0.  0.
          2    1    1    2  501    0  0.61767811275E+02 -0.34052845431E+02 -0.39104911402E+03  0.39735911763E+03  0.00000000000E+00 0. -1.
          1    1    1    2  502    0 -0.65710388872E+02  0.27218100142E+02 -0.20416260014E+03  0.21619677953E+03  0.00000000000E+00 0. -1.
         22    1    3    3    0    0 -0.36304480282E+02 -0.44653008326E+02 -0.16374279046E+04  0.16384389061E+04  0.00000000000E+00 0.  1.
         22    1    3    3    0    0  0.40247057879E+02  0.51487753616E+02 -0.27500474758E+04  0.27508238645E+04  0.00000000000E+00 0.  1.
</event>
<event>
 7    1  0.6999029E-005  0.1638180E+03  0.7818608E-02  0.1314333E+00
          2   -1    0    0  502    0  0.00000000000E+00  0.00000000000E+00  0.42234184332E+03  0.42234184332E+03  0.00000000000E+00 0. -1.
          1   -1    0    0  501    0 -0.00000000000E+00 -0.00000000000E+00 -0.99722532638E+03  0.99722532638E+03  0.00000000000E+00 0. -1.
         25    2    1    2    0    0  0.32950110418E+02 -0.17796006577E+03 -0.16572012539E+01  0.21996146250E+03  0.12499921554E+03 0.  0.
          2    1    1    2  501    0 -0.66573209786E+02  0.14874490106E+03 -0.87728964275E+03  0.89229712267E+03  0.00000000000E+00 0. -1.
          1    1    1    2  502    0  0.33623099367E+02  0.29215164710E+02  0.30406336093E+03  0.30730858453E+03  0.00000000000E+00 0. -1.
         22    1    3    3    0    0  0.80697410995E+02 -0.10334941987E+03  0.41719609303E+01  0.13118910011E+03  0.00000000000E+00 0. -1.
         22    1    3    3    0    0 -0.47747300577E+02 -0.74610645896E+02 -0.58291621842E+01  0.88772362395E+02  0.00000000000E+00 0. -1.
</event>
<event>
 7    1  0.6999029E-005  0.1030835E+04  0.7818608E-02  0.1149367E+00
          2   -1    0    0  502    0  0.00000000000E+00  0.00000000000E+00  0.13278378671E+04  0.13278378671E+04  0.00000000000E+00 0. -1.
          1   -1    0    0  501    0 -0.00000000000E+00 -0.00000000000E+00 -0.22195168661E+04  0.22195168661E+04  0.00000000000E+00 0. -1.
         25    2    1    2    0    0 -0.14092930037E+03  0.10515102335E+04  0.20203260772E+03  0.10871877265E+04  0.12500055686E+03 0.  0.
          2    1    1    2  501    0  0.12393648213E+03 -0.10164347676E+04 -0.16286565896E+04  0.19238040896E+04  0.00000000000E+00 0. -1.
          1    1    1    2  502    0  0.16992818237E+02 -0.35075465925E+02  0.53494498287E+03  0.53636291714E+03  0.00000000000E+00 0. -1.
         22    1    3    3    0    0 -0.13377795327E+03  0.10288749241E+04  0.17670634110E+03  0.10524757865E+04  0.00000000000E+00 0.  1.
         22    1    3    3    0    0 -0.71513470980E+01  0.22635309422E+02  0.25326266620E+02  0.34711940005E+02  0.00000000000E+00 0.  1.
</event>
<event>
 7    1  0.6999029E-005  0.9658676E+02  0.7818608E-02  0.1473497E+00
          2   -1    0    0  502    0  0.00000000000E+00  0.00000000000E+00  0.30651388834E+02  0.30651388834E+02  0.00000000000E+00 0. -1.
          1   -1    0    0  501    0 -0.00000000000E+00 -0.00000000000E+00 -0.14223400344E+04  0.14223400344E+04  0.00000000000E+00 0. -1.
         25    2    1    2    0    0 -0.94790612590E+02 -0.13451505839E+02 -0.82423664705E+03  0.83914079695E+03  0.12500009404E+03 0.  0.
          2    1    1    2  501    0 -0.18561902015E+01  0.21010253623E+02 -0.48814786959E+03  0.48860333480E+03  0.00000000000E+00 0. -1.
          1    1    1    2  502    0  0.96646802791E+02 -0.75587477833E+01 -0.79304128909E+02  0.12524729147E+03  0.00000000000E+00 0. -1.
         22    1    3    3    0    0  0.43613887235E+01  0.29971965026E+02 -0.40585317720E+03  0.40698174633E+03  0.00000000000E+00 0. -1.
         22    1    3    3    0    0 -0.99152001313E+02 -0.43423470865E+02 -0.41838346985E+03  0.43215905062E+03  0.00000000000E+00 0. -1.
</event>
<event>
 7    1  0.6999029E-005  0.6592473E+03  0.7818608E-02  0.1136303E+00
          2   -1    0    0  502    0  0.00000000000E+00  0.00000000000E+00  0.17628305824E+04  0.17628305824E+04  0.00000000000E+00 0. -1.
          1   -1    0    0  501    0 -0.00000000000E+00 -0.00000000000E+00 -0.97229711566E+03  0.97229711566E+03  0.00000000000E+00 0. -1.
         25    2    1    2    0    0  0.36182784502E+03 -0.62320909213E+03 -0.21066482178E+03  0.76112652170E+03  0.12499981182E+03 0.  0.
          2    1    1    2  501    0 -0.44753099086E+02  0.55488154198E+02 -0.41213372897E+03  0.41825349453E+03  0.00000000000E+00 0. -1.
          1    1    1    2  502    0 -0.31707474593E+03  0.56772093793E+03  0.14133320175E+04  0.15557476818E+04  0.00000000000E+00 0. -1.
         22    1    3    3    0    0  0.14686049995E+03 -0.27831165464E+03 -0.15546043286E+03  0.35098907353E+03  0.00000000000E+00 0.  1.
         22    1    3    3    0    0  0.21496734507E+03 -0.34489743749E+03 -0.55204388919E+02  0.41013744817E+03  0.00000000000E+00 0.  1.
</event>
<event>
 7    1  0.6999029E-005  0.1415807E+03  0.7818608E-02  0.1319490E+00
          2   -1    0    0  502    0  0.00000000000E+00  0.00000000000E+00  0.61889128562E+03  0.61889128562E+03  0.00000000000E+00 0. -1.
          1   -1    0    0  501    0 -0.00000000000E+00 -0.00000000000E+00 -0.25436388748E+03  0.25436388748E+03  0.00000000000E+00 0. -1.
         25    2    1    2    0    0 -0.12370144647E+03  0.13913367794E+03  0.24040211034E+03  0.32875295774E+03  0.12500041748E+03 0.  0.
          2    1    1    2  501    0  0.84995836628E+02 -0.10874909701E+03 -0.18537430592E+03  0.23111532109E+03  0.00000000000E+00 0. -1.
          1    1    1    2  502    0  0.38705609841E+02 -0.30384580925E+02  0.30949959372E+03  0.31338689427E+03  0.00000000000E+00 0. -1.
         22    1    3    3    0    0 -0.10115424709E+03  0.13009967851E+03  0.25257563088E+03  0.30158341693E+03  0.00000000000E+00 0. -1.
         22    1    3    3    0    0 -0.22547199377E+02  0.90339994327E+01 -0.12173520539E+02  0.27169540810E+02  0.00000000000E+00 0. -1.
</event>
<event>
 7    1  0.6999029E-005  0.1035716E+03  0.7818608E-02  0.1347646E+00
          2   -1    0    0  502    0  0.00000000000E+00  0.00000000000E+00  0.16103826178E+04  0.16103826178E+04  0.00000000000E+00 0. -1.
          1   -1    0    0  501    0 -0.00000000000E+00 -0.00000000000E+00 -0.18747491227E+03  0.18747491227E+03  0.00000000000E+00 0. -1.
         25    2    1    2    0    0  0.13357912261E+03  0.39301027819E+02  0.78724874769E+03  0.80918103115E+03  0.12500159055E+03 0.  0.
          2    1    1    2  501    0 -0.84695481475E+02 -0.58661550362E+02 -0.16053352078E+03  0.19074987121E+03  0.00000000000E+00 0. -1.
          1    1    1    2  502    0 -0.48883641137E+02  0.19360522542E+02  0.79619247858E+03  0.79792662767E+03  0.00000000000E+00 0. -1.
         22    1    3    3    0    0  0.87783441802E+02  0.54205207567E+02  0.71466262876E+03  0.72207119464E+03  0.00000000000E+00 0.  1.
         22    1    3    3    0    0  0.45795680811E+02 -0.14904179747E+02  0.72586118932E+02  0.87109836508E+02  0.00000000000E+00 0.  1.
</event>
<event>
 7    1  0.6999029E-005  0.3791536E+03  0.7818608E-02  0.1194326E+00
          2   -1    0    0  502    0  0.00000000000E+00  0.00000000000E+00  0.22782166240E+03  0.22782166240E+03  0.00000000000E+00 0. -1.
          1   -1    0    0  501    0 -0.00000000000E+00 -0.00000000000E+00 -0.14339868821E+04  0.14339868821E+04  0.00000000000E+00 0. -1.
         25    2    1    2    0    0 -0.34613261198E+03 -0.23024672933E+03 -0.48190561140E+03  0.64859721113E+03  0.12499593010E+03 0.  0.
          2    1    1    2  501    0  0.31903744339E+03  0.17286380079E+03 -0.82094441544E+03  0.89756142806E+03  0.00000000000E+00 0. -1.
          1    1    1    2  502    0  0.27095168597E+02  0.57382928540E+02  0.96684807178E+02  0.11564990527E+03  0.00000000000E+00 0. -1.
         22    1    3    3    0    0 -0.22064293546E+03 -0.18291961834E+03 -0.24818187428E+03  0.37912680525E+03  0.00000000000E+00 0. -1.
         22    1    3    3    0    0 -0.12548967652E+03 -0.47327110988E+02 -0.23372373712E+03  0.26947040588E+03  0.00000000000E+00 0. -1.
</event>
<event>
 7    1  0.6999029E-005  0.3520792E+03  0.7818608E-02  0.1171387E+00
          2   -1    0    0  502    0  0.00000000000E+00  0.00000000000E+00  0.15881685893E+04  0.15881685893E+04  0.00000000000E+00 0. -1.
          1   -1    0    0  501    0 -0.00000000000E+00 -0.00000000000E+00 -0.37584897708E+03  0.37584897708E+03  0.00000000000E+00 0. -1.
         25    2    1    2    0    0 -0.37928384813E+03  0.44810722381E+02  0.88970610290E+03  0.97625110520E+03  0.12500013029E+03 0.  0.
          2    1    1    2  501    0  0.34793202583E+03  0.37763998558E+02 -0.23606516526E+03  0.42214876103E+03  0.00000000000E+00 0. -1.
          1    1    1    2  502    0  0.31351822301E+02 -0.82574720939E+02  0.55867867458E+03  0.56561770016E+03  0.00000000000E+00 0. -1.
         22    1    3    3    0    0 -0.17208813464E+03  0.63087666482E+01  0.55149401046E+03  0.57775407414E+03  0.00000000000E+00 0.  1.
         22    1    3    3    0    0 -0.20719571350E+03  0.38501955733E+02  0.33821209244E+03  0.39849703106E+03  0.00000000000E+00 0.  1.
</event>
<event>
 7    1  0.6999029E-005  0.2340333E+03  0.7818608E-02  0.1272678E+00
          2   -1    0    0  502    0  0.00000000000E+00  0.00000000000E+00  0.96555787580E+03  0.96555787580E+03  0.00000000000E+00 0. -1.
          1   -1    0    0  501    0 -0.00000000000E+00 -0.00000000000E+00 -0.14816435910E+04  0.14816435910E+04  0.00000000000E+00 0. -1.
         25    2    1    2    0    0 -0.10216281634E+03  0.18212263657E+03  0.11222001329E+03  0.26799616519E+03  0.12499086917E+03 0.  0.
          2    1    1    2  501    0  0.79027921010E+02 -0.22183532727E+03 -0.13931844496E+04  0.14129470037E+04  0.00000000000E+00 0. -1.
          1    1    1    2  502    0  0.23134895326E+02  0.39712690699E+02  0.76487872108E+03  0.76625829792E+03  0.00000000000E+00 0. -1.
         22    1    3    3    0    0 -0.21375583053E+02 -0.94399242509E+01  0.42885659490E+02  0.48838586288E+02  0.00000000000E+00 0. -1.
         22    1    3    3    0    0 -0.80787233283E+02  0.19156256082E+03  0.69334353803E+02  0.21915757890E+03  0.00000000000E+00 0. -1.
</event>
<event>
 7    1  0.6999029E-005  0.3920215E+02  0.7818608E-02  0.1567341E+00
          2   -1    0    0  502    0  0.00000000000E+00  0.00000000000E+00  0.15029952523E+04  0.15029952523E+04  0.00000000000E+00 0. -1.
          1   -1    0    0  501    0 -0.00000000000E+00 -0.00000000000E+00 -0.15679049730E+03  0.15679049730E+03  0.00000000000E+00 0. -1.
         25    2    1    2    0    0  0.76701898284E+01  0.45444819117E+02  0.32787944705E+03  0.35391324738E+03  0.12500236589E+03 0.  0.
          2    1    1    2  501    0 -0.28416715620E+02 -0.27031148542E+02 -0.14092990885E+03  0.14628544673E+03  0.00000000000E+00 0. -1.
          1    1    1    2  502    0  0.20746525792E+02 -0.18413670575E+02  0.11592552168E+04  0.11595870555E+04  0.00000000000E+00 0. -1.
         22    1    3    3    0    0 -0.21215799908E+02 -0.29382716050E+02  0.35501517878E+02  0.50732750170E+02  0.00000000000E+00 0.  1.
         22    1    3    3    0    0  0.28885989736E+02  0.74827535168E+02  0.29237792917E+03  0.30318049721E+03  0.00000000000E+00 0.  1.
</event>
<event>
 7    1  0.6999029E-005  0.8308904E+03  0.7818608E-02  0.1127480E+00
          2   -1    0    0  502    0  0.00000000000E+00  0.00000000000E+00  0.90902278981E+03  0.90902278981E+03  0.00000000000E+00 0. -1.
          1   -1    0    0  501    0 -0.00000000000E+00 -0.00000000000E+00 -0.21974185375E+04  0.21974185375E+04  0.00000000000E+00 0. -1.
         25    2    1    2    0    0 -0.79787326214E+03  0.29980839547E+03 -0.13973078370E+04  0.16415175072E+04  0.12499487388E+03 0.  0.
          2    1    1    2  501    0  0.73593483920E+03 -0.28823985873E+03 -0.44527442068E+03  0.90716680573E+03  0.00000000000E+00 0. -1.
          1    1    1    2  502    0  0.61938422938E+02 -0.11568536732E+02  0.55418651000E+03  0.55775701443E+03  0.00000000000E+00 0. -1.
         22    1    3    3    0    0 -0.13107776625E+03  0.44471868956E+02 -0.32491732335E+03  0.35317190566E+03  0.00000000000E+00 0.  1.
         22    1    3    3    0    0 -0.66679549588E+03  0.25533652651E+03 -0.10723905137E+04  0.12883456015E+04  0.00000000000E+00 0.  1.
</event>
<event>
 7    1  0.6999029E-005  0.1173387E+03  0.7818608E-02  0.1278766E+00
          2   -1    0    0  502    0  0.00000000000E+00  0.00000000000E+00  0.25179281703E+04  0.25179281703E+04  0.00000000000E+00 0. -1.
          1   -1    0    0  501    0 -0.00000000000E+00 -0.00000000000E+00 -0.16695921550E+02  0.16695921550E+02  0.00000000000E+00 0. -1.
         25    2    1    2    0    0 -0.31483346801E+02 -0.45187849721E+02  0.13465269227E+04  0.13534371676E+04  0.12499708106E+03 0.  0.
          2    1    1    2  501    0  0.48558193685E+02  0.12995911548E+03  0.44217622754E+03  0.46342969917E+03  0.00000000000E+00 0. -1.
          1    1    1    2  502    0 -0.17074846884E+02 -0.84771265755E+02  0.71252909850E+03  0.71775722505E+03  0.00000000000E+00 0. -1.
         22    1    3    3    0    0 -0.20394151281E+02 -0.69194371011E+02  0.39438260489E+03  0.40092570562E+03  0.00000000000E+00 0. -1.
         22    1    3    3    0    0 -0.11089195520E+02  0.24006521290E+02  0.95214431779E+03  0.95251146199E+03  0.00000000000E+00 0. -1.
</event>
<event>
 7    1  0.6999029E-005  0.3645037E+03  0.7818608E-02  0.1249475E+00
          2   -1    0    0  502    0  0.00000000000E+00  0.00000000000E+00  0.10981878256E+04  0.10981878256E+04  0.00000000000E+00 0. -1.
          1   -1    0    0  501    0 -0.00000000000E+00 -0.00000000000E+00 -0.79097787369E+03  0.79097787369E+03  0.00000000000E+00 0. -1.
         25    2    1    2    0    0 -0.37690151483E+03 -0.91939176453E+02  0.12760684216E+03  0.42710125756E+03  0.12499765597E+03 0.  0.
          2    1    1    2  501    0  0.34367719115E+03  0.10834212253E+03 -0.59012370737E+03  0.69144632274E+03  0.00000000000E+00 0. -1.
          1    1    1    2  502    0  0.33224323675E+02 -0.16402946078E+02  0.76972681708E+03  0.77061811895E+03  0.00000000000E+00 0. -1.
         22    1    3    3    0    0 -0.33816581180E+03 -0.10851993639E+03  0.80999845640E+02  0.36427142059E+03  0.00000000000E+00 0.  1.
         22    1    3    3    0    0 -0.38735703027E+02  0.16580759937E+02  0.46606996522E+02  0.62829836972E+02  0.00000000000E+00 0.  1.
</event>
<event>
 7    1  0.6999029E-005  0.3099064E+03  0.7818608E-02  0.1156459E+00
          2   -1    0    0  502    0  0.00000000000E+00  0.00000000000E+00  0.25834010263E+03  0.25834010263E+03  0.00000000000E+00 0. -1.
          1   -1    0    0  501    0 -0.00000000000E+00 -0.00000000000E+00 -0.99316705390E+03  0.99316705390E+03  0.00000000000E+00 0. -1.
         25    2    1    2    0    0 -0.47900571611E+02 -0.36059956282E+03 -0.40685377112E+03  0.55989389309E+03  0.12499868390E+03 0.  0.
          2    1    1    2  501    0  0.99209180148E+02  0.66160760474E+02 -0.37096625891E+03  0.38966097175E+03  0.00000000000E+00 0. -1.
          1    1    1    2  502    0 -0.51308608537E+02  0.29443880235E+03  0.42993078754E+02  0.30195229169E+03  0.00000000000E+00 0. -1.
         22    1    3    3    0    0 -0.25434786001E+02 -0.34895609010E+03 -0.33775712234E+03  0.48630973139E+03  0.00000000000E+00 0.  1.
         22    1    3    3    0    0 -0.22465785610E+02 -0.11643472724E+02 -0.69096648782E+02  0.73584161699E+02  0.00000000000E+00 0.  1.
</event>
<event>
 7    1  0.6999029E-005  0.8818014E+03  0.7818608E-02  0.1156880E+00
          2   -1    0    0  502    0  0.00000000000E+00  0.00000000000E+00  0.94105930583E+03  0.94105930583E+03  0.00000000000E+00 0. -1.
          1   -1    0    0  501    0 -0.00000000000E+00 -0.00000000000E+00 -0.12285563976E+04  0.12285563976E+04  0.00000000000E+00 0. -1.
         25    2    1    2    0    0 -0.23745948430E+02  0.87710938160E+03 -0.52436137393E+03  0.10297884422E+04  0.12499859122E+03 0.  0.
          2    1    1    2  501    0 -0.15964907650E+02 -0.88984301804E+03 -0.94211899267E+01  0.89003608570E+03  0.00000000000E+00 0. -1.
          1    1    1    2  502    0  0.39710856080E+02  0.12733636434E+02  0.24628547213E+03  0.24979117552E+03  0.00000000000E+00 0. -1.
         22    1    3    3    0    0 -0.40259293818E+02  0.84243784417E+03 -0.47745832274E+03  0.96916911939E+03  0.00000000000E+00 0. -1.
         22    1    3    3    0    0  0.16513345387E+02  0.34671537432E+02 -0.46903051192E+02  0.60619322785E+02  0.00000000000E+00 0. -1.
</event>
<event>
 7    1  0.6999029E-005  0.5438091E+03  0.7818608E-02  0.1173991E+00
          2   -1    0    0  502    0  0.00000000000E+00  0.00000000000E+00  0.35968025207E+04  0.35968025207E+04  0.00000000000E+00 0. -1.
          1   -1    0    0  501    0 -0.00000000000E+00 -0.00000000000E+00 -0.81665074591E+03  0.81665074591E+03  0.00000000000E+00 0. -1.
         25    2    1    2    0    0 -0.48370519114E+03 -0.28608027908E+03 -0.28510466306E+03  0.64243476393E+03  0.12500047598E+03 0.  0.
          2    1    1    2  501    0  0.47064854933E+03  0.23212206705E+03 -0.15740803209E+03  0.54787589796E+03  0.00000000000E+00 0. -1.
          1    1    1    2  502    0  0.13056641805E+02  0.53958212036E+02  0.32226644700E+04  0.32231426047E+04  0.00000000000E+00 0. -1.
         22    1    3    3    0    0 -0.39977371220E+03 -0.28515585893E+03 -0.25456491168E+03  0.55311497820E+03  0.00000000000E+00 0. -1.
         22    1    3    3    0    0 -0.83931478939E+02 -0.92442015663E+00 -0.30539751380E+02  0.89319785736E+02  0.00000000000E+00 0. -1.
</event>
<event>
 7    1  0.6999029E-005  0.5091243E+02  0.7818608E-02  0.1505383E+00
          2   -1    0    0  502    0  0.00000000000E+00  0.00000000000E+00  0.10401727033E+03  0.10401727033E+03  0.00000000000E+00 0. -1.
          1   -1    0    0  501    0 -0.00000000000E+00 -0.00000000000E+00 -0.44438207283E+03  0.44438207283E+03  0.00000000000E+00 0. -1.
         25    2    1    2    0    0 -0.38049999872E+02  0.42229540500E+02  0.16919980540E+02  0.13835498569E+03  0.12499871896E+03 0.  0.
          2    1    1    2  501    0  0.30883317573E+02  0.85217816159E+01 -0.35735624547E+03  0.35878947343E+03  0.00000000000E+00 0. -1.
          1    1    1    2  502    0  0.71666822989E+01 -0.50751322116E+02  0.71462433730E-01  0.51254884046E+02  0.00000000000E+00 0. -1.
         22    1    3    3    0    0 -0.79665832284E+02  0.46646187728E+02  0.25198028657E+02  0.95694578275E+02  0.00000000000E+00 0. -1.
         22    1    3    3    0    0  0.41615832412E+02 -0.44166472279E+01 -0.82780481172E+01  0.42660407414E+02  0.00000000000E+00 0. -1.
</event>
<event>
 7    1  0.6999029E-005  0.1817824E+03  0.7818608E-02  0.1172691E+00
          2   -1    0    0  502    0  0.00000000000E+00  0.00000000000E+00  0.32180433532E+04  0.32180433532E+04  0.00000000000E+00 0. -1.
          1   -1    0    0  501    0 -0.00000000000E+00 -0.00000000000E+00 -0.21287574112E+04  0.21287574112E+04  0.00000000000E+00 0. -1.
         25    2    1    2    0    0 -0.21866646531E+03  0.83727755633E+02  0.78019581030E+03  0.82411260375E+03  0.12502288251E+03 0.  0.
          2    1    1    2  501    0  0.52432507274E+02 -0.16018658515E+03 -0.20999529761E+04  0.21067062946E+04  0.00000000000E+00 0. -1.
          1    1    1    2  502    0  0.16623395803E+03  0.76458829517E+02  0.24090431078E+04  0.24159818660E+04  0.00000000000E+00 0. -1.
         22    1    3    3    0    0 -0.18734848610E+03  0.12880890202E+02  0.56610735230E+03  0.59644187219E+03  0.00000000000E+00 0. -1.
         22    1    3    3    0    0 -0.31317979207E+02  0.70846865430E+02  0.21408845799E+03  0.22767073156E+03  0.00000000000E+00 0. -1.
</event>
<event>
 7    1  0.6999029E-005  0.2232347E+03  0.7818608E-02  0.1308572E+00
          2   -1    0    0  502    0  0.00000000000E+00  0.00000000000E+00  0.11990828377E+04  0.11990828377E+04  0.00000000000E+00 0. -1.
          1   -1    0    0  501    0 -0.00000000000E+00 -0.00000000000E+00 -0.51595035258E+03  0.51595035258E+03  0.00000000000E+00 0. -1.
         25    2    1    2    0    0 -0.20471715464E+03 -0.10834941373E+03 -0.37969084369E+03  0.46199420216E+03  0.12499918872E+03 0.  0.
          2    1    1    2  501    0  0.17027989544E+03  0.10835022092E+03  0.12568933765E+02  0.20222015542E+03  0.00000000000E+00 0. -1.
          1    1    1    2  502    0  0.34437259209E+02 -0.80718763969E-03  0.10502543950E+04  0.10508188326E+04  0.00000000000E+00 0. -1.
         22    1    3    3    0    0 -0.14210260387E+03 -0.92515156208E+02 -0.16047379540E+03  0.23346100995E+03  0.00000000000E+00 0.  1.
         22    1    3    3    0    0 -0.62614550771E+02 -0.15834257522E+02 -0.21921704829E+03  0.22853319221E+03  0.00000000000E+00 0.  1.
</event>
<event>
 7    1  0.6999029E-005  0.1117395E+04  0.7818608E-02  0.1109860E+00
          2   -1    0    0  502    0  0.00000000000E+00  0.00000000000E+00  0.90936404360E+03  0.90936404360E+03  0.00000000000E+00 0. -1.
          1   -1    0    0  501    0 -0.00000000000E+00 -0.00000000000E+00 -0.20568511904E+04  0.20568511904E+04  0.00000000000E+00 0. -1.
         25    2    1    2    0    0  0.10737793562E+03 -0.11115298211E+04 -0.76651252294E+03  0.13602188912E+04  0.12500167943E+03 0.  0.
          2    1    1    2  501    0 -0.49283367487E+02  0.11178298588E+04 -0.67464583031E+03  0.13065678091E+04  0.00000000000E+00 0. -1.
          1    1    1    2  502    0 -0.58094568131E+02 -0.63000376767E+01  0.29367120640E+03  0.29942853369E+03  0.00000000000E+00 0. -1.
         22    1    3    3    0    0  0.91739418897E+02 -0.10723086693E+04 -0.75993980790E+03  0.13174864382E+04  0.00000000000E+00 0.  1.
         22    1    3    3    0    0  0.15638516722E+02 -0.39221151875E+02 -0.65727150442E+01  0.42732453039E+02  0.00000000000E+00 0.  1.
</event>
<event>
 7    1  0.6999029E-005  0.2154262E+03  0.7818608E-02  0.1183076E+00
          2   -1    0    0  502    0  0.00000000000E+00  0.00000000000E+00  0.46421527476E+03  0.46421527476E+03  0.00000000000E+00 0. -1.
          1   -1    0    0  501    0 -0.00000000000E+00 -0.00000000000E+00 -0.12585004546E+04  0.12585004546E+04  0.00000000000E+00 0. -1.
         25    2    1    2    0    0  0.16840381026E+03  0.28942603646E+03  0.10324065391E+03  0.37203669791E+03  0.12500159231E+03 0.  0.
          2    1    1    2  501    0 -0.12112393641E+03 -0.17209068301E+03 -0.10956148003E+04  0.11156424166E+04  0.00000000000E+00 0. -1.
          1    1    1    2  502    0 -0.47279873849E+02 -0.11733535345E+03  0.19808896655E+03  0.23503661483E+03  0.00000000000E+00 0. -1.
         22    1    3    3    0    0  0.17652419223E+03  0.23854007210E+03  0.11654356766E+03  0.31881743930E+03  0.00000000000E+00 0. -1.
         22    1    3    3    0    0 -0.81203819718E+01  0.50885964362E+02 -0.13302913754E+02  0.53219258607E+02  0.00000000000E+00 0. -1.
</event>
<event>
 7    1  0.6999029E-005  0.2203624E+03  0.7818608E-02  0.1344406E+00
          2   -1    0    0  502    0  0.00000000000E+00  0.00000000000E+00  0.10907853247E+03  0.10907853247E+03  0.00000000000E+00 0. -1.
          1   -1    0    0  501    0 -0.00000000000E+00 -0.00000000000E+00 -0.91022796296E+03  0.91022796296E+03  0.00000000000E+00 0. -1.
         25    2    1    2    0    0 -0.22265843075E+03 -0.40008131869E+02 -0.27043088330E+03  0.37407945820E+03  0.12500060402E+03 0.  0.
          2    1    1    2  501    0  0.20951453989E+03  0.61753259525E+02 -0.56315064915E+03  0.60402687120E+03  0.00000000000E+00 0. -1.
          1    1    1    2  502    0  0.13143890859E+02 -0.21745127656E+02  0.32432101964E+02  0.41200166037E+02  0.00000000000E+00 0. -1.
         22    1    3    3    0    0 -0.84404268922E+02 -0.48596314537E+02 -0.19100635636E+03  0.21440408244E+03  0.00000000000E+00 0.  1.
         22    1    3    3    0    0 -0.13825416182E+03  0.85881826679E+01 -0.79424526943E+02  0.15967537576E+03  0.00000000000E+00 0.  1.
</event>
<event>
 7    1  0.6999029E-005  0.6290695E+02  0.7818608E-02  0.1400711E+00
          2   -1    0    0  502    0  0.00000000000E+00  0.00000000000E+00  0.51827857027E+03  0.51827857027E+03  0.00000000000E+00 0. -1.
          1   -1    0    0  501    0 -0.00000000000E+00 -0.00000000000E+00 -0.42113845361E+02  0.42113845361E+02  0.00000000000E+00 0. -1.
         25    2    1    2    0    0 -0.83447482474E+02  0.71400425438E+02  0.32929410058E+03  0.36894477878E+03  0.12499656805E+03 0.  0.
          2    1    1    2  501    0  0.34256223270E+02 -0.44772417566E+02  0.34954672871E+02  0.66331646768E+02  0.00000000000E+00 0. -1.
          1    1    1    2  502    0  0.49191259203E+02 -0.26628007872E+02  0.11191595146E+03  0.12511599009E+03  0.00000000000E+00 0. -1.
         22    1    3    3    0    0  0.93127407370E+01  0.31033997224E+02  0.21020799512E+03  0.21269047307E+03  0.00000000000E+00 0. -1.
         22    1    3    3    0    0 -0.92760223211E+02  0.40366428214E+02  0.11908610547E+03  0.15625430571E+03  0.00000000000E+00 0. -1.
</event>
<event>
 7    1  0.6999029E-005  0.4761295E+03  0.7818608E-02  0.1115127E+00
          2   -1    0    0  502    0  0.00000000000E+00  0.00000000000E+00  0.23981526389E+04  0.23981526389E+04  0.00000000000E+00 0. -1.
          1   -1    0    0  501    0 -0.00000000000E+00 -0.00000000000E+00 -0.70989315085E+03  0.70989315085E+03  0.00000000000E+00 0. -1.
         25    2    1    2    0    0 -0.38103258342E+03 -0.45865721758E+03 -0.16995586488E+03  0.63250317081E+03  0.12499196861E+03 0.  0.
          2    1    1    2  501    0  0.74013117686E+02  0.10477310658E+03 -0.26864099170E+03  0.29769670451E+03  0.00000000000E+00 0. -1.
          1    1    1    2  502    0  0.30701946573E+03  0.35388411100E+03  0.21268563447E+04  0.21778459145E+04  0.00000000000E+00 0. -1.
         22    1    3    3    0    0 -0.35769738359E+03 -0.40579254284E+03 -0.18684640767E+03  0.57229938503E+03  0.00000000000E+00 0. -1.
         22    1    3    3    0    0 -0.23335199826E+02 -0.52864674742E+02  0.16890542789E+02  0.60203785779E+02  0.00000000000E+00 0. -1.
</event>
<event>
 7    1  0.6999029E-005  0.2214568E+03  0.7818608E-02  0.1186497E+00
          2   -1    0    0  502    0  0.00000000000E+00  0.00000000000E+00  0.67955916554E+03  0.67955916554E+03  0.00000000000E+00 0. -1.
          1   -1    0    0  501    0 -0.00000000000E+00 -0.00000000000E+00 -0.74025707364E+03  0.74025707364E+03  0.00000000000E+00 0. -1.
         25    2    1    2    0    0 -0.50669559808E+02 -0.17069309149E+03  0.27682602526E+02  0.21930614794E+03  0.12500129706E+03 0.  0.
          2    1    1    2  501    0  0.16864873042E+03  0.16009845654E+03 -0.61669444907E+03  0.65907962613E+03  0.00000000000E+00 0. -1.
          1    1    1    2  502    0 -0.11797917062E+03  0.10594634953E+02  0.52831393845E+03  0.54143046511E+03  0.00000000000E+00 0. -1.
         22    1    3    3    0    0 -0.65813613880E+02 -0.17820370432E+03  0.37497365544E+01  0.19000540132E+03  0.00000000000E+00 0. -1.
         22    1    3    3    0    0  0.15144054072E+02  0.75106128317E+01  0.23932865972E+02  0.29300746620E+02  0.00000000000E+00 0. -1.
</event>
<event>
 7    1  0.6999029E-005  0.1255275E+04  0.7818608E-02  0.1096403E+00
          2   -1    0    0  502    0  0.00000000000E+00  0.00000000000E+00  0.28724254268E+04  0.28724254268E+04  0.00000000000E+00 0. -1.
          1   -1    0    0  501    0 -0.00000000000E+00 -0.00000000000E+00 -0.18417042581E+04  0.18417042581E+04  0.00000000000E+00 0. -1.
         25    2    1    2    0    0 -0.48835282892E+03  0.11161937199E+04  0.30981967582E+03  0.12633249437E+04  0.12499910383E+03 0.  0.
          2    1    1    2  501    0  0.54143220704E+03 -0.11479940540E+04 -0.10692289122E+04  0.16596052692E+04  0.00000000000E+00 0. -1.
          1    1    1    2  502    0 -0.53079378124E+02  0.31800334171E+02  0.17901304051E+04  0.17911994721E+04  0.00000000000E+00 0. -1.
         22    1    3    3    0    0 -0.19494993100E+02  0.10783276697E+03  0.54371538869E+02  0.12232834760E+03  0.00000000000E+00 0. -1.
         22    1    3    3    0    0 -0.46885783582E+03  0.10083609529E+04  0.25544813695E+03  0.11409965961E+04  0.00000000000E+00 0. -1.
</event>
<event>
 7    1  0.6999029E-005  0.2015765E+03  0.7818608E-02  0.1209734E+00
          2   -1    0    0  502    0  0.00000000000E+00  0.00000000000E+00  0.54792617396E+03  0.54792617396E+03  0.00000000000E+00 0. -1.
          1   -1    0    0  501    0 -0.00000000000E+00 -0.00000000000E+00 -0.36774424202E+03  0.36774424202E+03  0.00000000000E+00 0. -1.
         25    2    1    2    0    0  0.18608977870E+03 -0.18621414744E+03  0.24682786552E+03  0.38190938921E+03  0.12500268767E+03 0.  0.
          2    1    1    2  501    0 -0.41028278014E+02  0.92322587628E+02 -0.25731749854E+03  0.27644000224E+03  0.00000000000E+00 0. -1.
          1    1    1    2  502    0 -0.14506150068E+03  0.93891559810E+02  0.19067156496E+03  0.25732102453E+03  0.00000000000E+00 0. -1.
         22    1    3    3    0    0  0.39341421378E+02 -0.39832720596E+02  0.13554269589E+03  0.14664997605E+03  0.00000000000E+00 0. -1.
         22    1    3    3    0    0  0.14674835732E+03 -0.14638142684E+03  0.11128516964E+03  0.23525941316E+03  0.00000000000E+00 0. -1.
</event>
<event>
 7    1  0.6999029E-005  0.4220801E+03  0.7818608E-02  0.1175348E+00
          2   -1    0    0  502    0  0.00000000000E+00  0.00000000000E+00  0.35861879078E+03  0.35861879078E+03  0.00000000000E+00 0. -1.
          1   -1    0    0  501    0 -0.00000000000E+00 -0.00000000000E+00 -0.14618376778E+04  0.14618376778E+04  0.00000000000E+00 0. -1.
         25    2    1    2    0    0 -0.29825663651E+03 -0.32764321037E+03 -0.10185645380E+03  0.47149384628E+03  0.12499846148E+03 0.  0.
          2    1    1    2  501    0  0.32588999057E+03  0.26285682737E+03 -0.11284742976E+04  0.12036412414E+04  0.00000000000E+00 0. -1.
          1    1    1    2  502    0 -0.27633354053E+02  0.64786383005E+02  0.12711186439E+03  0.14532138090E+03  0.00000000000E+00 0. -1.
         22    1    3    3    0    0 -0.24140792469E+03 -0.21202972066E+03 -0.11663253007E+03  0.34181506055E+03  0.00000000000E+00 0.  1.
         22    1    3    3    0    0 -0.56848711821E+02 -0.11561348971E+03  0.14776076272E+02  0.12967878573E+03  0.00000000000E+00 0.  1.
</event>
<event>
 7    1  0.6999029E-005  0.3712661E+03  0.7818608E-02  0.1104990E+00
          2   -1    0    0  502    0  0.00000000000E+00  0.00000000000E+00  0.67429167886E+03  0.67429167886E+03  0.00000000000E+00 0. -1.
          1   -1    0    0  501    0 -0.00000000000E+00 -0.00000000000E+00 -0.56187107039E+03  0.56187107039E+03  0.00000000000E+00 0. -1.
         25    2    1    2    0    0  0.33423739237E+03  0.33258573380E+03  0.24428662518E+02  0.48841520869E+03  0.12499900696E+03 0.  0.
          2    1    1    2  501    0 -0.18587738309E+03 -0.22039993101E+02 -0.21792466673E+03  0.28727569199E+03  0.00000000000E+00 0. -1.
          1    1    1    2  502    0 -0.14836000928E+03 -0.31054574070E+03  0.30591661268E+03  0.46047184858E+03  0.00000000000E+00 0. -1.
         22    1    3    3    0    0  0.31142810164E+03  0.24301905456E+03  0.27064007933E+02  0.39595224951E+03  0.00000000000E+00 0.  1.
         22    1    3    3    0    0  0.22809290733E+02  0.89566679244E+02 -0.26353454152E+01  0.92462959178E+02  0.00000000000E+00 0.  1.
</event>
<event>
 7    1  0.6999029E-005  0.1233105E+04  0.7818608E-02  0.1075021E+00
          2   -1    0    0  502    0  0.00000000000E+00  0.00000000000E+00  0.29342542515E+04  0.29342542515E+04  0.00000000000E+00 0. -1.
          1   -1    0    0  501    0 -0.00000000000E+00 -0.00000000000E+00 -0.16792715133E+04  0.16792715133E+04  0.00000000000E+00 0. -1.
         25    2    1    2    0    0  0.11495964292E+03 -0.12301328589E+04 -0.57714001725E+03  0.13693638290E+04  0.12499650602E+03 0.  0.
          2    1    1    2  501    0 -0.31211208446E+02  0.12311027723E+04 -0.16745474357E+03  0.12428311497E+04  0.00000000000E+00 0. -1.
          1    1    1    2  502    0 -0.83748434477E+02 -0.96991340804E+00  0.19995774990E+04  0.20013307861E+04  0.00000000000E+00 0. -1.
         22    1    3    3    0    0 -0.21504073421E+02 -0.15229698461E+03 -0.49521840400E+02  0.16158344399E+03  0.00000000000E+00 0. -1.
         22    1    3    3    0    0  0.13646371634E+03 -0.10778358743E+04 -0.52761817685E+03  0.12077803850E+04  0.00000000000E+00 0. -1.
</event>
<event>
 7    1  0.6999029E-005  0.3333042E+03  0.7818608E-02  0.1118105E+00
          2   -1    0    0  502    0  0.00000000000E+00  0.00000000000E+00  0.12227263188E+04  0.12227263188E+04  0.00000000000E+00 0. -1.
          1   -1    0    0  501    0 -0.00000000000E+00 -0.00000000000E+00 -0.11827069889E+04  0.11827069889E+04  0.00000000000E+00 0. -1.
         25    2    1    2    0    0  0.27139862121E+03  0.28800011023E+03 -0.11093978060E+03  0.42957538006E+03  0.12500438849E+03 0.  0.
          2    1    1    2  501    0 -0.17423411929E+03  0.28244555611E+02 -0.87771772117E+03  0.89528971919E+03  0.00000000000E+00 0. -1.
          1    1    1    2  502    0 -0.97164501922E+02 -0.31624466585E+03  0.10286768316E+04  0.10805682084E+04  0.00000000000E+00 0. -1.
         22    1    3    3    0    0  0.12358134234E+03  0.13834543569E+03 -0.11668036382E+03  0.21914861408E+03  0.00000000000E+00 0. -1.
         22    1    3    3    0    0  0.14781727887E+03  0.14965467454E+03  0.57405832207E+01  0.21042676598E+03  0.00000000000E+00 0. -1.
</event>
<event>
 7    1  0.6999029E-005  0.2104448E+03  0.7818608E-02  0.1278123E+00
          2   -1    0    0  502    0  0.00000000000E+00  0.00000000000E+00  0.12465088793E+04  0.12465088793E+04  0.00000000000E+00 0. -1.
          1   -1    0    0  501    0 -0.00000000000E+00 -0.00000000000E+00 -0.11516790797E+04  0.11516790797E+04  0.00000000000E+00 0. -1.
         25    2    1    2    0    0 -0.21124543605E+03  0.77873637048E+02  0.36370136337E+03  0.44563897455E+03  0.12500590513E+03 0.  0.
          2    1    1    2  501    0  0.20813002073E+03 -0.29461398186E+02 -0.11000512186E+04  0.11199548040E+04  0.00000000000E+00 0. -1.
          1    1    1    2  502    0  0.31154153177E+01 -0.48412238862E+02  0.83117965481E+03  0.83259418041E+03  0.00000000000E+00 0. -1.
         22    1    3    3    0    0 -0.20969794634E+03  0.36626148772E+02  0.27465507855E+03  0.34749117348E+03  0.00000000000E+00 0.  1.
         22    1    3    3    0    0 -0.15474897070E+01  0.41247488276E+02  0.89046284817E+02  0.98147801061E+02  0.00000000000E+00 0.  1.
</event>
<event>
 7    1  0.6999029E-005  0.1349767E+03  0.7818608E-02  0.1235929E+00
          2   -1    0    0  502    0  0.00000000000E+00  0.00000000000E+00  0.15103199547E+04  0.15103199547E+04  0.00000000000E+00 0. -1.
          1   -1    0    0  501    0 -0.00000000000E+00 -0.00000000000E+00 -0.33559213383E+03  0.33559213383E+03  0.00000000000E+00 0. -1.
         25    2    1    2    0    0 -0.15943439905E+03 -0.18788257297E+03  0.17788475019E+02  0.27687479798E+03  0.12499614029E+03 0.  0.
          2    1    1    2  501    0  0.80219250121E+02  0.82047694327E+02 -0.18657381222E+03  0.21903593230E+03  0.00000000000E+00 0. -1.
          1    1    1    2  502    0  0.79215148927E+02  0.10583487864E+03  0.13435131581E+04  0.13500013582E+04  0.00000000000E+00 0. -1.
         22    1    3    3    0    0 -0.17461101623E+03 -0.17914836052E+03  0.34663628501E+02  0.25255634858E+03  0.00000000000E+00 0.  1.
         22    1    3    3    0    0  0.15176617181E+02 -0.87342124485E+01 -0.16875153483E+02  0.24318449400E+02  0.00000000000E+00 0.  1.
</event>
<event>
 7    1  0.6999029E-005  0.2969977E+03  0.7818608E-02  0.1166808E+00
          2   -1    0    0  502    0  0.00000000000E+00  0.00000000000E+00  0.55639438107E+03  0.55639438107E+03  0.00000000000E+00 0. -1.
          1   -1    0    0  501    0 -0.00000000000E+00 -0.00000000000E+00 -0.78426623105E+03  0.78426623105E+03  0.00000000000E+00 0. -1.
         25    2    1    2    0    0  0.11694047534E+03 -0.24589797714E+03 -0.35651402247E+02  0.30172341911E+03  0.12500043689E+03 0.  0.
          2    1    1    2  501    0 -0.25299000666E+02  0.30736400556E+03 -0.56852532705E+03  0.64678722842E+03  0.00000000000E+00 0. -1.
          1    1    1    2  502    0 -0.91641474669E+02 -0.61466028415E+02  0.37630487932E+03  0.39214996459E+03  0.00000000000E+00 0. -1.
         22    1    3    3    0    0  0.65922073479E+02 -0.23616221662E+03 -0.14424755419E+02  0.24561430313E+03  0.00000000000E+00 0.  1.
         22    1    3    3    0    0  0.51018401857E+02 -0.97357605215E+01 -0.21226646828E+02  0.56109115984E+02  0.00000000000E+00 0.  1.
</event>
<event>
 7    1  0.6999029E-005  0.7067895E+02  0.7818608E-02  0.1491350E+00
          2   -1    0    0  502    0  0.00000000000E+00  0.00000000000E+00  0.38068961587E+03  0.38068961587E+03  0.00000000000E+00 0. -1.
          1   -1    0    0  501    0 -0.00000000000E+00 -0.00000000000E+00 -0.79114705795E+03  0.79114705795E+03  0.00000000000E+00 0. -1.
         25    2    1    2    0    0 -0.66633926524E+02  0.52705811015E+02  0.13038123995E+03  0.19959305230E+03  0.12498054295E+03 0.  0.
          2    1    1    2  501    0  0.36036928767E+01 -0.25162515785E+02 -0.75083683915E+03  0.75126699503E+03  0.00000000000E+00 0. -1.
          1    1    1    2  502    0  0.63030233647E+02 -0.27543295230E+02  0.20999815711E+03  0.22097662650E+03  0.00000000000E+00 0. -1.
         22    1    3    3    0    0 -0.56398594684E+02  0.91956577203E+02  0.11048027698E+03  0.15441083244E+03  0.00000000000E+00 0.  1.
         22    1    3    3    0    0 -0.10235331840E+02 -0.39250766188E+02  0.19900962970E+02  0.45182219859E+02  0.00000000000E+00 0.  1.
</event>
<event>
 7    1  0.6999029E-005  0.8997858E+03  0.7818608E-02  0.1155254E+00
          2   -1    0    0  502    0  0.00000000000E+00  0.00000000000E+00  0.10761707607E+04  0.10761707607E+04  0.00000000000E+00 0. -1.
          1   -1    0    0  501    0 -0.00000000000E+00 -0.00000000000E+00 -0.17278070047E+04  0.17278070047E+04  0.00000000000E+00 0. -1.
         25    2    1    2    0    0 -0.77023847892E+03 -0.47792762257E+03 -0.12603355516E+04  0.15574830425E+04  0.12500239284E+03 0.  0.
          2    1    1    2  501    0  0.75446379349E+03  0.43937454346E+03  0.28249744985E+03  0.91764394745E+03  0.00000000000E+00 0. -1.
          1    1    1    2  502    0  0.15774685433E+02  0.38553079114E+02  0.32620185768E+03  0.32885077553E+03  0.00000000000E+00 0. -1.
         22    1    3    3    0    0 -0.46383069297E+03 -0.34819105151E+03 -0.74659945733E+03  0.94540291399E+03  0.00000000000E+00 0. -1.
         22    1    3    3    0    0 -0.30640778595E+03 -0.12973657106E+03 -0.51373609423E+03  0.61208012848E+03  0.00000000000E+00 0. -1.
</event>
<event>
 7    1  0.6999029E-005  0.3564076E+03  0.7818608E-02  0.1277590E+00
          2   -1    0    0  502    0  0.00000000000E+00  0.00000000000E+00  0.12442512987E+04  0.12442512987E+04  0.00000000000E+00 0. -1.
          1   -1    0    0  501    0 -0.00000000000E+00 -0.00000000000E+00 -0.13185563301E+04  0.13185563301E+04  0.00000000000E+00 0. -1.
         25    2    1    2    0    0 -0.14277651866E+03  0.31486476378E+03 -0.29923336564E+02  0.36884181502E+03  0.12499569869E+03 0.  0.
          2    1    1    2  501    0  0.17156613090E+03 -0.31461329778E+03 -0.10902850309E+04  0.11476662900E+04  0.00000000000E+00 0. -1.
          1    1    1    2  502    0 -0.28789612239E+02 -0.25146600275E+00  0.10459033362E+04  0.10462995238E+04  0.00000000000E+00 0. -1.
         22    1    3    3    0    0 -0.68346808495E+02  0.22888788089E+03  0.29234438797E+02  0.24065660319E+03  0.00000000000E+00 0. -1.
         22    1    3    3    0    0 -0.74429710163E+02  0.85976882891E+02 -0.59157775361E+02  0.12818521183E+03  0.00000000000E+00 0. -1.
</event>
<event>
 7    1  0.6999029E-005  0.5829064E+03  0.7818608E-02  0.1111812E+00
          2   -1    0    0  502    0  0.00000000000E+00  0.00000000000E+00  0.97461425015E+03  0.97461425015E+03  0.00000000000E+00 0. -1.
          1   -1    0    0  501    0 -0.00000000000E+00 -0.00000000000E+00 -0.80721257561E+03  0.80721257561E+03  0.00000000000E+00 0. -1.
         25    2    1    2    0    0  0.39230220743E+03  0.53658724784E+03  0.25998284629E+03  0.72459858060E+03  0.12500050457E+03 0.  0.
          2    1    1    2  501    0 -0.30675068990E+03 -0.46861019920E+03 -0.42772116009E+03  0.70472469471E+03  0.00000000000E+00 0. -1.
          1    1    1    2  502    0 -0.85551517536E+02 -0.67977048641E+02  0.33513998834E+03  0.35250355045E+03  0.00000000000E+00 0. -1.
         22    1    3    3    0    0  0.15985048627E+03  0.20607563987E+03  0.16787840441E+03  0.31016528815E+03  0.00000000000E+00 0. -1.
         22    1    3    3    0    0  0.23245172116E+03  0.33051160797E+03  0.92104441884E+02  0.41443329245E+03  0.00000000000E+00 0. -1.
</event>
<event>
 7    1  0.6999029E-005  0.2875396E+03  0.7818608E-02  0.1228198E+00
          2   -1    0    0  502    0  0.00000000000E+00  0.00000000000E+00  0.16511759461E+04  0.16511759461E+04  0.00000000000E+00 0. -1.
          1   -1    0    0  501    0 -0.00000000000E+00 -0.00000000000E+00 -0.62396328951E+03  0.62396328951E+03  0.00000000000E+00 0. -1.
         25    2    1    2    0    0  0.32841648228E+03  0.36577927235E+02  0.96243024135E+03  0.10252281633E+04  0.12500194687E+03 0.  0.
          2    1    1    2  501    0 -0.27831084298E+03 -0.66429815403E+02 -0.55657840054E+03  0.62581895276E+03  0.00000000000E+00 0. -1.
          1    1    1    2  502    0 -0.50105639300E+02  0.29851888168E+02  0.62136081576E+03  0.62409211954E+03  0.00000000000E+00 0. -1.
         22    1    3    3    0    0  0.84294645209E+02 -0.32969857233E+02  0.36607093472E+03  0.37709485271E+03  0.00000000000E+00 0. -1.
         22    1    3    3    0    0  0.24412183707E+03  0.69547784468E+02  0.59635930663E+03  0.64813331056E+03  0.00000000000E+00 0. -1.
</event>
<event>
 7    1  0.6999029E-005  0.4159032E+03  0.7818608E-02  0.1298280E+00
          2   -1    0    0  502    0  0.00000000000E+00  0.00000000000E+00  0.12574576034E+04  0.12574576034E+04  0.00000000000E+00 0. -1.
          1   -1    0    0  501    0 -0.00000000000E+00 -0.00000000000E+00 -0.46976539512E+03  0.46976539512E+03  0.00000000000E+00 0. -1.
         25    2    1    2    0    0  0.10956873043E+03 -0.40661372111E+03 -0.21420074012E+03  0.48871458403E+03  0.12497984915E+03 0.  0.
          2    1    1    2  501    0 -0.11334534829E+03  0.38665465158E+03  0.22527564880E+03  0.46162550353E+03  0.00000000000E+00 0. -1.
          1    1    1    2  502    0  0.37766178660E+01  0.19959069526E+02  0.77661729964E+03  0.77688291100E+03  0.00000000000E+00 0. -1.
         22    1    3    3    0    0  0.88938228505E+02 -0.40894479195E+03 -0.20461730972E+03  0.46584771631E+03  0.00000000000E+00 0.  1.
         22    1    3    3    0    0  0.20630501922E+02  0.23310708478E+01 -0.95834303985E+01  0.22866867714E+02  0.00000000000E+00 0.  1.
</event>
<event>
 7    1  0.6999029E-005  0.1941994E+03  0.7818608E-02  0.1227015E+00
          2   -1    0    0  502    0  0.00000000000E+00  0.00000000000E+00  0.13018284057E+04  0.13018284057E+04  0.00000000000E+00 0. -1.
          1   -1    0    0  501    0 -0.00000000000E+00 -0.00000000000E+00 -0.12432266727E+04  0.12432266727E+04  0.00000000000E+00 0. -1.
         25    2    1    2    0    0 -0.13173209772E+03 -0.83894066545E+01 -0.23789095850E+03  0.29940158729E+03  0.12500189848E+03 0.  0.
          2    1    1    2  501    0  0.21911659041E+03  0.58071390462E+01 -0.96071848964E+03  0.98540642346E+03  0.00000000000E+00 0. -1.
          1    1    1    2  502    0 -0.87384492694E+02  0.25822676083E+01  0.12572111811E+04  0.12602470676E+04  0.00000000000E+00 0. -1.
         22    1    3    3    0    0 -0.11130186428E+02 -0.84105433861E+01  0.14225442578E+02  0.19924394759E+02  0.00000000000E+00 0. -1.
         22    1    3    3    0    0 -0.12060191129E+03  0.21136731642E-01 -0.25211640108E+03  0.27947719253E+03  0.00000000000E+00 0. -1.
</event>
<event>
 7    1  0.6999029E-005  0.5521291E+03  0.7818608E-02  0.1093357E+00
          2   -1    0    0  502    0  0.00000000000E+00  0.00000000000E+00  0.31069823636E+04  0.31069823636E+04  0.00000000000E+00 0. -1.
          1   -1    0    0  501    0 -0.00000000000E+00 -0.00000000000E+00 -0.35501803900E+03  0.35501803900E+03  0.00000000000E+00 0. -1.
         25    2    1    2    0    0  0.62073855954E+03 -0.54916744415E+01  0.62876700000E+03  0.89236778996E+03  0.12500325793E+03 0.  0.
          2    1    1    2  501    0 -0.51593956435E+03  0.10772106790E+03  0.94268724666E+02  0.53542885147E+03  0.00000000000E+00 0. -1.
          1    1    1    2  502    0 -0.10479899519E+03 -0.10222939346E+03  0.20289285999E+04  0.20342037611E+04  0.00000000000E+00 0. -1.
         22    1    3    3    0    0  0.53412900945E+03 -0.34722870688E+02  0.48678212001E+03  0.72350280500E+03  0.00000000000E+00 0. -1.
         22    1    3    3    0    0  0.86609550084E+02  0.29231196246E+02  0.14198487999E+03  0.16886498496E+03  0.00000000000E+00 0. -1.
</event>
<event>
 7    1  0.6999029E-005  0.2599172E+03  0.7818608E-02  0.1148400E+00
          2   -1    0    0  502    0  0.00000000000E+00  0.00000000000E+00  0.22892983280E+04  0.22892983280E+04  0.00000000000E+00 0. -1.
          1   -1    0    0  501    0 -0.00000000000E+00 -0.00000000000E+00 -0.54349408700E+03  0.54349408700E+03  0.00000000000E+00 0. -1.
         25    2    1    2    0    0  0.43310189356E+01  0.39034955824E+03  0.26867741701E+03  0.49010587536E+03  0.12499871723E+03 0.  0.
          2    1    1    2  501    0  0.54523935378E+02 -0.14654583334E+03 -0.41008438069E+03  0.43888237613E+03  0.00000000000E+00 0. -1.
          1    1    1    2  502    0 -0.58854954314E+02 -0.24380372490E+03  0.18872112046E+04  0.19038041635E+04  0.00000000000E+00 0. -1.
         22    1    3    3    0    0 -0.29146872074E+02  0.15417743254E+02  0.28525591048E+02  0.43599957608E+02  0.00000000000E+00 0. -1.
         22    1    3    3    0    0  0.33477891010E+02  0.37493181499E+03  0.24015182596E+03  0.44650591775E+03  0.00000000000E+00 0. -1.
</event>
<event>
 7    1  0.6999029E-005  0.1012089E+03  0.7818608E-02  0.1434230E+00
          2   -1    0    0  502    0  0.00000000000E+00  0.00000000000E+00  0.31887761506E+04  0.31887761506E+04  0.00000000000E+00 0. -1.
          1   -1    0    0  501    0 -0.00000000000E+00 -0.00000000000E+00 -0.34995728667E+02  0.34995728667E+02  0.00000000000E+00 0. -1.
         25    2    1    2    0    0 -0.58824416149E+02  0.49876379583E+02  0.13436608750E+04  0.13516645890E+04  0.12499859601E+03 0.  0.
          2    1    1    2  501    0  0.72121288652E+02 -0.73191899162E+02  0.54557844683E+02  0.11634041772E+03  0.00000000000E+00 0. -1.
          1    1    1    2  502    0 -0.13296872503E+02  0.23315519580E+02  0.17555617022E+04  0.17557668725E+04  0.00000000000E+00 0. -1.
         22    1    3    3    0    0 -0.23638667254E+02  0.59734844033E+02  0.27597306662E+03  0.28335167492E+03  0.00000000000E+00 0. -1.
         22    1    3    3    0    0 -0.35185748895E+02 -0.98584644506E+01  0.10676878084E+04  0.10683129141E+04  0.00000000000E+00 0. -1.
</event>
<event>
 7    1  0.6999029E-005  0.5830401E+02  0.7818608E-02  0.1437075E+00
          2   -1    0    0  502    0  0.00000000000E+00  0.00000000000E+00  0.12007749752E+04  0.12007749752E+04  0.00000000000E+00 0. -1.
          1   -1    0    0  501    0 -0.00000000000E+00 -0.00000000000E+00 -0.52434817789E+03  0.52434817789E+03  0.00000000000E+00 0. -1.
         25    2    1    2    0    0 -0.84521888163E+02  0.54069724965E+02 -0.18468524831E+03  0.24454217731E+03  0.12499900320E+03 0.  0.
          2    1    1    2  501    0  0.29703533924E+02 -0.34606614358E+02 -0.30732817801E+03  0.31069362189E+03  0.00000000000E+00 0. -1.
          1    1    1    2  502    0  0.54818354240E+02 -0.19463110608E+02  0.11684402236E+04  0.11698873539E+04  0.00000000000E+00 0. -1.
         22    1    3    3    0    0 -0.88795117446E+02  0.86908399876E+02 -0.12476152108E+03  0.17607691499E+03  0.00000000000E+00 0.  1.
         22    1    3    3    0    0  0.42732292830E+01 -0.32838674910E+02 -0.59923727231E+02  0.68465262313E+02  0.00000000000E+00 0.  1.
</event>
<event>
 7    1  0.6999029E-005  0.2056689E+03  0.7818608E-02  0.1196976E+00
          2   -1    0    0  502    0  0.00000000000E+00  0.00000000000E+00  0.24916619074E+04  0.24916619074E+04  0.00000000000E+00 0. -1.
          1   -1    0    0  501    0 -0.00000000000E+00 -0.00000000000E+00 -0.98627277866E+02  0.98627277866E+02  0.00000000000E+00 0. -1.
         25    2    1    2    0    0 -0.11092998944E+03 -0.26836388949E+03  0.13027046214E+04  0.13405181768E+04  0.12500004755E+03 0.  0.
          2    1    1    2  501    0  0.12333245174E+03  0.15539938111E+03  0.51803330264E+02  0.20504498610E+03  0.00000000000E+00 0. -1.
          1    1    1    2  502    0 -0.12402462291E+02  0.11296450838E+03  0.10385266779E+04  0.10447260224E+04  0.00000000000E+00 0. -1.
         22    1    3    3    0    0 -0.13298898115E+03 -0.22433957042E+03  0.98132903136E+03  0.10153920325E+04  0.00000000000E+00 0.  1.
         22    1    3    3    0    0  0.22058991701E+02 -0.44024319067E+02  0.32137559004E+03  0.32512614422E+03  0.00000000000E+00 0.  1.
</event>
<event>
 7    1  0.6999029E-005  0.3008778E+03  0.7818608E-02  0.1244758E+00
          2   -1    0    0  502    0  0.00000000000E+00  0.00000000000E+00  0.26975699682E+04  0.26975699682E+04  0.00000000000E+00 0. -1.
          1   -1    0    0  501    0 -0.00000000000E+00 -0.00000000000E+00 -0.29328653895E+03  0.29328653895E+03  0.00000000000E+00 0. -1.
         25    2    1    2    0    0  0.73078007289E+02 -0.30555679146E+03  0.21466099112E+04  0.21730780296E+04  0.12501465469E+03 0.  0.
          2    1    1    2  501    0 -0.64211324775E+01  0.46624429318E+02 -0.24443145408E+03  0.24892128092E+03  0.00000000000E+00 0. -1.
          1    1    1    2  502    0 -0.66656874811E+02  0.25893236214E+03  0.50210497204E+03  0.56885719656E+03  0.00000000000E+00 0. -1.
         22    1    3    3    0    0  0.32307283713E+02 -0.63946027684E+02  0.88493213867E+03  0.88782754243E+03  0.00000000000E+00 0. -1.
         22    1    3    3    0    0  0.40770723575E+02 -0.24161076378E+03  0.12616777726E+04  0.12852504872E+04  0.00000000000E+00 0. -1.
</event>
<event>
 7    1  0.6999029E-005  0.2206052E+03  0.7818608E-02  0.1263720E+00
          2   -1    0    0  502    0  0.00000000000E+00  0.00000000000E+00  0.91161670398E+03  0.91161670398E+03  0.00000000000E+00 0. -1.
          1   -1    0    0  501    0 -0.00000000000E+00 -0.00000000000E+00 -0.18625354586E+03  0.18625354586E+03  0.00000000000E+00 0. -1.
         25    2    1    2    0    0 -0.77243248182E+02 -0.19782019012E+03  0.18076123886E+03  0.30561329642E+03  0.12500205785E+03 0.  0.
          2    1    1    2  501    0  0.12897712569E+03  0.18548990632E+03 -0.18471281841E+02  0.22667772840E+03  0.00000000000E+00 0. -1.
          1    1    1    2  502    0 -0.51733877509E+02  0.12330283798E+02  0.56307320110E+03  0.56557922502E+03  0.00000000000E+00 0. -1.
         22    1    3    3    0    0 -0.74449815910E+02 -0.20989496831E+03  0.14011051598E+03  0.26311523996E+03  0.00000000000E+00 0. -1.
         22    1    3    3    0    0 -0.27934322715E+01  0.12074778195E+02  0.40650722878E+02  0.42498056459E+02  0.00000000000E+00 0. -1.
</event>
<event>
 7    1  0.6999029E-005  0.8969979E+03  0.7818608E-02  0.1066091E+00
          2   -1    0    0  502    0  0.00000000000E+00  0.00000000000E+00  0.19531074983E+04  0.19531074983E+04  0.00000000000E+00 0. -1.
          1   -1    0    0  501    0 -0.00000000000E+00 -0.00000000000E+00 -0.46682299768E+04  0.46682299768E+04  0.00000000000E+00 0. -1.
         25    2    1    2    0    0 -0.44325120372E+03 -0.89118207805E+03 -0.87151602308E+03  0.13288499948E+04  0.12500001707E+03 0.  0.
          2    1    1    2  501    0  0.11037467379E+03  0.68939518563E+02 -0.34526610355E+04  0.34551126540E+04  0.00000000000E+00 0. -1.
          1    1    1    2  502    0  0.33287652993E+03  0.82224255949E+03  0.16090545801E+04  0.18373748264E+04  0.00000000000E+00 0. -1.
         22    1    3    3    0    0 -0.41780564075E+03 -0.87312938756E+03 -0.86226293738E+03  0.12963077775E+04  0.00000000000E+00 0.  1.
         22    1    3    3    0    0 -0.25445562970E+02 -0.18052690494E+02 -0.92530857027E+01  0.32542217256E+02  0.00000000000E+00 0.  1.
</event>
<event>
 7    1  0.6999029E-005  0.1794653E+03  0.7818608E-02  0.1182682E+00
          2   -1    0    0  502    0  0.00000000000E+00  0.00000000000E+00  0.23254248721E+04  0.23254248721E+04  0.00000000000E+00 0. -1.
          1   -1    0    0  501    0 -0.00000000000E+00 -0.00000000000E+00 -0.92204759984E+02  0.92204759984E+02  0.00000000000E+00 0. -1.
         25    2    1    2    0    0 -0.25788921181E+03  0.39248659775E+01  0.84023431509E+03  0.88777496803E+03  0.12501375710E+03 0.  0.
          2    1    1    2  501    0  0.11669106350E+03 -0.98213160058E+02  0.28889828242E+02  0.15523289370E+03  0.00000000000E+00 0. -1.
          1    1    1    2  502    0  0.14119814831E+03  0.94288294081E+02  0.13640959688E+04  0.13746217704E+04  0.00000000000E+00 0. -1.
         22    1    3    3    0    0 -0.10931903507E+03 -0.54749517654E+02  0.28737691166E+03  0.31230377914E+03  0.00000000000E+00 0.  1.
         22    1    3    3    0    0 -0.14857017674E+03  0.58674383632E+02  0.55285740343E+03  0.57547118889E+03  0.00000000000E+00 0.  1.
</event>
<event>
 7    1  0.6999029E-005  0.5823721E+03  0.7818608E-02  0.1127277E+00
          2   -1    0    0  502    0  0.00000000000E+00  0.00000000000E+00  0.91976787086E+03  0.91976787086E+03  0.00000000000E+00 0. -1.
          1   -1    0    0  501    0 -0.00000000000E+00 -0.00000000000E+00 -0.25110208896E+04  0.25110208896E+04  0.00000000000E+00 0. -1.
         25    2    1    2    0    0 -0.21745099715E+03 -0.45408950547E+03  0.14959184341E+03  0.53989374091E+03  0.12500126687E+03 0.  0.
          2    1    1    2  501    0  0.27583398837E+03  0.52274514797E+03 -0.22743165169E+04  0.23498643574E+04  0.00000000000E+00 0. -1.
          1    1    1    2  502    0 -0.58382991223E+02 -0.68655642493E+02  0.53347165480E+03  0.54103066215E+03  0.00000000000E+00 0. -1.
         22    1    3    3    0    0 -0.15085198221E+03 -0.32259366183E+03  0.16345766722E+03  0.39184359145E+03  0.00000000000E+00 0. -1.
         22    1    3    3    0    0 -0.66599014939E+02 -0.13149584364E+03 -0.13865823800E+02  0.14805014946E+03  0.00000000000E+00 0. -1.
</event>
<event>
 7    1  0.6999029E-005  0.1050971E+03  0.7818608E-02  0.1329727E+00
          2   -1    0    0  502    0  0.00000000000E+00  0.00000000000E+00  0.41853408115E+03  0.41853408115E+03  0.00000000000E+00 0. -1.
          1   -1    0    0  501    0 -0.00000000000E+00 -0.00000000000E+00 -0.16696311329E+03  0.16696311329E+03  0.00000000000E+00 0. -1.
         25    2    1    2    0    0  0.20596308812E+02  0.14493179575E+03  0.12038719925E+01  0.19249797699E+03  0.12499835391E+03 0.  0.
          2    1    1    2  501    0 -0.34348881059E+02 -0.85979777016E+02 -0.36717417958E+02  0.99601889877E+02  0.00000000000E+00 0. -1.
          1    1    1    2  502    0  0.13752572247E+02 -0.58952018735E+02  0.28708451382E+03  0.29339732758E+03  0.00000000000E+00 0. -1.
         22    1    3    3    0    0  0.60758263298E+02  0.27276335384E+02 -0.11290912473E+02  0.67550349632E+02  0.00000000000E+00 0.  1.
         22    1    3    3    0    0 -0.40161954486E+02  0.11765546037E+03  0.12494784465E+02  0.12494762735E+03  0.00000000000E+00 0.  1.
</event>
<event>
 7    1  0.6999029E-005  0.9913624E+02  0.7818608E-02  0.1360422E+00
          2   -1    0    0  502    0  0.00000000000E+00  0.00000000000E+00  0.43192570170E+03  0.43192570170E+03  0.00000000000E+00 0. -1.
          1   -1    0    0  501    0 -0.00000000000E+00 -0.00000000000E+00 -0.13915550757E+04  0.13915550757E+04  0.00000000000E+00 0. -1.
         25    2    1    2    0    0  0.61489806954E+02 -0.11916430564E+03 -0.10586930883E+04  0.10744479459E+04  0.12500482066E+03 0.  0.
          2    1    1    2  501    0 -0.44258418020E+02  0.21697046363E+02 -0.31727981144E+03  0.32108573331E+03  0.00000000000E+00 0. -1.
          1    1    1    2  502    0 -0.17231388934E+02  0.97467259275E+02  0.41634352574E+03  0.42794709816E+03  0.00000000000E+00 0. -1.
         22    1    3    3    0    0 -0.10765473876E+02  0.19846402711E+02 -0.22760254792E+03  0.22871968640E+03  0.00000000000E+00 0. -1.
         22    1    3    3    0    0  0.72255280830E+02 -0.13901070835E+03 -0.83109054035E+03  0.84572825949E+03  0.00000000000E+00 0. -1.
</event>
<event>
 7    1  0.6999029E-005  0.3646370E+03  0.7818608E-02  0.1099840E+00
          2   -1    0    0  502    0  0.00000000000E+00  0.00000000000E+00  0.63884572583E+03  0.63884572583E+03  0.00000000000E+00 0. -1.
          1   -1    0    0  501    0 -0.00000000000E+00 -0.00000000000E+00 -0.21402093931E+04  0.21402093931E+04  0.00000000000E+00 0. -1.
         25    2    1    2    0    0  0.96283153891E+01  0.56068902082E+03  0.26894971739E+03  0.63436807687E+03  0.12499609570E+03 0.  0.
          2    1    1    2  501    0  0.19471395383E+01 -0.35732780275E+03 -0.18797823950E+04  0.19134442251E+04  0.00000000000E+00 0. -1.
          1    1    1    2  502    0 -0.11575454927E+02 -0.20336121808E+03  0.10946901034E+03  0.23124281697E+03  0.00000000000E+00 0. -1.
         22    1    3    3    0    0  0.38186288630E+02  0.52016921057E+03  0.26392128571E+03  0.58454139744E+03  0.00000000000E+00 0. -1.
         22    1    3    3    0    0 -0.28557973241E+02  0.40519810251E+02  0.50284316830E+01  0.49826679436E+02  0.00000000000E+00 0. -1.
</event>
<event>
 7    1  0.6999029E-005  0.2594185E+03  0.7818608E-02  0.1169223E+00
          2   -1    0    0  502    0  0.00000000000E+00  0.00000000000E+00  0.31239107193E+04  0.31239107193E+04  0.00000000000E+00 0. -1.
          1   -1    0    0  501    0 -0.00000000000E+00 -0.00000000000E+00 -0.11297707554E+03  0.11297707554E+03  0.00000000000E+00 0. -1.
         25    2    1    2    0    0 -0.28743809318E+03 -0.95814378273E+02  0.17441391300E+04  0.17746682058E+04  0.12499953284E+03 0.  0.
          2    1    1    2  501    0  0.10763404707E+03 -0.59277275663E+02 -0.43677103388E+02  0.13040925144E+03  0.00000000000E+00 0. -1.
          1    1    1    2  502    0  0.17980404611E+03  0.15509165394E+03  0.13104716171E+04  0.13318103376E+04  0.00000000000E+00 0. -1.
         22    1    3    3    0    0 -0.15385695361E+02 -0.22413311655E+02  0.47003787240E+02  0.54299467548E+02  0.00000000000E+00 0.  1.
         22    1    3    3    0    0 -0.27205239782E+03 -0.73401066618E+02  0.16971353428E+04  0.17203687382E+04  0.00000000000E+00 0.  1.
</event>
<event>
 7    1  0.6999029E-005  0.1761427E+03  0.7818608E-02  0.1293022E+00
          2   -1    0    0  502    0  0.00000000000E+00  0.00000000000E+00  0.14275422748E+03  0.14275422748E+03  0.00000000000E+00 0. -1.
          1   -1    0    0  501    0 -0.00000000000E+00 -0.00000000000E+00 -0.18469397593E+04  0.18469397593E+04  0.00000000000E+00 0. -1.
         25    2    1    2    0    0 -0.22042121863E+02 -0.19741307871E+03 -0.72566400717E+02  0.24565551428E+03  0.12499188135E+03 0.  0.
          2    1    1    2  501    0 -0.25382495055E+02  0.43497670910E+02 -0.15712239249E+04  0.15720308332E+04  0.00000000000E+00 0. -1.
          1    1    1    2  502    0  0.47424616918E+02  0.15391540780E+03 -0.60395206256E+02  0.17200763932E+03  0.00000000000E+00 0. -1.
         22    1    3    3    0    0  0.10541646663E+02  0.13637924501E+02 -0.18664729224E+02  0.25406523100E+02  0.00000000000E+00 0. -1.
         22    1    3    3    0    0 -0.32583768525E+02 -0.21105100321E+03 -0.53901671493E+02  0.22024899118E+03  0.00000000000E+00 0. -1.
</event>
<event>
 7    1  0.6999029E-005  0.3367770E+03  0.7818608E-02  0.1145820E+00
          2   -1    0    0  502    0  0.00000000000E+00  0.00000000000E+00  0.65149506537E+03  0.65149506537E+03  0.00000000000E+00 0. -1.
          1   -1    0    0  501    0 -0.00000000000E+00 -0.00000000000E+00 -0.16878695199E+04  0.16878695199E+04  0.00000000000E+00 0. -1.
         25    2    1    2    0    0  0.33447435682E+03  0.10032370227E+03 -0.10046801956E+04  0.10709539840E+04  0.12498879833E+03 0.  0.
          2    1    1    2  501    0 -0.33241627108E+03  0.24099338046E+02 -0.60015481917E+03  0.68648901109E+03  0.00000000000E+00 0. -1.
          1    1    1    2  502    0 -0.20580857402E+01 -0.12442304031E+03  0.56846056022E+03  0.58192159025E+03  0.00000000000E+00 0. -1.
         22    1    3    3    0    0  0.53962244241E+02 -0.18797347108E+02 -0.87847858558E+02  0.10479747285E+03  0.00000000000E+00 0. -1.
         22    1    3    3    0    0  0.28051211258E+03  0.11912104938E+03 -0.91683233707E+03  0.96615651113E+03  0.00000000000E+00 0. -1.
</event>
<event>
 7    1  0.6999029E-005  0.4568967E+03  0.7818608E-02  0.1223023E+00
          2   -1    0    0  502    0  0.00000000000E+00  0.00000000000E+00  0.32931162149E+04  0.32931162149E+04  0.00000000000E+00 0. -1.
          1   -1    0    0  501    0 -0.00000000000E+00 -0.00000000000E+00 -0.74689521690E+03  0.74689521690E+03  0.00000000000E+00 0. -1.
         25    2    1    2    0    0  0.18698364865E+03  0.43983250505E+03  0.20703361474E+04  0.21284576381E+04  0.12499854561E+03 0.  0.
          2    1    1    2  501    0 -0.20688490389E+03 -0.40660076438E+03 -0.64498229810E+03  0.79001753772E+03  0.00000000000E+00 0. -1.
          1    1    1    2  502    0  0.19901255234E+02 -0.33231740672E+02  0.11208671487E+04  0.11215362560E+04  0.00000000000E+00 0. -1.
         22    1    3    3    0    0  0.19146473116E+03  0.32774220936E+03  0.15075344537E+04  0.15545847768E+04  0.00000000000E+00 0.  1.
         22    1    3    3    0    0 -0.44810825072E+01  0.11209029570E+03  0.56280169367E+03  0.57387286125E+03  0.00000000000E+00 0.  1.
</event>
<event>
 7    1  0.6999029E-005  0.1069538E+03  0.7818608E-02  0.1284770E+00
          2   -1    0    0  502    0  0.00000000000E+00  0.00000000000E+00  0.26118039383E+03  0.26118039383E+03  0.00000000000E+00 0. -1.
          1   -1    0    0  501    0 -0.00000000000E+00 -0.00000000000E+00 -0.33633182074E+03  0.33633182074E+03  0.00000000000E+00 0. -1.
         25    2    1    2    0    0 -0.13866129319E+03 -0.10561406637E+03 -0.63832945389E+02  0.22379199172E+03  0.12500770135E+03 0.  0.
          2    1    1    2  501    0  0.87729463108E+02  0.18294586189E+02 -0.16616926997E+03  0.18879453611E+03  0.00000000000E+00 0. -1.
          1    1    1    2  502    0  0.50931830087E+02  0.87319480178E+02  0.15485078845E+03  0.18492568674E+03  0.00000000000E+00 0. -1.
         22    1    3    3    0    0 -0.85301855135E+02  0.11154483597E+02 -0.22538839366E+02  0.88931593227E+02  0.00000000000E+00 0. -1.
         22    1    3    3    0    0 -0.53359438059E+02 -0.11676854996E+03 -0.41294106023E+02  0.13486039850E+03  0.00000000000E+00 0. -1.
</event>
<event>
 7    1  0.6999029E-005  0.6059879E+02  0.7818608E-02  0.1408929E+00
          2   -1    0    0  502    0  0.00000000000E+00  0.00000000000E+00  0.51098791466E+03  0.51098791466E+03  0.00000000000E+00 0. -1.
          1   -1    0    0  501    0 -0.00000000000E+00 -0.00000000000E+00 -0.38349595199E+03  0.38349595199E+03  0.00000000000E+00 0. -1.
         25    2    1    2    0    0 -0.29704770524E+02  0.96273921371E+02 -0.92786306786E+02  0.18543342891E+03  0.12500086601E+03 0.  0.
          2    1    1    2  501    0 -0.85990930174E+01 -0.57598164540E+02 -0.23928749615E+03  0.24627220463E+03  0.00000000000E+00 0. -1.
          1    1    1    2  502    0  0.38303863541E+02 -0.38675756832E+02  0.45956576560E+03  0.46277823311E+03  0.00000000000E+00 0. -1.
         22    1    3    3    0    0 -0.72001103766E+02  0.91276732101E+02 -0.55488107085E+02  0.12881976088E+03  0.00000000000E+00 0.  1.
         22    1    3    3    0    0  0.42296333242E+02  0.49971892705E+01 -0.37298199700E+02  0.56613668025E+02  0.00000000000E+00 0.  1.
</event>
<event>
 7    1  0.6999029E-005  0.1880284E+03  0.7818608E-02  0.1266732E+00
          2   -1    0    0  502    0  0.00000000000E+00  0.00000000000E+00  0.13078100190E+04  0.13078100190E+04  0.00000000000E+00 0. -1.
          1   -1    0    0  501    0 -0.00000000000E+00 -0.00000000000E+00 -0.12571345547E+04  0.12571345547E+04  0.00000000000E+00 0. -1.
         25    2    1    2    0    0 -0.11870885477E+03 -0.12918019711E+03  0.62863272061E+03  0.66451833682E+03  0.12500482801E+03 0.  0.
          2    1    1    2  501    0  0.29772612815E+02 -0.52773023716E+02 -0.12229164572E+04  0.12244166211E+04  0.00000000000E+00 0. -1.
          1    1    1    2  502    0  0.88936241956E+02  0.18195322082E+03  0.64495920094E+03  0.67600961574E+03  0.00000000000E+00 0. -1.
         22    1    3    3    0    0  0.14827388550E+02  0.26229224495E+00  0.15458787774E+03  0.15529756016E+03  0.00000000000E+00 0. -1.
         22    1    3    3    0    0 -0.13353624332E+03 -0.12944248935E+03  0.47404484287E+03  0.50922077666E+03  0.00000000000E+00 0. -1.
</event>
<event>
 7    1  0.6999029E-005  0.1249201E+03  0.7818608E-02  0.1267697E+00
          2   -1    0    0  502    0  0.00000000000E+00  0.00000000000E+00  0.39194543903E+03  0.39194543903E+03  0.00000000000E+00 0. -1.
          1   -1    0    0  501    0 -0.00000000000E+00 -0.00000000000E+00 -0.17533459755E+04  0.17533459755E+04  0.00000000000E+00 0. -1.
         25    2    1    2    0    0 -0.47076265575E+02  0.53088823279E+01 -0.32719788548E+02  0.13762111802E+03  0.12499851420E+03 0.  0.
          2    1    1    2  501    0 -0.89094565664E+02  0.15022983517E+02 -0.16529319348E+04  0.16553995025E+04  0.00000000000E+00 0. -1.
          1    1    1    2  502    0  0.13617083124E+03 -0.20331865845E+02  0.32425118695E+03  0.35227079397E+03  0.00000000000E+00 0. -1.
         22    1    3    3    0    0  0.42470559637E+02  0.52906989590E+01 -0.16268425824E+01  0.42829739063E+02  0.00000000000E+00 0. -1.
         22    1    3    3    0    0 -0.89546825212E+02  0.18183368960E-01 -0.31092945966E+02  0.94791378959E+02  0.00000000000E+00 0. -1.
</event>
<event>
 7    1  0.6999029E-005  0.4186586E+03  0.7818608E-02  0.1104139E+00
          2   -1    0    0  502    0  0.00000000000E+00  0.00000000000E+00  0.12015404282E+04  0.12015404282E+04  0.00000000000E+00 0. -1.
          1   -1    0    0  501    0 -0.00000000000E+00 -0.00000000000E+00 -0.27780145277E+03  0.27780145277E+03  0.00000000000E+00 0. -1.
         25    2    1    2    0    0  0.16780386384E+02 -0.50130464474E+03  0.45123459542E+03  0.68616687734E+03  0.12499758099E+03 0.  0.
          2    1    1    2  501    0  0.94051074062E+02  0.13898525486E+03 -0.23025495087E+02  0.16938913491E+03  0.00000000000E+00 0. -1.
          1    1    1    2  502    0 -0.11083146045E+03  0.36231938988E+03  0.49552987514E+03  0.62378586876E+03  0.00000000000E+00 0. -1.
         22    1    3    3    0    0  0.70888699282E+02 -0.28660128932E+03  0.26882154176E+03  0.39928752553E+03  0.00000000000E+00 0. -1.
         22    1    3    3    0    0 -0.54108312898E+02 -0.21470335542E+03  0.18241305366E+03  0.28687935181E+03  0.00000000000E+00 0. -1.
</event>
<event>
 7    1  0.6999029E-005  0.4454641E+03  0.7818608E-02  0.1175750E+00
          2   -1    0    0  502    0  0.00000000000E+00  0.00000000000E+00  0.21801600748E+04  0.21801600748E+04  0.00000000000E+00 0. -1.
          1   -1    0    0  501    0 -0.00000000000E+00 -0.00000000000E+00 -0.29028266270E+03  0.29028266270E+03  0.00000000000E+00 0. -1.
         25    2    1    2    0    0  0.16897501506E+03 -0.40291503555E+03  0.31956920657E+03  0.55555660145E+03  0.12500231214E+03 0.  0.
          2    1    1    2  501    0  0.63542364493E+02  0.19381595085E+02 -0.13560204998E+03  0.15100064328E+03  0.00000000000E+00 0. -1.
          1    1    1    2  502    0 -0.23251737956E+03  0.38353344046E+03  0.17059102555E+04  0.17638854927E+04  0.00000000000E+00 0. -1.
         22    1    3    3    0    0  0.12790690197E+03 -0.20518890045E+03  0.11375348563E+03  0.26721249209E+03  0.00000000000E+00 0. -1.
         22    1    3    3    0    0  0.41068113096E+02 -0.19772613510E+03  0.20581572094E+03  0.28834410936E+03  0.00000000000E+00 0. -1.
</event>
<event>
 7    1  0.6999029E-005  0.4199287E+03  0.7818608E-02  0.1228787E+00
          2   -1    0    0  502    0  0.00000000000E+00  0.00000000000E+00  0.21426790906E+04  0.21426790906E+04  0.00000000000E+00 0. -1.
          1   -1    0    0  501    0 -0.00000000000E+00 -0.00000000000E+00 -0.70613645056E+03  0.70613645056E+03  0.00000000000E+00 0. -1.
         25    2    1    2    0    0  0.32508618445E+03  0.27796348636E+03 -0.47099319121E+03  0.64839495852E+03  0.12504682724E+03 0.  0.
          2    1    1    2  501    0 -0.31665901172E+03 -0.23917454008E+03  0.12302260371E+03  0.41546594488E+03  0.00000000000E+00 0. -1.
          1    1    1    2  502    0 -0.84271727239E+01 -0.38788946280E+02  0.17845132276E+04  0.17849546378E+04  0.00000000000E+00 0. -1.
         22    1    3    3    0    0  0.12295994902E+02 -0.98157543117E+01 -0.26771212251E+01  0.15959558308E+02  0.00000000000E+00 0.  1.
         22    1    3    3    0    0  0.31279018955E+03  0.28777924067E+03 -0.46831606999E+03  0.63243540022E+03  0.00000000000E+00 0.  1.
</event>
<event>
 7    1  0.6999029E-005  0.1304673E+03  0.7818608E-02  0.1233954E+00
          2   -1    0    0  502    0  0.00000000000E+00  0.00000000000E+00  0.22996247930E+04  0.22996247930E+04  0.00000000000E+00 0. -1.
          1   -1    0    0  501    0 -0.00000000000E+00 -0.00000000000E+00 -0.24777100261E+02  0.24777100261E+02  0.00000000000E+00 0. -1.
         25    2    1    2    0    0 -0.14319648535E+03 -0.56177785820E+02  0.66633909968E+03  0.69519338857E+03  0.12499949883E+03 0.  0.
          2    1    1    2  501    0  0.97312395335E+02 -0.72144497002E+02  0.84389488238E+03  0.85254507402E+03  0.00000000000E+00 0. -1.
          1    1    1    2  502    0  0.45884090013E+02  0.12832228282E+03  0.76461371067E+03  0.77666343067E+03  0.00000000000E+00 0. -1.
         22    1    3    3    0    0 -0.11963004573E+03 -0.44136507563E+01  0.27755104967E+03  0.30226712247E+03  0.00000000000E+00 0.  1.
         22    1    3    3    0    0 -0.23566439613E+02 -0.51764135064E+02  0.38878805002E+03  0.39292626610E+03  0.00000000000E+00 0.  1.
</event>
<event>
 7    1  0.6999029E-005  0.3223384E+03  0.7818608E-02  0.1096091E+00
          2   -1    0    0  502    0  0.00000000000E+00  0.00000000000E+00  0.13644952224E+04  0.13644952224E+04  0.00000000000E+00 0. -1.
          1   -1    0    0  501    0 -0.00000000000E+00 -0.00000000000E+00 -0.44443489393E+03  0.44443489393E+03  0.00000000000E+00 0. -1.
         25    2    1    2    0    0 -0.16573305800E+03 -0.28211386148E+00  0.10389724163E+04  0.10595076008E+04  0.12500059295E+03 0.  0.
          2    1    1    2  501    0  0.24874084856E+03 -0.22698072716E+03 -0.29699935915E+03  0.44899986590E+03  0.00000000000E+00 0. -1.
          1    1    1    2  502    0 -0.83007790561E+02  0.22726284102E+03  0.17808727131E+03  0.30042264962E+03  0.00000000000E+00 0. -1.
         22    1    3    3    0    0 -0.70240929732E+02  0.37379481482E+02  0.21657755773E+03  0.23073112568E+03  0.00000000000E+00 0.  1.
         22    1    3    3    0    0 -0.95492128266E+02 -0.37661595344E+02  0.82239485856E+03  0.82877647512E+03  0.00000000000E+00 0.  1.
</event>
<event>
 7    1  0.6999029E-005  0.1042737E+03  0.7818608E-02  0.1337884E+00
          2   -1    0    0  502    0  0.00000000000E+00  0.00000000000E+00  0.28063639343E+04  0.28063639343E+04  0.00000000000E+00 0. -1.
          1   -1    0    0  501    0 -0.00000000000E+00 -0.00000000000E+00 -0.13318554317E+03  0.13318554317E+03  0.00000000000E+00 0. -1.
         25    2    1    2    0    0  0.11756012299E+03  0.83858120959E+02  0.35692287131E+03  0.40481091524E+03  0.12500149627E+03 0.  0.
          2    1    1    2  501    0 -0.97425539447E+02 -0.30733616075E+02 -0.84948315603E+02  0.13286273826E+03  0.00000000000E+00 0. -1.
          1    1    1    2  502    0 -0.20134583547E+02 -0.53124504885E+02  0.24012038354E+04  0.24018758239E+04  0.00000000000E+00 0. -1.
         22    1    3    3    0    0  0.84147436891E+02  0.10794080782E+03  0.19842299448E+03  0.24104707811E+03  0.00000000000E+00 0. -1.
         22    1    3    3    0    0  0.33412686104E+02 -0.24082686858E+02  0.15849987683E+03  0.16376383714E+03  0.00000000000E+00 0. -1.
</event>
<event>
 7    1  0.6999029E-005  0.3607064E+03  0.7818608E-02  0.1246331E+00
          2   -1    0    0  502    0  0.00000000000E+00  0.00000000000E+00  0.21502360802E+04  0.21502360802E+04  0.00000000000E+00 0. -1.
          1   -1    0    0  501    0 -0.00000000000E+00 -0.00000000000E+00 -0.12809844071E+04  0.12809844071E+04  0.00000000000E+00 0. -1.
         25    2    1    2    0    0 -0.34428606580E+03  0.28198337636E+02  0.25641485657E+03  0.44800055924E+03  0.12501152371E+03 0.  0.
          2    1    1    2  501    0 -0.19576875018E+02 -0.33315847834E+02 -0.11664561658E+04  0.11670960485E+04  0.00000000000E+00 0. -1.
          1    1    1    2  502    0  0.36386294082E+03  0.51175101981E+01  0.17792929824E+04  0.18161238795E+04  0.00000000000E+00 0. -1.
         22    1    3    3    0    0 -0.34085562378E+02 -0.25984409422E+01 -0.12412792002E+02  0.36368322249E+02  0.00000000000E+00 0.  1.
         22    1    3    3    0    0 -0.31020050342E+03  0.30796778578E+02  0.26882764857E+03  0.41163223699E+03  0.00000000000E+00 0.  1.
</event>
<event>
 7    1  0.6999029E-005  0.9105745E+02  0.7818608E-02  0.1370712E+00
          2   -1    0    0  502    0  0.00000000000E+00  0.00000000000E+00  0.22269600606E+03  0.22269600606E+03  0.00000000000E+00 0. -1.
          1   -1    0    0  501    0 -0.00000000000E+00 -0.00000000000E+00 -0.32452388826E+03  0.32452388826E+03  0.00000000000E+00 0. -1.
         25    2    1    2    0    0 -0.13509568503E+03  0.21695919211E+02  0.25891832086E+02  0.18712847607E+03  0.12500049025E+03 0.  0.
          2    1    1    2  501    0  0.86278444531E+02 -0.15153146633E+02 -0.23024657275E+03  0.24634746215E+03  0.00000000000E+00 0. -1.
          1    1    1    2  502    0  0.48817240497E+02 -0.65427725778E+01  0.10252685846E+03  0.11374395610E+03  0.00000000000E+00 0. -1.
         22    1    3    3    0    0 -0.23067452841E+02 -0.47929843294E+02  0.11718473440E+02  0.54467420341E+02  0.00000000000E+00 0. -1.
         22    1    3    3    0    0 -0.11202823219E+03  0.69625762505E+02  0.14173358647E+02  0.13266105573E+03  0.00000000000E+00 0. -1.
</event>
<event>
 7    1  0.6999029E-005  0.6553670E+03  0.7818608E-02  0.1232293E+00
          2   -1    0    0  502    0  0.00000000000E+00  0.00000000000E+00  0.13281403994E+04  0.13281403994E+04  0.00000000000E+00 0. -1.
          1   -1    0    0  501    0 -0.00000000000E+00 -0.00000000000E+00 -0.12927633736E+04  0.12927633736E+04  0.00000000000E+00 0. -1.
         25    2    1    2    0    0 -0.82314298070E+02  0.65191481919E+03  0.66620532953E+03  0.94404604427E+03  0.12499926978E+03 0.  0.
          2    1    1    2  501    0 -0.23380645299E+02 -0.74223993583E+01 -0.94973670158E+03  0.95005344529E+03  0.00000000000E+00 0. -1.
          1    1    1    2  502    0  0.10569494337E+03 -0.64449241984E+03  0.31890839788E+03  0.72680428350E+03  0.00000000000E+00 0. -1.
         22    1    3    3    0    0  0.36483900662E+01  0.48739063827E+02  0.12528663486E+02  0.50455668676E+02  0.00000000000E+00 0.  1.
         22    1    3    3    0    0 -0.85962688137E+02  0.60317575537E+03  0.65367666605E+03  0.89359037559E+03  0.00000000000E+00 0.  1.
</event>
<event>
 7    1  0.6999029E-005  0.1119737E+03  0.7818608E-02  0.1312740E+00
          2   -1    0    0  502    0  0.00000000000E+00  0.00000000000E+00  0.18418998513E+04  0.18418998513E+04  0.00000000000E+00 0. -1.
          1   -1    0    0  501    0 -0.00000000000E+00 -0.00000000000E+00 -0.83768668819E+02  0.83768668819E+02  0.00000000000E+00 0. -1.
         25    2    1    2    0    0 -0.32757385509E+02 -0.17188015986E+03  0.13072726655E+04  0.13248406831E+04  0.12500071241E+03 0.  0.
          2    1    1    2  501    0  0.30019995149E+02  0.10582742135E+03 -0.31133001262E+02  0.11432369390E+03  0.00000000000E+00 0. -1.
          1    1    1    2  502    0  0.27373903603E+01  0.66052738504E+02  0.48199151829E+03  0.48650414312E+03  0.00000000000E+00 0. -1.
         22    1    3    3    0    0  0.46085656928E+02 -0.62455843253E+02  0.38365630635E+03  0.39142915264E+03  0.00000000000E+00 0. -1.
         22    1    3    3    0    0 -0.78843042437E+02 -0.10942431660E+03  0.92361635913E+03  0.93341153049E+03  0.00000000000E+00 0. -1.
</event>
<event>
 7    1  0.6999029E-005  0.2722424E+03  0.7818608E-02  0.1149980E+00
          2   -1    0    0  502    0  0.00000000000E+00  0.00000000000E+00  0.15709684541E+04  0.15709684541E+04  0.00000000000E+00 0. -1.
          1   -1    0    0  501    0 -0.00000000000E+00 -0.00000000000E+00 -0.96668507245E+03  0.96668507245E+03  0.00000000000E+00 0. -1.
         25    2    1    2    0    0  0.29457309359E+03  0.15378956298E+03 -0.75961710296E+03  0.83849126441E+03  0.12499968098E+03 0.  0.
          2    1    1    2  501    0 -0.15479985890E+03 -0.10987454899E+03 -0.10906353150E+03  0.21892982148E+03  0.00000000000E+00 0. -1.
          1    1    1    2  502    0 -0.13977323469E+03 -0.43915013990E+02  0.14729640161E+04  0.14802324407E+04  0.00000000000E+00 0. -1.
         22    1    3    3    0    0  0.17067099860E+03  0.11881041276E+03 -0.33052811644E+03  0.39050395606E+03  0.00000000000E+00 0.  1.
         22    1    3    3    0    0  0.12390209499E+03  0.34979150217E+02 -0.42908898652E+03  0.44798730835E+03  0.00000000000E+00 0.  1.
</event>
<event>
 7    1  0.6999029E-005  0.2141678E+03  0.7818608E-02  0.1314942E+00
          2   -1    0    0  502    0  0.00000000000E+00  0.00000000000E+00  0.47587395336E+03  0.47587395336E+03  0.00000000000E+00 0. -1.
          1   -1    0    0  501    0 -0.00000000000E+00 -0.00000000000E+00 -0.14658094617E+04  0.14658094617E+04  0.00000000000E+00 0. -1.
         25    2    1    2    0    0 -0.10536132307E+03  0.20772748214E+03 -0.55984122837E+03  0.61911143280E+03  0.12500020001E+03 0.  0.
          2    1    1    2  501    0  0.75002738546E+02 -0.19267736994E+03 -0.86346689715E+03  0.88787671562E+03  0.00000000000E+00 0. -1.
          1    1    1    2  502    0  0.30358584525E+02 -0.15050112202E+02  0.43337261717E+03  0.43469526664E+03  0.00000000000E+00 0. -1.
         22    1    3    3    0    0 -0.12831387227E+03  0.13515085958E+03 -0.42917283379E+03  0.46788836909E+03  0.00000000000E+00 0. -1.
         22    1    3    3    0    0  0.22952549194E+02  0.72576622563E+02 -0.13066839458E+03  0.15122306372E+03  0.00000000000E+00 0. -1.
</event>
<event>
 7    1  0.6999029E-005  0.1963810E+03  0.7818608E-02  0.1261631E+00
          2   -1    0    0  502    0  0.00000000000E+00  0.00000000000E+00  0.63714106720E+03  0.63714106720E+03  0.00000000000E+00 0. -1.
          1   -1    0    0  501    0 -0.00000000000E+00 -0.00000000000E+00 -0.28093466424E+03  0.28093466424E+03  0.00000000000E+00 0. -1.
         25    2    1    2    0    0 -0.11697201321E+03  0.16182630319E+03 -0.63767311056E+02  0.24405141106E+03  0.12499846799E+03 0.  0.
          2    1    1    2  501    0  0.15907150390E+03 -0.11771498927E+03 -0.46747317742E+02  0.20333684804E+03  0.00000000000E+00 0. -1.
          1    1    1    2  502    0 -0.42099490688E+02 -0.44111313919E+02  0.46672103177E+03  0.47068747235E+03  0.00000000000E+00 0. -1.
         22    1    3    3    0    0 -0.56971411738E+02  0.98076029758E+02  0.28409789764E+02  0.11692632519E+03  0.00000000000E+00 0. -1.
         22    1    3    3    0    0 -0.60000601477E+02  0.63750273434E+02 -0.92177100820E+02  0.12712508586E+03  0.00000000000E+00 0. -1.
</event>
<event>
 7    1  0.6999029E-005  0.2342230E+03  0.7818608E-02  0.1240750E+00
          2   -1    0    0  502    0  0.00000000000E+00  0.00000000000E+00  0.23831747602E+03  0.23831747602E+03  0.00000000000E+00 0. -1.
          1   -1    0    0  501    0 -0.00000000000E+00 -0.00000000000E+00 -0.94200533965E+03  0.94200533965E+03  0.00000000000E+00 0. -1.
         25    2    1    2    0    0  0.17385552888E+03 -0.18229695264E+03 -0.45980104535E+03  0.53898029134E+03  0.12499931713E+03 0.  0.
          2    1    1    2  501    0  0.23207086826E+02  0.58525054458E+02 -0.37091563842E+03  0.37622089482E+03  0.00000000000E+00 0. -1.
          1    1    1    2  502    0 -0.19706261571E+03  0.12377189818E+03  0.12702882014E+03  0.26512162951E+03  0.00000000000E+00 0. -1.
         22    1    3    3    0    0  0.88163516414E+02 -0.71668144479E+02 -0.94457599537E+02  0.14775441337E+03  0.00000000000E+00 0. -1.
         22    1    3    3    0    0  0.85692012467E+02 -0.11062880816E+03 -0.36534344581E+03  0.39122587797E+03  0.00000000000E+00 0. -1.
</event>
<event>
 7    1  0.6999029E-005  0.2369703E+03  0.7818608E-02  0.1295021E+00
          2   -1    0    0  502    0  0.00000000000E+00  0.00000000000E+00  0.85168707120E+03  0.85168707120E+03  0.00000000000E+00 0. -1.
          1   -1    0    0  501    0 -0.00000000000E+00 -0.00000000000E+00 -0.12788037326E+04  0.12788037326E+04  0.00000000000E+00 0. -1.
         25    2    1    2    0    0  0.57226379310E+02 -0.24424846588E+03 -0.21104173542E+02  0.28107461801E+03  0.12500153270E+03 0.  0.
          2    1    1    2  501    0 -0.35415713401E+02  0.97923882694E+01 -0.11081952650E+04  0.11088042699E+04  0.00000000000E+00 0. -1.
          1    1    1    2  502    0 -0.21810665910E+02  0.23445607761E+03  0.70218277712E+03  0.74061191589E+03  0.00000000000E+00 0. -1.
         22    1    3    3    0    0  0.66872663444E+02 -0.11373536964E+03 -0.59435372756E+02  0.14470746683E+03  0.00000000000E+00 0.  1.
         22    1    3    3    0    0 -0.96462841335E+01 -0.13051309624E+03  0.38331199215E+02  0.13636715118E+03  0.00000000000E+00 0.  1.
</event>
<event>
 7    1  0.6999029E-005  0.1168942E+03  0.7818608E-02  0.1287720E+00
          2   -1    0    0  502    0  0.00000000000E+00  0.00000000000E+00  0.18099781086E+03  0.18099781086E+03  0.00000000000E+00 0. -1.
          1   -1    0    0  501    0 -0.00000000000E+00 -0.00000000000E+00 -0.12699426067E+04  0.12699426067E+04  0.00000000000E+00 0. -1.
         25    2    1    2    0    0 -0.11960730523E+03  0.58894051816E+02 -0.11751868107E+02  0.18312530552E+03  0.12498941681E+03 0.  0.
          2    1    1    2  501    0  0.53889616130E+02 -0.10407113803E+03 -0.11523132420E+04  0.11582576139E+04  0.00000000000E+00 0. -1.
          1    1    1    2  502    0  0.65717689099E+02  0.45177086218E+02  0.75120314271E+02  0.10955749813E+03  0.00000000000E+00 0. -1.
         22    1    3    3    0    0 -0.11642110616E+02  0.71228748720E+02 -0.17640170739E+02  0.74298378229E+02  0.00000000000E+00 0.  1.
         22    1    3    3    0    0 -0.10796519461E+03 -0.12334696903E+02  0.58883026314E+01  0.10882692729E+03  0.00000000000E+00 0.  1.
</event>
<event>
 7    1  0.6999029E-005  0.4803405E+03  0.7818608E-02  0.1103845E+00
          2   -1    0    0  502    0  0.00000000000E+00  0.00000000000E+00  0.11258038652E+04  0.11258038652E+04  0.00000000000E+00 0. -1.
          1   -1    0    0  501    0 -0.00000000000E+00 -0.00000000000E+00 -0.13306839265E+04  0.13306839265E+04  0.00000000000E+00 0. -1.
         25    2    1    2    0    0  0.40694394842E+03  0.10641241139E+03 -0.44049237858E+03  0.62176313507E+03  0.12501552743E+03 0.  0.
          2    1    1    2  501    0 -0.54282973843E+03 -0.50808856917E+02 -0.70022153412E+03  0.88744344141E+03  0.00000000000E+00 0. -1.
          1    1    1    2  502    0  0.13588579001E+03 -0.55603554471E+02  0.93583385138E+03  0.94728121516E+03  0.00000000000E+00 0. -1.
         22    1    3    3    0    0  0.36255906339E+02  0.52750270905E+02 -0.71902282313E+02  0.96265362550E+02  0.00000000000E+00 0.  1.
         22    1    3    3    0    0  0.37068804208E+03  0.53662140483E+02 -0.36859009627E+03  0.52549777252E+03  0.00000000000E+00 0.  1.
</event>
<event>
 7    1  0.6999029E-005  0.8263918E+03  0.7818608E-02  0.1082191E+00
          2   -1    0    0  502    0  0.00000000000E+00  0.00000000000E+00  0.21237767040E+04  0.21237767040E+04  0.00000000000E+00 0. -1.
          1   -1    0    0  501    0 -0.00000000000E+00 -0.00000000000E+00 -0.10341678464E+04  0.10341678464E+04  0.00000000000E+00 0. -1.
         25    2    1    2    0    0 -0.16019600318E+03  0.77479097244E+03 -0.93897848212E+02  0.80647744761E+03  0.12500102875E+03 0.  0.
          2    1    1    2  501    0  0.81274533932E+02 -0.85627786836E+03 -0.26383916660E+03  0.89968241260E+03  0.00000000000E+00 0. -1.
          1    1    1    2  502    0  0.78921469247E+02  0.81486895915E+02  0.14473458724E+04  0.14517846902E+04  0.00000000000E+00 0. -1.
         22    1    3    3    0    0 -0.41118295927E+02  0.30810977086E+03  0.20256312953E+02  0.31150066352E+03  0.00000000000E+00 0.  1.
         22    1    3    3    0    0 -0.11907770725E+03  0.46668120159E+03 -0.11415416116E+03  0.49497678409E+03  0.00000000000E+00 0.  1.
</event>
<event>
 7    1  0.6999029E-005  0.5421915E+03  0.7818608E-02  0.1044117E+00
          2   -1    0    0  502    0  0.00000000000E+00  0.00000000000E+00  0.86071241293E+03  0.86071241293E+03  0.00000000000E+00 0. -1.
          1   -1    0    0  501    0 -0.00000000000E+00 -0.00000000000E+00 -0.11405457807E+04  0.11405457807E+04  0.00000000000E+00 0. -1.
         25    2    1    2    0    0  0.26533703534E+02 -0.59620843315E+03 -0.56875857154E+02  0.61239575626E+03  0.12500066394E+03 0.  0.
          2    1    1    2  501    0  0.24498197195E+03  0.48432629478E+03 -0.66486728423E+03  0.85827538240E+03  0.00000000000E+00 0. -1.
          1    1    1    2  502    0 -0.27151567549E+03  0.11188213836E+03  0.44190977360E+03  0.53058705499E+03  0.00000000000E+00 0. -1.
         22    1    3    3    0    0  0.54871852271E+02 -0.11911777323E+03 -0.24074276287E+02  0.13333992219E+03  0.00000000000E+00 0. -1.
         22    1    3    3    0    0 -0.28338148737E+02 -0.47709065991E+03 -0.32801580868E+02  0.47905583407E+03  0.00000000000E+00 0. -1.
</event>
<event>
 7    1  0.6999029E-005  0.1784285E+03  0.7818608E-02  0.1274441E+00
          2   -1    0    0  502    0  0.00000000000E+00  0.00000000000E+00  0.21686751675E+04  0.21686751675E+04  0.00000000000E+00 0. -1.
          1   -1    0    0  501    0 -0.00000000000E+00 -0.00000000000E+00 -0.54904720345E+03  0.54904720345E+03  0.00000000000E+00 0. -1.
         25    2    1    2    0    0  0.12391453020E+03 -0.12790612730E+03 -0.51561621654E+03  0.55964256312E+03  0.12499971000E+03 0.  0.
          2    1    1    2  501    0 -0.93046592813E+02  0.17850315098E+03  0.93738846607E+03  0.95875866602E+03  0.00000000000E+00 0. -1.
          1    1    1    2  502    0 -0.30867937385E+02 -0.50597023672E+02  0.11978557145E+04  0.11993211418E+04  0.00000000000E+00 0. -1.
         22    1    3    3    0    0  0.84492264299E+02 -0.14280698313E+03 -0.33081142998E+03  0.37009320362E+03  0.00000000000E+00 0. -1.
         22    1    3    3    0    0  0.39422265899E+02  0.14900855824E+02 -0.18480478656E+03  0.18954935951E+03  0.00000000000E+00 0. -1.
</event>
<event>
 7    1  0.6999029E-005  0.1310746E+03  0.7818608E-02  0.1319087E+00
          2   -1    0    0  502    0  0.00000000000E+00  0.00000000000E+00  0.23749640416E+03  0.23749640416E+03  0.00000000000E+00 0. -1.
          1   -1    0    0  501    0 -0.00000000000E+00 -0.00000000000E+00 -0.16699218629E+04  0.16699218629E+04  0.00000000000E+00 0. -1.
         25    2    1    2    0    0 -0.17801474502E+03 -0.29703155329E+02 -0.22190687643E+03  0.31215231076E+03  0.12499950570E+03 0.  0.
          2    1    1    2  501    0  0.12717249974E+03  0.13561310821E+02 -0.13962147007E+04  0.14020600002E+04  0.00000000000E+00 0. -1.
          1    1    1    2  502    0  0.50842245282E+02  0.16141844507E+02  0.18569611841E+03  0.19320595603E+03  0.00000000000E+00 0. -1.
         22    1    3    3    0    0 -0.15703486241E+03  0.25141742267E+00 -0.10312732516E+03  0.18787031808E+03  0.00000000000E+00 0. -1.
         22    1    3    3    0    0 -0.20979882611E+02 -0.29954572751E+02 -0.11877955127E+03  0.12428199268E+03  0.00000000000E+00 0. -1.
</event>
<event>
 7    1  0.6999029E-005  0.2036325E+03  0.7818608E-02  0.1246016E+00
          2   -1    0    0  502    0  0.00000000000E+00  0.00000000000E+00  0.15495608756E+03  0.15495608756E+03  0.00000000000E+00 0. -1.
          1   -1    0    0  501    0 -0.00000000000E+00 -0.00000000000E+00 -0.16374762202E+04  0.16374762202E+04  0.00000000000E+00 0. -1.
         25    2    1    2    0    0 -0.20215989214E+03  0.27376777276E+02 -0.20350001272E+03  0.31409360794E+03  0.12499771779E+03 0.  0.
          2    1    1    2  501    0 -0.54569874196E+00 -0.68663646146E+02 -0.12693914061E+04  0.12712472363E+04  0.00000000000E+00 0. -1.
          1    1    1    2  502    0  0.20270559088E+03  0.41286868870E+02 -0.96287138490E+01  0.20709146348E+03  0.00000000000E+00 0. -1.
         22    1    3    3    0    0 -0.15334279094E+03 -0.36337014882E+02 -0.11839188699E+03  0.19710664395E+03  0.00000000000E+00 0. -1.
         22    1    3    3    0    0 -0.48817101197E+02  0.63713792158E+02 -0.85108125720E+02  0.11698696399E+03  0.00000000000E+00 0. -1.
</event>
<event>
 7    1  0.6999029E-005  0.1794858E+03  0.7818608E-02  0.1248314E+00
          2   -1    0    0  502    0  0.00000000000E+00  0.00000000000E+00  0.19337336045E+04  0.19337336045E+04  0.00000000000E+00 0. -1.
          1   -1    0    0  501    0 -0.00000000000E+00 -0.00000000000E+00 -0.37432901117E+03  0.37432901117E+03  0.00000000000E+00 0. -1.
         25    2    1    2    0    0 -0.24336985123E+03 -0.33620022687E+02  0.12295380596E+04  0.12600553664E+04  0.12496597876E+03 0.  0.
          2    1    1    2  501    0  0.17000741070E+03  0.53951004574E+02 -0.33461243744E+03  0.37918163705E+03  0.00000000000E+00 0. -1.
          1    1    1    2  502    0  0.73362440523E+02 -0.20330981887E+02  0.66447897119E+03  0.66882561229E+03  0.00000000000E+00 0. -1.
         22    1    3    3    0    0 -0.11414576113E+03 -0.31004510208E+02  0.31585677174E+03  0.33727738539E+03  0.00000000000E+00 0. -1.
         22    1    3    3    0    0 -0.12922409009E+03 -0.26155124794E+01  0.91368128786E+03  0.92277798097E+03  0.00000000000E+00 0. -1.
</event>
<event>
 7    1  0.6999029E-005  0.2545930E+03  0.7818608E-02  0.1179959E+00
          2   -1    0    0  502    0  0.00000000000E+00  0.00000000000E+00  0.33611107493E+04  0.33611107493E+04  0.00000000000E+00 0. -1.
          1   -1    0    0  501    0 -0.00000000000E+00 -0.00000000000E+00 -0.11214170577E+04  0.11214170577E+04  0.00000000000E+00 0. -1.
         25    2    1    2    0    0  0.12928689980E+03 -0.18438382740E+03  0.28200364494E+03  0.38192509457E+03  0.12501289470E+03 0.  0.
          2    1    1    2  501    0 -0.22372792729E+03  0.12634834763E+03 -0.10550185722E+04  0.10858555512E+04  0.00000000000E+00 0. -1.
          1    1    1    2  502    0  0.94441027493E+02  0.58035479767E+02  0.30127086188E+04  0.30147471613E+04  0.00000000000E+00 0. -1.
         22    1    3    3    0    0  0.79448087228E+02 -0.17789784650E+03  0.16772294230E+03  0.25708097504E+03  0.00000000000E+00 0.  1.
         22    1    3    3    0    0  0.49838812574E+02 -0.64859809011E+01  0.11428070264E+03  0.12484411954E+03  0.00000000000E+00 0.  1.
</event>
<event>
 7    1  0.6999029E-005  0.3121507E+03  0.7818608E-02  0.1205550E+00
          2   -1    0    0  502    0  0.00000000000E+00  0.00000000000E+00  0.95747397056E+03  0.95747397056E+03  0.00000000000E+00 0. -1.
          1   -1    0    0  501    0 -0.00000000000E+00 -0.00000000000E+00 -0.15087270099E+04  0.15087270099E+04  0.00000000000E+00 0. -1.
         25    2    1    2    0    0 -0.36156908646E+03 -0.96694165675E+02 -0.24565259956E+02  0.39536148598E+03  0.12500114654E+03 0.  0.
          2    1    1    2  501    0  0.29503414093E+03  0.81564259585E+02 -0.12791625328E+04  0.13152774072E+04  0.00000000000E+00 0. -1.
          1    1    1    2  502    0  0.66534945527E+02  0.15129906090E+02  0.75247475344E+03  0.75556208719E+03  0.00000000000E+00 0. -1.
         22    1    3    3    0    0 -0.15917273128E+02 -0.40892440901E+02 -0.95750058718E+01  0.44913606447E+02  0.00000000000E+00 0. -1.
         22    1    3    3    0    0 -0.34565181333E+03 -0.55801724774E+02 -0.14990254085E+02  0.35044787953E+03  0.00000000000E+00 0. -1.
</event>
<event>
 7    1  0.6999029E-005  0.1552254E+03  0.7818608E-02  0.1240743E+00
          2   -1    0    0  502    0  0.00000000000E+00  0.00000000000E+00  0.91009313892E+03  0.91009313892E+03  0.00000000000E+00 0. -1.
          1   -1    0    0  501    0 -0.00000000000E+00 -0.00000000000E+00 -0.58865392638E+03  0.58865392638E+03  0.00000000000E+00 0. -1.
         25    2    1    2    0    0 -0.47472486011E+02  0.18034516876E+03 -0.28468995313E+03  0.36255953390E+03  0.12499211730E+03 0.  0.
          2    1    1    2  501    0 -0.39246085879E+02 -0.14153887166E+03 -0.24182046498E+03  0.28293222639E+03  0.00000000000E+00 0. -1.
          1    1    1    2  502    0  0.86718571890E+02 -0.38806297096E+02  0.84794963065E+03  0.85325530501E+03  0.00000000000E+00 0. -1.
         22    1    3    3    0    0  0.27402365076E+02  0.13299110464E+03 -0.17814782451E+03  0.22399591716E+03  0.00000000000E+00 0.  1.
         22    1    3    3    0    0 -0.74874851087E+02  0.47354064113E+02 -0.10654212862E+03  0.13856361674E+03  0.00000000000E+00 0.  1.
</event>
<event>
 7    1  0.6999029E-005  0.7973184E+02  0.7818608E-02  0.1407069E+00
          2   -1    0    0  502    0  0.00000000000E+00  0.00000000000E+00  0.18947361870E+04  0.18947361870E+04  0.00000000000E+00 0. -1.
          1   -1    0    0  501    0 -0.00000000000E+00 -0.00000000000E+00 -0.19911609974E+02  0.19911609974E+02  0.00000000000E+00 0. -1.
         25    2    1    2    0    0 -0.31919135049E+02  0.98141068553E+02  0.69413953647E+03  0.71281501915E+03  0.12500021969E+03 0.  0.
          2    1    1    2  501    0  0.47697894186E+02 -0.59241453162E+02  0.13227102433E+03  0.15257871005E+03  0.00000000000E+00 0. -1.
          1    1    1    2  502    0 -0.15778759137E+02 -0.38899615391E+02  0.10484140163E+04  0.10492540678E+04  0.00000000000E+00 0. -1.
         22    1    3    3    0    0 -0.24631105952E+02  0.29539744166E+02  0.41663949071E+02  0.56702491286E+02  0.00000000000E+00 0.  1.
         22    1    3    3    0    0 -0.72880290969E+01  0.68601324387E+02  0.65247558740E+03  0.65611252787E+03  0.00000000000E+00 0.  1.
</event>
<event>
 7    1  0.6999029E-005  0.5849318E+03  0.7818608E-02  0.1207539E+00
          2   -1    0    0  502    0  0.00000000000E+00  0.00000000000E+00  0.16117707051E+04  0.16117707051E+04  0.00000000000E+00 0. -1.
          1   -1    0    0  501    0 -0.00000000000E+00 -0.00000000000E+00 -0.16569701104E+04  0.16569701104E+04  0.00000000000E+00 0. -1.
         25    2    1    2    0    0 -0.34491007579E+03 -0.48912286562E+03 -0.15932255842E+03  0.63183301716E+03  0.12500058360E+03 0.  0.
          2    1    1    2  501    0  0.35963019840E+03  0.45666102143E+03 -0.11941723805E+04  0.13281268172E+04  0.00000000000E+00 0. -1.
          1    1    1    2  502    0 -0.14720122605E+02  0.32461844183E+02  0.13082955336E+04  0.13087809812E+04  0.00000000000E+00 0. -1.
         22    1    3    3    0    0 -0.10249066414E+03 -0.66099560470E+02 -0.12239657826E+02  0.12256956128E+03  0.00000000000E+00 0. -1.
         22    1    3    3    0    0 -0.24241941166E+03 -0.42302330515E+03 -0.14708290059E+03  0.50926345588E+03  0.00000000000E+00 0. -1.
</event>
<event>
 7    1  0.6999029E-005  0.7125711E+02  0.7818608E-02  0.1375636E+00
          2   -1    0    0  502    0  0.00000000000E+00  0.00000000000E+00  0.11418254974E+04  0.11418254974E+04  0.00000000000E+00 0. -1.
          1   -1    0    0  501    0 -0.00000000000E+00 -0.00000000000E+00 -0.85796184602E+02  0.85796184602E+02  0.00000000000E+00 0. -1.
         25    2    1    2    0    0  0.42931565809E+02  0.41304262351E+02  0.70016691730E+03  0.71372773442E+03  0.12499762143E+03 0.  0.
          2    1    1    2  501    0 -0.39875875168E+02  0.45416275383E+02 -0.62314334050E+02  0.86808984087E+02  0.00000000000E+00 0. -1.
          1    1    1    2  502    0 -0.30556906406E+01 -0.86720537734E+02  0.41817672957E+03  0.42708496352E+03  0.00000000000E+00 0. -1.
         22    1    3    3    0    0 -0.41936382811E+02 -0.57362730116E+00  0.16432420075E+03  0.16959195796E+03  0.00000000000E+00 0.  1.
         22    1    3    3    0    0  0.84867948620E+02  0.41877889652E+02  0.53584271655E+03  0.54413577646E+03  0.00000000000E+00 0.  1.
</event>
<event>
 7    1  0.6999029E-005  0.1528387E+04  0.7818608E-02  0.1147653E+00
          2   -1    0    0  502    0  0.00000000000E+00  0.00000000000E+00  0.20003386298E+04  0.20003386298E+04  0.00000000000E+00 0. -1.
          1   -1    0    0  501    0 -0.00000000000E+00 -0.00000000000E+00 -0.14357552653E+04  0.14357552653E+04  0.00000000000E+00 0. -1.
         25    2    1    2    0    0  0.52595057697E+03 -0.14406448053E+04  0.79633844003E+03  0.17325880981E+04  0.12500056844E+03 0.  0.
          2    1    1    2  501    0  0.16550484646E+02  0.21114332319E+02 -0.18101937750E+03  0.18299658085E+03  0.00000000000E+00 0. -1.
          1    1    1    2  502    0 -0.54250106162E+03  0.14195304730E+04 -0.50735698004E+02  0.15205092162E+04  0.00000000000E+00 0. -1.
         22    1    3    3    0    0  0.49995594539E+03 -0.12507878504E+04  0.69057208722E+03  0.15137093518E+04  0.00000000000E+00 0.  1.
         22    1    3    3    0    0  0.25994631577E+02 -0.18985695491E+03  0.10576635281E+03  0.21887874631E+03  0.00000000000E+00 0.  1.
</event>
<event>
 7    1  0.6999029E-005  0.4063009E+03  0.7818608E-02  0.1215716E+00
          2   -1    0    0  502    0  0.00000000000E+00  0.00000000000E+00  0.23990402763E+04  0.23990402763E+04  0.00000000000E+00 0. -1.
          1   -1    0    0  501    0 -0.00000000000E+00 -0.00000000000E+00 -0.70849499720E+03  0.70849499720E+03  0.00000000000E+00 0. -1.
         25    2    1    2    0    0 -0.17774753923E+03 -0.31553921545E+03  0.94748191684E+03  0.10220111972E+04  0.12500288117E+03 0.  0.
          2    1    1    2  501    0  0.20357654342E+03  0.35484829277E+03 -0.60844966834E+03  0.73319282512E+03  0.00000000000E+00 0. -1.
          1    1    1    2  502    0 -0.25829004194E+02 -0.39309077320E+02  0.13515130306E+04  0.13523312512E+04  0.00000000000E+00 0. -1.
         22    1    3    3    0    0 -0.11382762279E+03 -0.12308499055E+03  0.56157272976E+03  0.58606362574E+03  0.00000000000E+00 0.  1.
         22    1    3    3    0    0 -0.63919916438E+02 -0.19245422489E+03  0.38590918708E+03  0.43594757147E+03  0.00000000000E+00 0.  1.
</event>
<event>
 7    1  0.6999029E-005  0.3449578E+03  0.7818608E-02  0.1169737E+00
          2   -1    0    0  502    0  0.00000000000E+00  0.00000000000E+00  0.11358678005E+04  0.11358678005E+04  0.00000000000E+00 0. -1.
          1   -1    0    0  501    0 -0.00000000000E+00 -0.00000000000E+00 -0.52418804384E+03  0.52418804384E+03  0.00000000000E+00 0. -1.
         25    2    1    2    0    0 -0.12682688011E+03  0.26552339111E+03  0.23642143846E+01  0.31971471772E+03  0.12499672985E+03 0.  0.
          2    1    1    2  501    0  0.11962025015E+03 -0.35710571738E+03 -0.26545501867E+03  0.46076009437E+03  0.00000000000E+00 0. -1.
          1    1    1    2  502    0  0.72066299665E+01  0.91582326271E+02  0.87477056094E+03  0.87958103225E+03  0.00000000000E+00 0. -1.
         22    1    3    3    0    0 -0.72333805279E+02  0.60237167279E+02  0.42965288057E+02  0.10347324140E+03  0.00000000000E+00 0.  1.
         22    1    3    3    0    0 -0.54493074835E+02  0.20528622383E+03 -0.40601073672E+02  0.21624147632E+03  0.00000000000E+00 0.  1.
</event>
<event>
 7    1  0.6999029E-005  0.4630418E+02  0.7818608E-02  0.1553989E+00
          2   -1    0    0  502    0  0.00000000000E+00  0.00000000000E+00  0.32284163284E+04  0.32284163284E+04  0.00000000000E+00 0. -1.
          1   -1    0    0  501    0 -0.00000000000E+00 -0.00000000000E+00 -0.12388163237E+04  0.12388163237E+04  0.00000000000E+00 0. -1.
         25    2    1    2    0    0  0.36421712138E+02 -0.43433491495E+02 -0.46003287245E+03  0.48007085405E+03  0.12499908749E+03 0.  0.
          2    1    1    2  501    0  0.59862491268E+01  0.24846019006E+02 -0.76838546067E+03  0.76881036414E+03  0.00000000000E+00 0. -1.
          1    1    1    2  502    0 -0.42407961265E+02  0.18587472489E+02  0.32180183379E+04  0.32183514339E+04  0.00000000000E+00 0. -1.
         22    1    3    3    0    0  0.16502755043E+02 -0.83348523585E+02 -0.36951375791E+03  0.37915660958E+03  0.00000000000E+00 0. -1.
         22    1    3    3    0    0  0.19918957095E+02  0.39915032090E+02 -0.90519114546E+02  0.10091424447E+03  0.00000000000E+00 0. -1.
</event>
<event>
 7    1  0.6999029E-005  0.1817895E+03  0.7818608E-02  0.1318783E+00
          2   -1    0    0  502    0  0.00000000000E+00  0.00000000000E+00  0.67281099795E+03  0.67281099795E+03  0.00000000000E+00 0. -1.
          1   -1    0    0  501    0 -0.00000000000E+00 -0.00000000000E+00 -0.85595752370E+03  0.85595752370E+03  0.00000000000E+00 0. -1.
         25    2    1    2    0    0  0.74928440073E+02  0.13003585122E+03  0.10264420840E+02  0.19558723024E+03  0.12500165025E+03 0.  0.
          2    1    1    2  501    0  0.28752531273E+02  0.25703753923E+02 -0.74742956491E+03  0.74842390764E+03  0.00000000000E+00 0. -1.
          1    1    1    2  502    0 -0.10368097135E+03 -0.15573960514E+03  0.55401861833E+03  0.58475738378E+03  0.00000000000E+00 0. -1.
         22    1    3    3    0    0  0.65557106895E+02  0.36160509244E+02 -0.43912008428E+02  0.86796204856E+02  0.00000000000E+00 0. -1.
         22    1    3    3    0    0  0.93713331786E+01  0.93875341974E+02  0.54176429268E+02  0.10879102539E+03  0.00000000000E+00 0. -1.
</event>
<event>
 7    1  0.6999029E-005  0.3064383E+03  0.7818608E-02  0.1191262E+00
          2   -1    0    0  502    0  0.00000000000E+00  0.00000000000E+00  0.52163755590E+03  0.52163755590E+03  0.00000000000E+00 0. -1.
          1   -1    0    0  501    0 -0.00000000000E+00 -0.00000000000E+00 -0.57453202469E+03  0.57453202469E+03  0.00000000000E+00 0. -1.
         25    2    1    2    0    0 -0.15823455628E+03  0.31539571330E+03  0.18492186989E+03  0.41753278355E+03  0.12499958644E+03 0.  0.
          2    1    1    2  501    0  0.43947909617E+02 -0.68286756420E+02 -0.36800134986E+03  0.37685473775E+03  0.00000000000E+00 0. -1.
          1    1    1    2  502    0  0.11428664666E+03 -0.24710895688E+03  0.13018501119E+03  0.30178205929E+03  0.00000000000E+00 0. -1.
         22    1    3    3    0    0 -0.25674088436E+02  0.14290178466E+03  0.12576738306E+03  0.19208725496E+03  0.00000000000E+00 0. -1.
         22    1    3    3    0    0 -0.13256046784E+03  0.17249392863E+03  0.59154486833E+02  0.22544552859E+03  0.00000000000E+00 0. -1.
</event>
<event>
 7    1  0.6999029E-005  0.5656832E+03  0.7818608E-02  0.1127154E+00
          2   -1    0    0  502    0  0.00000000000E+00  0.00000000000E+00  0.19411230830E+04  0.19411230830E+04  0.00000000000E+00 0. -1.
          1   -1    0    0  501    0 -0.00000000000E+00 -0.00000000000E+00 -0.87255938247E+03  0.87255938247E+03  0.00000000000E+00 0. -1.
         25    2    1    2    0    0 -0.76670635860E+02  0.54249149479E+03 -0.82354945800E+02  0.56796360066E+03  0.12499962502E+03 0.  0.
          2    1    1    2  501    0 -0.85612068273E+01 -0.57950730157E+03 -0.39220189714E+03  0.69980306870E+03  0.00000000000E+00 0. -1.
          1    1    1    2  502    0  0.85231842688E+02  0.37015806786E+02  0.15431205435E+04  0.15459157961E+04  0.00000000000E+00 0. -1.
         22    1    3    3    0    0  0.11117493239E+02  0.25176411785E+03  0.46547827995E+01  0.25205244831E+03  0.00000000000E+00 0.  1.
         22    1    3    3    0    0 -0.87788129099E+02  0.29072737693E+03 -0.87009728600E+02  0.31591115235E+03  0.00000000000E+00 0.  1.
</event>
<event>
 7    1  0.6999029E-005  0.6829310E+02  0.7818608E-02  0.1382538E+00
          2   -1    0    0  502    0  0.00000000000E+00  0.00000000000E+00  0.90284985006E+02  0.90284985006E+02  0.00000000000E+00 0. -1.
          1   -1    0    0  501    0 -0.00000000000E+00 -0.00000000000E+00 -0.16854119565E+04  0.16854119565E+04  0.00000000000E+00 0. -1.
         25    2    1    2    0    0 -0.10447636320E+03  0.67252998837E+02 -0.23932737244E+03  0.29722179078E+03  0.12499970157E+03 0.  0.
          2    1    1    2  501    0  0.49103929501E+02 -0.33786887184E+02 -0.13992629631E+04  0.14005318953E+04  0.00000000000E+00 0. -1.
          1    1    1    2  502    0  0.55372433702E+02 -0.33466111654E+02  0.43463364133E+02  0.77943255418E+02  0.00000000000E+00 0. -1.
         22    1    3    3    0    0  0.21050038203E+02 -0.92518746627E+01 -0.66328333704E+02  0.70200777382E+02  0.00000000000E+00 0. -1.
         22    1    3    3    0    0 -0.12552640141E+03  0.76504873500E+02 -0.17299903874E+03  0.22702101340E+03  0.00000000000E+00 0. -1.
</event>
<event>
 7    1  0.6999029E-005  0.2045162E+03  0.7818608E-02  0.1249966E+00
          2   -1    0    0  502    0  0.00000000000E+00  0.00000000000E+00  0.30489213218E+03  0.30489213218E+03  0.00000000000E+00 0. -1.
          1   -1    0    0  501    0 -0.00000000000E+00 -0.00000000000E+00 -0.94772566193E+03  0.94772566193E+03  0.00000000000E+00 0. -1.
         25    2    1    2    0    0  0.10683728045E+03  0.16399874795E+03 -0.73323875312E+03  0.76913877984E+03  0.12500239902E+03 0.  0.
          2    1    1    2  501    0 -0.93761061441E+02 -0.22840006122E+03 -0.11167807949E+03  0.27097918379E+03  0.00000000000E+00 0. -1.
          1    1    1    2  502    0 -0.13076219012E+02  0.64401313270E+02  0.20208330286E+03  0.21249983047E+03  0.00000000000E+00 0. -1.
         22    1    3    3    0    0  0.10392979901E+02  0.22111088055E+02 -0.10983886016E+02  0.26787310395E+02  0.00000000000E+00 0. -1.
         22    1    3    3    0    0  0.96444300551E+02  0.14188765990E+03 -0.72225486710E+03  0.74235146945E+03  0.00000000000E+00 0. -1.
</event>
<event>
 7    1  0.6999029E-005  0.4892447E+03  0.7818608E-02  0.1162403E+00
          2   -1    0    0  502    0  0.00000000000E+00  0.00000000000E+00  0.16694893231E+04  0.16694893231E+04  0.00000000000E+00 0. -1.
          1   -1    0    0  501    0 -0.00000000000E+00 -0.00000000000E+00 -0.25383864225E+04  0.25383864225E+04  0.00000000000E+00 0. -1.
         25    2    1    2    0    0  0.39186333707E+03 -0.28012269150E+03 -0.21825214119E+04  0.22385373746E+04  0.12499706866E+03 0.  0.
          2    1    1    2  501    0 -0.45089212167E+03  0.31863450962E+03 -0.93905907726E+02  0.56004461930E+03  0.00000000000E+00 0. -1.
          1    1    1    2  502    0  0.59028784591E+02 -0.38511818123E+02  0.14075302202E+04  0.14092937516E+04  0.00000000000E+00 0. -1.
         22    1    3    3    0    0  0.22724458986E+03 -0.16531613706E+03 -0.98449518098E+03  0.10238165315E+04  0.00000000000E+00 0. -1.
         22    1    3    3    0    0  0.16461874721E+03 -0.11480655444E+03 -0.11980262309E+04  0.12147208431E+04  0.00000000000E+00 0. -1.
</event>
<event>
 7    1  0.6999029E-005  0.2631317E+03  0.7818608E-02  0.1169469E+00
          2   -1    0    0  502    0  0.00000000000E+00  0.00000000000E+00  0.11832779073E+04  0.11832779073E+04  0.00000000000E+00 0. -1.
          1   -1    0    0  501    0 -0.00000000000E+00 -0.00000000000E+00 -0.10055736829E+04  0.10055736829E+04  0.00000000000E+00 0. -1.
         25    2    1    2    0    0  0.12900273640E+03 -0.27931696319E+03  0.96261972752E+03  0.10182931518E+04  0.12499812469E+03 0.  0.
          2    1    1    2  501    0 -0.36584394955E+02  0.11513033526E+03 -0.92683721226E+03  0.93467675166E+03  0.00000000000E+00 0. -1.
          1    1    1    2  502    0 -0.92418341450E+02  0.16418662793E+03  0.14192170915E+03  0.23588168677E+03  0.00000000000E+00 0. -1.
         22    1    3    3    0    0  0.38950382058E+02 -0.22066669555E+03  0.62273542409E+03  0.66182348946E+03  0.00000000000E+00 0.  1.
         22    1    3    3    0    0  0.90052354347E+02 -0.58650267640E+02  0.33988430343E+03  0.35646966230E+03  0.00000000000E+00 0.  1.
</event>
<event>
 7    1  0.6999029E-005  0.1588235E+03  0.7818608E-02  0.1328479E+00
          2   -1    0    0  502    0  0.00000000000E+00  0.00000000000E+00  0.25353000467E+04  0.25353000467E+04  0.00000000000E+00 0. -1.
          1   -1    0    0  501    0 -0.00000000000E+00 -0.00000000000E+00 -0.22602754907E+03  0.22602754907E+03  0.00000000000E+00 0. -1.
         25    2    1    2    0    0  0.33144071061E+02 -0.16355156179E+03  0.32401124831E+03  0.38529904598E+03  0.12499769192E+03 0.  0.
          2    1    1    2  501    0  0.70204070504E+01  0.15834797868E+03 -0.16301515150E+03  0.22737042043E+03  0.00000000000E+00 0. -1.
          1    1    1    2  502    0 -0.40164478111E+02  0.52035831051E+01  0.21482764008E+04  0.21486581294E+04  0.00000000000E+00 0. -1.
         22    1    3    3    0    0  0.40087526229E+02 -0.27476858406E+02  0.18248122019E+03  0.18884221782E+03  0.00000000000E+00 0.  1.
         22    1    3    3    0    0 -0.69434551678E+01 -0.13607470338E+03  0.14153002812E+03  0.19645682816E+03  0.00000000000E+00 0.  1.
</event>
<event>
 7    1  0.6999029E-005  0.3652031E+03  0.7818608E-02  0.1199541E+00
          2   -1    0    0  502    0  0.00000000000E+00  0.00000000000E+00  0.16407111571E+04  0.16407111571E+04  0.00000000000E+00 0. -1.
          1   -1    0    0  501    0 -0.00000000000E+00 -0.00000000000E+00 -0.84789923891E+03  0.84789923891E+03  0.00000000000E+00 0. -1.
         25    2    1    2    0    0 -0.31823010359E+03  0.27488596179E+03 -0.16607083150E+03  0.46908146408E+03  0.12500083219E+03 0.  0.
          2    1    1    2  501    0  0.56883566160E+02 -0.25251838248E+02 -0.50646252490E+03  0.51027216714E+03  0.00000000000E+00 0. -1.
          1    1    1    2  502    0  0.26134653743E+03 -0.24963412355E+03  0.14653452746E+04  0.15092567647E+04  0.00000000000E+00 0. -1.
         22    1    3    3    0    0 -0.30298107667E+03  0.20548042265E+03 -0.12409011280E+03  0.38654636592E+03  0.00000000000E+00 0. -1.
         22    1    3    3    0    0 -0.15249026918E+02  0.69405539142E+02 -0.41980718704E+02  0.82535098161E+02  0.00000000000E+00 0. -1.
</event>
<event>
 7    1  0.6999029E-005  0.1160225E+04  0.7818608E-02  0.1062910E+00
          2   -1    0    0  502    0  0.00000000000E+00  0.00000000000E+00  0.18533363166E+04  0.18533363166E+04  0.00000000000E+00 0. -1.
          1   -1    0    0  501    0 -0.00000000000E+00 -0.00000000000E+00 -0.19053575198E+04  0.19053575198E+04  0.00000000000E+00 0. -1.
         25    2    1    2    0    0  0.25763289936E+03 -0.11338959877E+04 -0.10850149530E+04  0.15952990711E+04  0.12500742424E+03 0.  0.
          2    1    1    2  501    0 -0.35749249307E+03  0.11009632393E+04  0.33136556802E+02  0.11580237339E+04  0.00000000000E+00 0. -1.
          1    1    1    2  502    0  0.99859593710E+02  0.32932748404E+02  0.99985719297E+03  0.10053710314E+04  0.00000000000E+00 0. -1.
         22    1    3    3    0    0  0.25239845544E+03 -0.89935820914E+03 -0.84319107225E+03  0.12583804484E+04  0.00000000000E+00 0. -1.
         22    1    3    3    0    0  0.52344439258E+01 -0.23453777860E+03 -0.24182388071E+03  0.33691862264E+03  0.00000000000E+00 0. -1.
</event>
<event>
 7    1  0.6999029E-005  0.1413349E+04  0.7818608E-02  0.1105425E+00
          2   -1    0    0  502    0  0.00000000000E+00  0.00000000000E+00  0.42359670708E+04  0.42359670708E+04  0.00000000000E+00 0. -1.
          1   -1    0    0  501    0 -0.00000000000E+00 -0.00000000000E+00 -0.15481804331E+04  0.15481804331E+04  0.00000000000E+00 0. -1.
         25    2    1    2    0    0 -0.10630987220E+04 -0.90177142318E+03  0.17908906381E+02  0.13997554787E+04  0.12499631508E+03 0.  0.
          2    1    1    2  501    0  0.11119053820E+04  0.89883012029E+03 -0.26075735056E+03  0.14533490838E+04  0.00000000000E+00 0. -1.
          1    1    1    2  502    0 -0.48806659928E+02  0.29413028907E+01  0.29306350819E+04  0.29310429414E+04  0.00000000000E+00 0. -1.
         22    1    3    3    0    0 -0.52397894202E+03 -0.40234895433E+03  0.61996826780E+02  0.66353765474E+03  0.00000000000E+00 0. -1.
         22    1    3    3    0    0 -0.53911978001E+03 -0.49942246885E+03 -0.44087920399E+02  0.73621782396E+03  0.00000000000E+00 0. -1.
</event>
<event>
 7    1  0.6999029E-005  0.2975336E+03  0.7818608E-02  0.1145500E+00
          2   -1    0    0  502    0  0.00000000000E+00  0.00000000000E+00  0.20454678743E+04  0.20454678743E+04  0.00000000000E+00 0. -1.
          1   -1    0    0  501    0 -0.00000000000E+00 -0.00000000000E+00 -0.27627536936E+03  0.27627536936E+03  0.00000000000E+00 0. -1.
         25    2    1    2    0    0  0.40761845653E+03  0.72323753237E+02  0.15592157431E+03  0.45969507473E+03  0.12499797201E+03 0.  0.
          2    1    1    2  501    0 -0.11900644283E+03 -0.76351578318E+02 -0.67495766981E+02  0.15667729736E+03  0.00000000000E+00 0. -1.
          1    1    1    2  502    0 -0.28861201371E+03  0.40278250811E+01  0.16807666976E+04  0.17053708715E+04  0.00000000000E+00 0. -1.
         22    1    3    3    0    0  0.16209688624E+03 -0.28576414370E+02  0.36357941654E+02  0.16856426640E+03  0.00000000000E+00 0.  1.
         22    1    3    3    0    0  0.24552157030E+03  0.10090016761E+03  0.11956363266E+03  0.29113080833E+03  0.00000000000E+00 0.  1.
</event>
<event>
 7    1  0.6999029E-005  0.7749498E+03  0.7818608E-02  0.1151310E+00
          2   -1    0    0  502    0  0.00000000000E+00  0.00000000000E+00  0.21072283638E+04  0.21072283638E+04  0.00000000000E+00 0. -1.
          1   -1    0    0  501    0 -0.00000000000E+00 -0.00000000000E+00 -0.75755652208E+03  0.75755652208E+03  0.00000000000E+00 0. -1.
         25    2    1    2    0    0  0.77538629459E+03  0.18940037116E+03  0.10373308880E+04  0.13148298288E+04  0.12500280435E+03 0.  0.
          2    1    1    2  501    0 -0.50609943464E+02  0.23642410586E+01 -0.46630315542E+03  0.46904753359E+03  0.00000000000E+00 0. -1.
          1    1    1    2  502    0 -0.72477635113E+03 -0.19176461222E+03  0.77864410920E+03  0.10809075235E+04  0.00000000000E+00 0. -1.
         22    1    3    3    0    0  0.62477361861E+03  0.18474576119E+03  0.89914857774E+03  0.11103788703E+04  0.00000000000E+00 0.  1.
         22    1    3    3    0    0  0.15061267598E+03  0.46546099739E+01  0.13818231024E+03  0.20445095848E+03  0.00000000000E+00 0.  1.
</event>
<event>
 7    1  0.6999029E-005  0.1379204E+03  0.7818608E-02  0.1289224E+00
          2   -1    0    0  502    0  0.00000000000E+00  0.00000000000E+00  0.83380063627E+03  0.83380063627E+03  0.00000000000E+00 0. -1.
          1   -1    0    0  501    0 -0.00000000000E+00 -0.00000000000E+00 -0.90353809460E+03  0.90353809460E+03  0.00000000000E+00 0. -1.
         25    2    1    2    0    0  0.85160502362E+01 -0.16960588385E+03  0.35711968664E+03  0.41472751749E+03  0.12500305689E+03 0.  0.
          2    1    1    2  501    0 -0.48343408155E+02  0.45871567927E+02 -0.86399249731E+03  0.86655889659E+03  0.00000000000E+00 0. -1.
          1    1    1    2  502    0  0.39827357919E+02  0.12373431592E+03  0.43713535235E+03  0.45605231679E+03  0.00000000000E+00 0. -1.
         22    1    3    3    0    0  0.99702952941E+01 -0.75748726806E+02  0.44715015210E+02  0.88525188428E+02  0.00000000000E+00 0.  1.
         22    1    3    3    0    0 -0.14542450579E+01 -0.93857157042E+02  0.31240467143E+03  0.32620232906E+03  0.00000000000E+00 0.  1.
</event>
<event>
 7    1  0.6999029E-005  0.5571864E+02  0.7818608E-02  0.1431666E+00
          2   -1    0    0  502    0  0.00000000000E+00  0.00000000000E+00  0.20517755851E+04  0.20517755851E+04  0.00000000000E+00 0. -1.
          1   -1    0    0  501    0 -0.00000000000E+00 -0.00000000000E+00 -0.17332392391E+03  0.17332392391E+03  0.00000000000E+00 0. -1.
         25    2    1    2    0    0  0.78352268900E+02 -0.41706280835E+02  0.12415539625E+03  0.19727752129E+03  0.12500146433E+03 0.  0.
          2    1    1    2  501    0 -0.28903297499E+02  0.46765017266E+02 -0.13089716263E+03  0.14197335888E+03  0.00000000000E+00 0. -1.
          1    1    1    2  502    0 -0.49448971401E+02 -0.50587364312E+01  0.18851934276E+04  0.18858486289E+04  0.00000000000E+00 0. -1.
         22    1    3    3    0    0 -0.19285998774E+02 -0.15441563387E+02  0.85554695879E+02  0.89050534055E+02  0.00000000000E+00 0. -1.
         22    1    3    3    0    0  0.97638267675E+02 -0.26264717448E+02  0.38600700372E+02  0.10822698724E+03  0.00000000000E+00 0. -1.
</event>
<event>
 7    1  0.6999029E-005  0.4225677E+02  0.7818608E-02  0.1554978E+00
          2   -1    0    0  502    0  0.00000000000E+00  0.00000000000E+00  0.12618015621E+04  0.12618015621E+04  0.00000000000E+00 0. -1.
          1   -1    0    0  501    0 -0.00000000000E+00 -0.00000000000E+00 -0.23980848753E+03  0.23980848753E+03  0.00000000000E+00 0. -1.
         25    2    1    2    0    0  0.62928653069E+02  0.94026149469E+01  0.12044784594E+03  0.18488461088E+03  0.12500484472E+03 0.  0.
          2    1    1    2  501    0 -0.25827705387E+02  0.10361532228E+02 -0.20625702332E+03  0.20812590273E+03  0.00000000000E+00 0. -1.
          1    1    1    2  502    0 -0.37100947682E+02 -0.19764147175E+02  0.11078022520E+04  0.11085995360E+04  0.00000000000E+00 0. -1.
         22    1    3    3    0    0 -0.34240878631E+02  0.16212980888E+02  0.57665188828E+02  0.68996902258E+02  0.00000000000E+00 0.  1.
         22    1    3    3    0    0  0.97169531701E+02 -0.68103659412E+01  0.62782657112E+02  0.11588770862E+03  0.00000000000E+00 0.  1.
</event>
<event>
 7    1  0.6999029E-005  0.2574480E+03  0.7818608E-02  0.1194062E+00
          2   -1    0    0  502    0  0.00000000000E+00  0.00000000000E+00  0.10058885163E+04  0.10058885163E+04  0.00000000000E+00 0. -1.
          1   -1    0    0  501    0 -0.00000000000E+00 -0.00000000000E+00 -0.37555555080E+03  0.37555555080E+03  0.00000000000E+00 0. -1.
         25    2    1    2    0    0  0.13764165529E+03 -0.23635025241E+03  0.10976176364E+02  0.30091933746E+03  0.12500121648E+03 0.  0.
          2    1    1    2  501    0 -0.45096243854E+02  0.25119328942E+03 -0.15627187034E+03  0.29925346668E+03  0.00000000000E+00 0. -1.
          1    1    1    2  502    0 -0.92545411440E+02 -0.14843037013E+02  0.77562865947E+03  0.78127126295E+03  0.00000000000E+00 0. -1.
         22    1    3    3    0    0  0.84028643001E+02 -0.72398823156E+02 -0.44813286750E+02  0.11962705843E+03  0.00000000000E+00 0. -1.
         22    1    3    3    0    0  0.53613012294E+02 -0.16395142925E+03  0.55789463114E+02  0.18129227903E+03  0.00000000000E+00 0. -1.
</event>
<event>
 7    1  0.6999029E-005  0.1168884E+04  0.7818608E-02  0.1108140E+00
          2   -1    0    0  502    0  0.00000000000E+00  0.00000000000E+00  0.35361695982E+04  0.35361695982E+04  0.00000000000E+00 0. -1.
          1   -1    0    0  501    0 -0.00000000000E+00 -0.00000000000E+00 -0.93548804513E+03  0.93548804513E+03  0.00000000000E+00 0. -1.
         25    2    1    2    0    0  0.18029639498E+03  0.11261047850E+04  0.19825265310E+04  0.22905578403E+04  0.12499998683E+03 0.  0.
          2    1    1    2  501    0 -0.23121454839E+03 -0.11519456272E+04 -0.33852482714E+03  0.12227174465E+04  0.00000000000E+00 0. -1.
          1    1    1    2  502    0  0.50918153408E+02  0.25840842162E+02  0.95667984918E+03  0.95838235652E+03  0.00000000000E+00 0. -1.
         22    1    3    3    0    0  0.12674919892E+03  0.79128016199E+03  0.15025125892E+04  0.17028604567E+04  0.00000000000E+00 0.  1.
         22    1    3    3    0    0  0.53547196068E+02  0.33482462302E+03  0.48001394181E+03  0.58769738363E+03  0.00000000000E+00 0.  1.
</event>
<event>
 7    1  0.6999029E-005  0.2017515E+03  0.7818608E-02  0.1238713E+00
          2   -1    0    0  502    0  0.00000000000E+00  0.00000000000E+00  0.43873748054E+03  0.43873748054E+03  0.00000000000E+00 0. -1.
          1   -1    0    0  501    0 -0.00000000000E+00 -0.00000000000E+00 -0.19366000333E+04  0.19366000333E+04  0.00000000000E+00 0. -1.
         25    2    1    2    0    0 -0.15143526786E+03 -0.31974750699E+02  0.44595753428E+02  0.20388256399E+03  0.12499717454E+03 0.  0.
          2    1    1    2  501    0 -0.63006858492E+02 -0.39977010178E+02 -0.18154209114E+04  0.18169538000E+04  0.00000000000E+00 0. -1.
          1    1    1    2  502    0  0.21444212635E+03  0.71951760877E+02  0.27296260521E+03  0.35450114991E+03  0.00000000000E+00 0. -1.
         22    1    3    3    0    0 -0.60527200855E+02 -0.49648632350E+01 -0.43294197968E+02  0.74582702338E+02  0.00000000000E+00 0. -1.
         22    1    3    3    0    0 -0.90908067001E+02 -0.27009887464E+02  0.87889951397E+02  0.12929986165E+03  0.00000000000E+00 0. -1.
</event>
<event>
 7    1  0.6999029E-005  0.1044187E+03  0.7818608E-02  0.1274383E+00
          2   -1    0    0  502    0  0.00000000000E+00  0.00000000000E+00  0.31629835704E+03  0.31629835704E+03  0.00000000000E+00 0. -1.
          1   -1    0    0  501    0 -0.00000000000E+00 -0.00000000000E+00 -0.12614755972E+04  0.12614755972E+04  0.00000000000E+00 0. -1.
         25    2    1    2    0    0  0.60786681813E+02  0.96329901286E+02 -0.29633461749E+03  0.34119546688E+03  0.12500268209E+03 0.  0.
          2    1    1    2  501    0 -0.10577546987E+03 -0.20999628207E+01 -0.93034122340E+03  0.93633736005E+03  0.00000000000E+00 0. -1.
          1    1    1    2  502    0  0.44988788060E+02 -0.94229938465E+02  0.28149860070E+03  0.30024112735E+03  0.00000000000E+00 0. -1.
         22    1    3    3    0    0 -0.11523355187E+02  0.85397982954E+02 -0.10183545652E+03  0.13340188684E+03  0.00000000000E+00 0. -1.
         22    1    3    3    0    0  0.72310037000E+02  0.10931918332E+02 -0.19449916097E+03  0.20779358004E+03  0.00000000000E+00 0. -1.
</event>
<event>
 7    1  0.6999029E-005  0.4465452E+03  0.7818608E-02  0.1207420E+00
          2   -1    0    0  502    0  0.00000000000E+00  0.00000000000E+00  0.64678178135E+03  0.64678178135E+03  0.00000000000E+00 0. -1.
          1   -1    0    0  501    0 -0.00000000000E+00 -0.00000000000E+00 -0.55969064908E+03  0.55969064908E+03  0.00000000000E+00 0. -1.
         25    2    1    2    0    0  0.26039089396E+03 -0.36749542585E+03  0.10173599923E+03  0.47836303696E+03  0.12499870361E+03 0.  0.
          2    1    1    2  501    0 -0.21850789429E+03  0.38826234929E+03 -0.23440819396E+03  0.50342879649E+03  0.00000000000E+00 0. -1.
          1    1    1    2  502    0 -0.41882999674E+02 -0.20766923433E+02  0.21976332699E+03  0.22468059699E+03  0.00000000000E+00 0. -1.
         22    1    3    3    0    0  0.26682422342E+03 -0.37157902268E+03  0.10607615566E+03  0.46959374687E+03  0.00000000000E+00 0. -1.
         22    1    3    3    0    0 -0.64333294529E+01  0.40835968264E+01 -0.43401564254E+01  0.87692900902E+01  0.00000000000E+00 0. -1.
</event>
<event>
 7    1  0.6999029E-005  0.9058753E+03  0.7818608E-02  0.1143601E+00
          2   -1    0    0  502    0  0.00000000000E+00  0.00000000000E+00  0.77433199122E+03  0.77433199122E+03  0.00000000000E+00 0. -1.
          1   -1    0    0  501    0 -0.00000000000E+00 -0.00000000000E+00 -0.26924085449E+04  0.26924085449E+04  0.00000000000E+00 0. -1.
         25    2    1    2    0    0  0.59899922026E+03  0.68630759535E+03 -0.22158327658E+04  0.23990327829E+04  0.12500106353E+03 0.  0.
          2    1    1    2  501    0 -0.60287272315E+03 -0.63895823720E+03  0.12352996162E+03  0.88712051077E+03  0.00000000000E+00 0. -1.
          1    1    1    2  502    0  0.38735028876E+01 -0.47349358142E+02  0.17422625058E+03  0.18058724244E+03  0.00000000000E+00 0. -1.
         22    1    3    3    0    0  0.51745005409E+03  0.63317034731E+03 -0.20448379671E+04  0.22022764493E+04  0.00000000000E+00 0.  1.
         22    1    3    3    0    0  0.81549166175E+02  0.53137248032E+02 -0.17099479873E+03  0.19675633363E+03  0.00000000000E+00 0.  1.
</event>
<event>
 7    1  0.6999029E-005  0.7167346E+03  0.7818608E-02  0.1102113E+00
          2   -1    0    0  502    0  0.00000000000E+00  0.00000000000E+00  0.10102539120E+04  0.10102539120E+04  0.00000000000E+00 0. -1.
          1   -1    0    0  501    0 -0.00000000000E+00 -0.00000000000E+00 -0.14062753144E+04  0.14062753144E+04  0.00000000000E+00 0. -1.
         25    2    1    2    0    0 -0.20580868682E+03  0.73345897150E+03 -0.92353418776E+01  0.77203026213E+03  0.12500462256E+03 0.  0.
          2    1    1    2  501    0  0.88629922946E+02 -0.47636285592E+02 -0.81917156603E+03  0.82532813688E+03  0.00000000000E+00 0. -1.
          1    1    1    2  502    0  0.11717876387E+03 -0.68582268591E+03  0.43238550550E+03  0.81917082747E+03  0.00000000000E+00 0. -1.
         22    1    3    3    0    0 -0.18372534442E+03  0.46586196179E+03 -0.36687782235E+02  0.50212385224E+03  0.00000000000E+00 0. -1.
         22    1    3    3    0    0 -0.22083342399E+02  0.26759700971E+03  0.27452440358E+02  0.26990640989E+03  0.00000000000E+00 0. -1.
</event>
<event>
 7    1  0.6999029E-005  0.3145603E+03  0.7818608E-02  0.1185012E+00
          2   -1    0    0  502    0  0.00000000000E+00  0.00000000000E+00  0.58082540180E+03  0.58082540180E+03  0.00000000000E+00 0. -1.
          1   -1    0    0  501    0 -0.00000000000E+00 -0.00000000000E+00 -0.70251509923E+03  0.70251509923E+03  0.00000000000E+00 0. -1.
         25    2    1    2    0    0 -0.32900807718E+03  0.16924851122E+03 -0.23083178476E+03  0.45365038761E+03  0.12499595162E+03 0.  0.
          2    1    1    2  501    0  0.25897321662E+03 -0.12146419625E+03 -0.29843902148E+03  0.41338423705E+03  0.00000000000E+00 0. -1.
          1    1    1    2  502    0  0.70034860556E+02 -0.47784314964E+02  0.40758110880E+03  0.41630587637E+03  0.00000000000E+00 0. -1.
         22    1    3    3    0    0 -0.72729557911E+02 -0.14522185538E+02 -0.31501164444E+02  0.80577948771E+02  0.00000000000E+00 0. -1.
         22    1    3    3    0    0 -0.25627851927E+03  0.18377069676E+03 -0.19933062031E+03  0.37307243884E+03  0.00000000000E+00 0. -1.
</event>
<event>
 7    1  0.6999029E-005  0.3271201E+03  0.7818608E-02  0.1163028E+00
          2   -1    0    0  502    0  0.00000000000E+00  0.00000000000E+00  0.10114579205E+04  0.10114579205E+04  0.00000000000E+00 0. -1.
          1   -1    0    0  501    0 -0.00000000000E+00 -0.00000000000E+00 -0.11353326902E+04  0.11353326902E+04  0.00000000000E+00 0. -1.
         25    2    1    2    0    0  0.39664731423E+03 -0.16856394989E+02 -0.47028108893E+03  0.62801694470E+03  0.12501100066E+03 0.  0.
          2    1    1    2  501    0 -0.29435495633E+03 -0.52420745875E+01 -0.54596741780E+03  0.62028440328E+03  0.00000000000E+00 0. -1.
          1    1    1    2  502    0 -0.10229235791E+03  0.22098469577E+02  0.89237373701E+03  0.89848926279E+03  0.00000000000E+00 0. -1.
         22    1    3    3    0    0  0.27382089162E+03  0.46066311942E+02 -0.29876880066E+03  0.40787593951E+03  0.00000000000E+00 0. -1.
         22    1    3    3    0    0  0.12282642262E+03 -0.62922706931E+02 -0.17151228827E+03  0.22014100519E+03  0.00000000000E+00 0. -1.
</event>
<event>
 7    1  0.6999029E-005  0.2985974E+03  0.7818608E-02  0.1335647E+00
          2   -1    0    0  502    0  0.00000000000E+00  0.00000000000E+00  0.15672305813E+04  0.15672305813E+04  0.00000000000E+00 0. -1.
          1   -1    0    0  501    0 -0.00000000000E+00 -0.00000000000E+00 -0.14288146951E+03  0.14288146951E+03  0.00000000000E+00 0. -1.
         25    2    1    2    0    0 -0.23861397455E+03 -0.14956692406E+03  0.16802715122E+03  0.35094902585E+03  0.12500080630E+03 0.  0.
          2    1    1    2  501    0 -0.17395651881E+02 -0.10326223981E+02 -0.30951175816E+02  0.36975869029E+02  0.00000000000E+00 0. -1.
          1    1    1    2  502    0  0.25600962643E+03  0.15989314804E+03  0.12872731364E+04  0.13221871559E+04  0.00000000000E+00 0. -1.
         22    1    3    3    0    0 -0.43637142002E+02 -0.38654892636E+02 -0.16391827600E+02  0.60556526476E+02  0.00000000000E+00 0.  1.
         22    1    3    3    0    0 -0.19497683255E+03 -0.11091203142E+03  0.18441897882E+03  0.29039249938E+03  0.00000000000E+00 0.  1.
</event>
<event>
 7    1  0.6999029E-005  0.1347242E+03  0.7818608E-02  0.1251126E+00
          2   -1    0    0  502    0  0.00000000000E+00  0.00000000000E+00  0.44600802974E+03  0.44600802974E+03  0.00000000000E+00 0. -1.
          1   -1    0    0  501    0 -0.00000000000E+00 -0.00000000000E+00 -0.34368038901E+03  0.34368038901E+03  0.00000000000E+00 0. -1.
         25    2    1    2    0    0 -0.17848009311E+03  0.96752414894E+02  0.13939427222E+03  0.27617957235E+03  0.12501287786E+03 0.  0.
          2    1    1    2  501    0  0.58915153035E+02 -0.79075617787E+02 -0.24995507458E+03  0.26870334552E+03  0.00000000000E+00 0. -1.
          1    1    1    2  502    0  0.11956494008E+03 -0.17676797108E+02  0.21288844310E+03  0.24480550087E+03  0.00000000000E+00 0. -1.
         22    1    3    3    0    0 -0.19082370791E+03  0.65038899024E+02  0.10313609235E+03  0.22645264280E+03  0.00000000000E+00 0. -1.
         22    1    3    3    0    0  0.12343614796E+02  0.31713515871E+02  0.36258179866E+02  0.49726929548E+02  0.00000000000E+00 0. -1.
</event>
<event>
 7    1  0.6999029E-005  0.3584630E+03  0.7818608E-02  0.1120404E+00
          2   -1    0    0  502    0  0.00000000000E+00  0.00000000000E+00  0.13192809594E+04  0.13192809594E+04  0.00000000000E+00 0. -1.
          1   -1    0    0  501    0 -0.00000000000E+00 -0.00000000000E+00 -0.75132993098E+03  0.75132993098E+03  0.00000000000E+00 0. -1.
         25    2    1    2    0    0 -0.31276612504E+03 -0.35013727153E+03 -0.22060192553E+03  0.53358178543E+03  0.12500221718E+03 0.  0.
          2    1    1    2  501    0  0.19261763999E+03  0.24529189660E+03 -0.30244136287E+03  0.43444268637E+03  0.00000000000E+00 0. -1.
          1    1    1    2  502    0  0.12014848505E+03  0.10484537494E+03  0.10909943168E+04  0.11025864186E+04  0.00000000000E+00 0. -1.
         22    1    3    3    0    0 -0.27516515675E+03 -0.23795923375E+03 -0.19413467138E+03  0.41234540260E+03  0.00000000000E+00 0. -1.
         22    1    3    3    0    0 -0.37600968291E+02 -0.11217803779E+03 -0.26467254149E+02  0.12123638282E+03  0.00000000000E+00 0. -1.
</event>
<event>
 7    1  0.6999029E-005  0.6271066E+03  0.7818608E-02  0.1180072E+00
          2   -1    0    0  502    0  0.00000000000E+00  0.00000000000E+00  0.86690039191E+03  0.86690039191E+03  0.00000000000E+00 0. -1.
          1   -1    0    0  501    0 -0.00000000000E+00 -0.00000000000E+00 -0.19564137530E+04  0.19564137530E+04  0.00000000000E+00 0. -1.
         25    2    1    2    0    0 -0.14291948902E+02  0.60773349503E+03  0.15899393087E+03  0.64066369278E+03  0.12500654546E+03 0.  0.
          2    1    1    2  501    0 -0.26795904515E+02  0.36083423778E+02 -0.14923142585E+04  0.14929909176E+04  0.00000000000E+00 0. -1.
          1    1    1    2  502    0  0.41087853416E+02 -0.64381691881E+03  0.24380696651E+03  0.68965953453E+03  0.00000000000E+00 0. -1.
         22    1    3    3    0    0 -0.26692220743E+02  0.51134632449E+03  0.86212546855E+02  0.51924959456E+03  0.00000000000E+00 0. -1.
         22    1    3    3    0    0  0.12400271842E+02  0.96387170543E+02  0.72781384019E+02  0.12141409822E+03  0.00000000000E+00 0. -1.
</event>
<event>
 7    1  0.6999029E-005  0.1677724E+03  0.7818608E-02  0.1303914E+00
          2   -1    0    0  502    0  0.00000000000E+00  0.00000000000E+00  0.85682334626E+02  0.85682334626E+02  0.00000000000E+00 0. -1.
          1   -1    0    0  501    0 -0.00000000000E+00 -0.00000000000E+00 -0.91212400414E+03  0.91212400414E+03  0.00000000000E+00 0. -1.
         25    2    1    2    0    0  0.15478726200E+03  0.13782443200E+03 -0.57566886302E+03  0.62447926197E+03  0.12500015302E+03 0.  0.
          2    1    1    2  501    0 -0.41085505024E+02 -0.24452679724E+02 -0.19893716153E+03  0.20460192205E+03  0.00000000000E+00 0. -1.
          1    1    1    2  502    0 -0.11370175697E+03 -0.11337175227E+03 -0.51835644957E+02  0.16872515473E+03  0.00000000000E+00 0. -1.
         22    1    3    3    0    0  0.28629219511E+02  0.10113719620E+03 -0.32331804023E+03  0.33997488113E+03  0.00000000000E+00 0. -1.
         22    1    3    3    0    0  0.12615804249E+03  0.36687235800E+02 -0.25235082279E+03  0.28450438084E+03  0.00000000000E+00 0. -1.
</event>
<event>
 7    1  0.6999029E-005  0.1218623E+04  0.7818608E-02  0.1088688E+00
          2   -1    0    0  502    0  0.00000000000E+00  0.00000000000E+00  0.12519228670E+04  0.12519228670E+04  0.00000000000E+00 0. -1.
          1   -1    0    0  501    0 -0.00000000000E+00 -0.00000000000E+00 -0.16059968709E+04  0.16059968709E+04  0.00000000000E+00 0. -1.
         25    2    1    2    0    0  0.87495488889E+03 -0.88676159771E+03  0.24372865885E+03  0.12755079240E+04  0.12499846531E+03 0.  0.
          2    1    1    2  501    0 -0.80547452197E+03  0.89897699506E+03 -0.74551974954E+03  0.14187136921E+04  0.00000000000E+00 0. -1.
          1    1    1    2  502    0 -0.69480366918E+02 -0.12215397347E+02  0.14771708679E+03  0.16369812170E+03  0.00000000000E+00 0. -1.
         22    1    3    3    0    0  0.48617254019E+03 -0.45596597658E+03  0.18804116422E+03  0.69255194035E+03  0.00000000000E+00 0.  1.
         22    1    3    3    0    0  0.38878234870E+03 -0.43079562113E+03  0.55687494627E+02  0.58295598368E+03  0.00000000000E+00 0.  1.
</event>
<event>
 7    1  0.6999029E-005  0.4213718E+03  0.7818608E-02  0.1217160E+00
          2   -1    0    0  502    0  0.00000000000E+00  0.00000000000E+00  0.18784514213E+03  0.18784514213E+03  0.00000000000E+00 0. -1.
          1   -1    0    0  501    0 -0.00000000000E+00 -0.00000000000E+00 -0.13343321361E+04  0.13343321361E+04  0.00000000000E+00 0. -1.
         25    2    1    2    0    0  0.17346548012E+03 -0.38319488140E+03 -0.50050388577E+03  0.66562603144E+03  0.12500113657E+03 0.  0.
          2    1    1    2  501    0 -0.13274046539E+03  0.40154060998E+03 -0.67974028568E+03  0.80056339449E+03  0.00000000000E+00 0. -1.
          1    1    1    2  502    0 -0.40725014731E+02 -0.18345728578E+02  0.33757177434E+02  0.55987852345E+02  0.00000000000E+00 0. -1.
         22    1    3    3    0    0  0.91377015252E+02 -0.28100496492E+03 -0.41378135772E+03  0.50845703970E+03  0.00000000000E+00 0.  1.
         22    1    3    3    0    0  0.82088464865E+02 -0.10218991648E+03 -0.86722528051E+02  0.15716899174E+03  0.00000000000E+00 0.  1.
</event>
<event>
 7    1  0.6999029E-005  0.1358858E+03  0.7818608E-02  0.1291148E+00
          2   -1    0    0  502    0  0.00000000000E+00  0.00000000000E+00  0.19838786681E+03  0.19838786681E+03  0.00000000000E+00 0. -1.
          1   -1    0    0  501    0 -0.00000000000E+00 -0.00000000000E+00 -0.10436677137E+04  0.10436677137E+04  0.00000000000E+00 0. -1.
         25    2    1    2    0    0 -0.11738328183E+03  0.42233939208E+02 -0.95632179820E+02  0.20083154303E+03  0.12500101753E+03 0.  0.
          2    1    1    2  501    0 -0.22491256647E+02 -0.62510486216E+02 -0.85959515192E+03  0.86215847888E+03  0.00000000000E+00 0. -1.
          1    1    1    2  502    0  0.13987453848E+03  0.20276547008E+02  0.10994748481E+03  0.17906555863E+03  0.00000000000E+00 0. -1.
         22    1    3    3    0    0 -0.14062418459E+03  0.51897600145E+02 -0.71938008697E+02  0.16626364391E+03  0.00000000000E+00 0.  1.
         22    1    3    3    0    0  0.23240902760E+02 -0.96636609369E+01 -0.23694171123E+02  0.34567899112E+02  0.00000000000E+00 0.  1.
</event>
<event>
 7    1  0.6999029E-005  0.9792320E+02  0.7818608E-02  0.1300720E+00
          2   -1    0    0  502    0  0.00000000000E+00  0.00000000000E+00  0.51486708371E+03  0.51486708371E+03  0.00000000000E+00 0. -1.
          1   -1    0    0  501    0 -0.00000000000E+00 -0.00000000000E+00 -0.50116600138E+03  0.50116600138E+03  0.00000000000E+00 0. -1.
         25    2    1    2    0    0  0.17663312412E+03 -0.27651207545E+02 -0.17372264494E+03  0.27886936721E+03  0.12499886714E+03 0.  0.
          2    1    1    2  501    0 -0.84352062987E+02  0.67487378109E+00 -0.26320539842E+03  0.27639248858E+03  0.00000000000E+00 0. -1.
          1    1    1    2  502    0 -0.92281061128E+02  0.26976333764E+02  0.45062912570E+03  0.46077122931E+03  0.00000000000E+00 0. -1.
         22    1    3    3    0    0  0.72234547530E+02 -0.35425410662E+02 -0.15195991439E+03  0.17194361040E+03  0.00000000000E+00 0.  1.
         22    1    3    3    0    0  0.10439857659E+03  0.77742031163E+01 -0.21762730555E+02  0.10692575680E+03  0.00000000000E+00 0.  1.
</event>
<event>
 7    1  0.6999029E-005  0.7906342E+02  0.7818608E-02  0.1404880E+00
          2   -1    0    0  502    0  0.00000000000E+00  0.00000000000E+00  0.84826775745E+02  0.84826775745E+02  0.00000000000E+00 0. -1.
          1   -1    0    0  501    0 -0.00000000000E+00 -0.00000000000E+00 -0.10511916140E+04  0.10511916140E+04  0.00000000000E+00 0. -1.
         25    2    1    2    0    0  0.68450815657E+01  0.53605428717E+02 -0.15321253269E+03  0.20498464082E+03  0.12499690265E+03 0.  0.
          2    1    1    2  501    0 -0.34389818988E+02  0.25923985580E+02 -0.84121312821E+03  0.84231481036E+03  0.00000000000E+00 0. -1.
          1    1    1    2  502    0  0.27544737422E+02 -0.79529414298E+02  0.28060822614E+02  0.88718938587E+02  0.00000000000E+00 0. -1.
         22    1    3    3    0    0  0.43311257735E+02  0.36606684104E+01 -0.42224031576E+01  0.43670289995E+02  0.00000000000E+00 0.  1.
         22    1    3    3    0    0 -0.36466176170E+02  0.49944760307E+02 -0.14899012953E+03  0.16131435083E+03  0.00000000000E+00 0.  1.
</event>
<event>
 7    1  0.6999029E-005  0.1953386E+03  0.7818608E-02  0.1284668E+00
          2   -1    0    0  502    0  0.00000000000E+00  0.00000000000E+00  0.94254913022E+03  0.94254913022E+03  0.00000000000E+00 0. -1.
          1   -1    0    0  501    0 -0.00000000000E+00 -0.00000000000E+00 -0.88103243093E+03  0.88103243093E+03  0.00000000000E+00 0. -1.
         25    2    1    2    0    0  0.20666046015E+03  0.97158878569E+02  0.10483450899E+03  0.28064696499E+03  0.12499620477E+03 0.  0.
          2    1    1    2  501    0 -0.23356290753E+02 -0.43206111220E+02 -0.78016786507E+03  0.78171233971E+03  0.00000000000E+00 0. -1.
          1    1    1    2  502    0 -0.18330416939E+03 -0.53952767349E+02  0.73685005536E+03  0.76122225645E+03  0.00000000000E+00 0. -1.
         22    1    3    3    0    0  0.13293548362E+03  0.38498294875E+02  0.12245920916E+03  0.18479777981E+03  0.00000000000E+00 0. -1.
         22    1    3    3    0    0  0.73724976525E+02  0.58660583694E+02 -0.17624700168E+02  0.95849185176E+02  0.00000000000E+00 0. -1.
</event>
<event>
 7    1  0.6999029E-005  0.3017095E+03  0.7818608E-02  0.1239211E+00
          2   -1    0    0  502    0  0.00000000000E+00  0.00000000000E+00  0.17641066970E+04  0.17641066970E+04  0.00000000000E+00 0. -1.
          1   -1    0    0  501    0 -0.00000000000E+00 -0.00000000000E+00 -0.55046739205E+03  0.55046739205E+03  0.00000000000E+00 0. -1.
         25    2    1    2    0    0 -0.99864241348E+01  0.34964410582E+03  0.14909103064E+04  0.15364861156E+04  0.12500124857E+03 0.  0.
          2    1    1    2  501    0  0.44090669507E+01 -0.30031297503E+03 -0.48172929743E+03  0.56768868127E+03  0.00000000000E+00 0. -1.
          1    1    1    2  502    0  0.55773571841E+01 -0.49331130786E+02  0.20445829592E+03  0.21039929217E+03  0.00000000000E+00 0. -1.
         22    1    3    3    0    0 -0.32372011568E+02  0.21012737685E+03  0.11107679689E+04  0.11309318911E+04  0.00000000000E+00 0.  1.
         22    1    3    3    0    0  0.22385587434E+02  0.13951672897E+03  0.38014233754E+03  0.40555422446E+03  0.00000000000E+00 0.  1.
</event>
<event>
 7    1  0.6999029E-005  0.3285910E+03  0.7818608E-02  0.1213096E+00
          2   -1    0    0  502    0  0.00000000000E+00  0.00000000000E+00  0.75636196421E+03  0.75636196421E+03  0.00000000000E+00 0. -1.
          1   -1    0    0  501    0 -0.00000000000E+00 -0.00000000000E+00 -0.10037536379E+04  0.10037536379E+04  0.00000000000E+00 0. -1.
         25    2    1    2    0    0  0.35391375502E+03  0.24666890777E+02  0.21848982846E+03  0.43500213140E+03  0.12500259073E+03 0.  0.
          2    1    1    2  501    0 -0.44885704525E+02  0.39508007084E+02 -0.83631711024E+03  0.83845209641E+03  0.00000000000E+00 0. -1.
          1    1    1    2  502    0 -0.30902805049E+03 -0.64174897861E+02  0.37043560809E+03  0.48666137431E+03  0.00000000000E+00 0. -1.
         22    1    3    3    0    0  0.28470769955E+03 -0.32089346805E+02  0.17144339983E+03  0.33388776514E+03  0.00000000000E+00 0.  1.
         22    1    3    3    0    0  0.69206055463E+02  0.56756237582E+02  0.47046428626E+02  0.10111436626E+03  0.00000000000E+00 0.  1.
</event>
<event>
 7    1  0.6999029E-005  0.2402588E+03  0.7818608E-02  0.1177441E+00
          2   -1    0    0  502    0  0.00000000000E+00  0.00000000000E+00  0.18604851170E+04  0.18604851170E+04  0.00000000000E+00 0. -1.
          1   -1    0    0  501    0 -0.00000000000E+00 -0.00000000000E+00 -0.12594914113E+03  0.12594914113E+03  0.00000000000E+00 0. -1.
         25    2    1    2    0    0  0.30710398561E+03 -0.75022340200E+02  0.42511189165E+03  0.54432231219E+03  0.12500179849E+03 0.  0.
          2    1    1    2  501    0 -0.21424450137E+03 -0.23052896401E+01  0.11805145616E+03  0.24462658692E+03  0.00000000000E+00 0. -1.
          1    1    1    2  502    0 -0.92859484238E+02  0.77327629840E+02  0.11913726281E+04  0.11974853590E+04  0.00000000000E+00 0. -1.
         22    1    3    3    0    0  0.31544085533E+03 -0.83223123290E+02  0.41929815083E+03  0.53126260997E+03  0.00000000000E+00 0.  1.
         22    1    3    3    0    0 -0.83368697178E+01  0.82007830901E+01  0.58137408196E+01  0.13059702229E+02  0.00000000000E+00 0.  1.
</event>
<event>
 7    1  0.6999029E-005  0.5923787E+02  0.7818608E-02  0.1531245E+00
          2   -1    0    0  502    0  0.00000000000E+00  0.00000000000E+00  0.65217448116E+03  0.65217448116E+03  0.00000000000E+00 0. -1.
          1   -1    0    0  501    0 -0.00000000000E+00 -0.00000000000E+00 -0.39643283617E+03  0.39643283617E+03  0.00000000000E+00 0. -1.
         25    2    1    2    0    0 -0.16238613532E+02 -0.73159173367E+02 -0.12665954504E+03  0.19308985516E+03  0.12500037839E+03 0.  0.
          2    1    1    2  501    0 -0.10698995021E+02  0.20532509600E+02 -0.23457519374E+03  0.23571502702E+03  0.00000000000E+00 0. -1.
          1    1    1    2  502    0  0.26937608553E+02  0.52626663767E+02  0.61697638377E+03  0.61980243516E+03  0.00000000000E+00 0. -1.
         22    1    3    3    0    0  0.44044248827E+02 -0.41492099858E+02 -0.15059956099E+02  0.62356174378E+02  0.00000000000E+00 0. -1.
         22    1    3    3    0    0 -0.60282862359E+02 -0.31667073509E+02 -0.11159958894E+03  0.13073368078E+03  0.00000000000E+00 0. -1.
</event>
<event>
 7    1  0.6999029E-005  0.1318010E+03  0.7818608E-02  0.1250067E+00
          2   -1    0    0  502    0  0.00000000000E+00  0.00000000000E+00  0.24858925247E+03  0.24858925247E+03  0.00000000000E+00 0. -1.
          1   -1    0    0  501    0 -0.00000000000E+00 -0.00000000000E+00 -0.11227437476E+04  0.11227437476E+04  0.00000000000E+00 0. -1.
         25    2    1    2    0    0 -0.89332624830E+02  0.17773549089E+02 -0.24721821436E+02  0.15662834519E+03  0.12500021262E+03 0.  0.
          2    1    1    2  501    0 -0.44414818932E+02 -0.91674758163E+02 -0.99705063402E+03  0.10022409412E+04  0.00000000000E+00 0. -1.
          1    1    1    2  502    0  0.13374744376E+03  0.73901209074E+02  0.14761796033E+03  0.21246371367E+03  0.00000000000E+00 0. -1.
         22    1    3    3    0    0 -0.10105238183E+02  0.28125141598E+02 -0.61721867659E+02  0.68576441844E+02  0.00000000000E+00 0. -1.
         22    1    3    3    0    0 -0.79227386647E+02 -0.10351592509E+02  0.37000046223E+02  0.88051903346E+02  0.00000000000E+00 0. -1.
</event>
<event>
 7    1  0.6999029E-005  0.3649108E+03  0.7818608E-02  0.1102940E+00
          2   -1    0    0  502    0  0.00000000000E+00  0.00000000000E+00  0.23622723755E+03  0.23622723755E+03  0.00000000000E+00 0. -1.
          1   -1    0    0  501    0 -0.00000000000E+00 -0.00000000000E+00 -0.15376570187E+04  0.15376570187E+04  0.00000000000E+00 0. -1.
         25    2    1    2    0    0  0.34665961600E+03  0.72310795810E+02 -0.68369470663E+03  0.78004195440E+03  0.12500103276E+03 0.  0.
          2    1    1    2  501    0 -0.66836894603E+02  0.18375716522E+03 -0.58069733026E+03  0.61273424551E+03  0.00000000000E+00 0. -1.
          1    1    1    2  502    0 -0.27982272140E+03 -0.25606796103E+03 -0.37037744222E+02  0.38110805630E+03  0.00000000000E+00 0. -1.
         22    1    3    3    0    0  0.19601492291E+03  0.63704188710E+02 -0.50934189979E+03  0.54946268713E+03  0.00000000000E+00 0. -1.
         22    1    3    3    0    0  0.15064469309E+03  0.86066071000E+01 -0.17435280684E+03  0.23057926727E+03  0.00000000000E+00 0. -1.
</event>
<event>
 7    1  0.6999029E-005  0.4591787E+03  0.7818608E-02  0.1217062E+00
          2   -1    0    0  502    0  0.00000000000E+00  0.00000000000E+00  0.11544607654E+04  0.11544607654E+04  0.00000000000E+00 0. -1.
          1   -1    0    0  501    0 -0.00000000000E+00 -0.00000000000E+00 -0.40834194189E+03  0.40834194189E+03  0.00000000000E+00 0. -1.
         25    2    1    2    0    0 -0.47354295980E+03 -0.22995466645E+02  0.19040222667E+03  0.52597389840E+03  0.12499523037E+03 0.  0.
          2    1    1    2  501    0  0.19928615341E+02  0.35866498121E+02 -0.17331073424E+03  0.17810156091E+03  0.00000000000E+00 0. -1.
          1    1    1    2  502    0  0.45361434446E+03 -0.12871031477E+02  0.72902733104E+03  0.85872724794E+03  0.00000000000E+00 0. -1.
         22    1    3    3    0    0 -0.19982188846E+03 -0.54970870694E+02  0.36837511021E+02  0.21049367200E+03  0.00000000000E+00 0.  1.
         22    1    3    3    0    0 -0.27372107134E+03  0.31975404049E+02  0.15356471565E+03  0.31548022640E+03  0.00000000000E+00 0.  1.
</event>
<event>
 7    1  0.6999029E-005  0.2280151E+03  0.7818608E-02  0.1291987E+00
          2   -1    0    0  502    0  0.00000000000E+00  0.00000000000E+00  0.21763062090E+04  0.21763062090E+04  0.00000000000E+00 0. -1.
          1   -1    0    0  501    0 -0.00000000000E+00 -0.00000000000E+00 -0.43062143937E+03  0.43062143937E+03  0.00000000000E+00 0. -1.
         25    2    1    2    0    0 -0.25964496662E+03 -0.33725258116E+02  0.27039177640E+03  0.39659720197E+03  0.12499890454E+03 0.  0.
          2    1    1    2  501    0  0.22388667500E+03  0.17464541341E+02 -0.33298094876E+03  0.40162988644E+03  0.00000000000E+00 0. -1.
          1    1    1    2  502    0  0.35758291622E+02  0.16260716775E+02  0.18082739420E+04  0.18087005600E+04  0.00000000000E+00 0. -1.
         22    1    3    3    0    0 -0.12132549143E+03  0.36576899522E+02  0.75581742665E+02  0.14754776947E+03  0.00000000000E+00 0. -1.
         22    1    3    3    0    0 -0.13831947518E+03 -0.70302157637E+02  0.19481003374E+03  0.24904943250E+03  0.00000000000E+00 0. -1.
</event>
<event>
 7    1  0.6999029E-005  0.2924242E+03  0.7818608E-02  0.1138000E+00
          2   -1    0    0  502    0  0.00000000000E+00  0.00000000000E+00  0.15539685046E+04  0.15539685046E+04  0.00000000000E+00 0. -1.
          1   -1    0    0  501    0 -0.00000000000E+00 -0.00000000000E+00 -0.95328115744E+03  0.95328115744E+03  0.00000000000E+00 0. -1.
         25    2    1    2    0    0  0.32203218134E+03  0.29720019591E+03 -0.87699251932E+02  0.46405674596E+03  0.12499928966E+03 0.  0.
          2    1    1    2  501    0 -0.13278792470E+03 -0.84583897451E+02 -0.65311678804E+03  0.67182483392E+03  0.00000000000E+00 0. -1.
          1    1    1    2  502    0 -0.18924425664E+03 -0.21261629846E+03  0.13415033872E+04  0.13713680822E+04  0.00000000000E+00 0. -1.
         22    1    3    3    0    0  0.62929124216E+02  0.13705380875E+03 -0.21352768625E+02  0.15231468050E+03  0.00000000000E+00 0. -1.
         22    1    3    3    0    0  0.25910305712E+03  0.16014638716E+03 -0.66346483307E+02  0.31174206546E+03  0.00000000000E+00 0. -1.
</event>
<event>
 7    1  0.6999029E-005  0.8661215E+03  0.7818608E-02  0.1174808E+00
          2   -1    0    0  502    0  0.00000000000E+00  0.00000000000E+00  0.18205458734E+04  0.18205458734E+04  0.00000000000E+00 0. -1.
          1   -1    0    0  501    0 -0.00000000000E+00 -0.00000000000E+00 -0.22873576829E+04  0.22873576829E+04  0.00000000000E+00 0. -1.
         25    2    1    2    0    0 -0.88198023928E+03 -0.96867108658E+02 -0.23003441237E+03  0.92510170630E+03  0.12499982765E+03 0.  0.
          2    1    1    2  501    0  0.23388920431E+02  0.25408185024E+02 -0.15836044003E+04  0.15839809072E+04  0.00000000000E+00 0. -1.
          1    1    1    2  502    0  0.85859131885E+03  0.71458923634E+02  0.13468270033E+04  0.15988209428E+04  0.00000000000E+00 0. -1.
         22    1    3    3    0    0 -0.78825642955E+03 -0.60474651767E+02 -0.17218788088E+03  0.80910694506E+03  0.00000000000E+00 0. -1.
         22    1    3    3    0    0 -0.93723809730E+02 -0.36392456891E+02 -0.57846531494E+02  0.11599476124E+03  0.00000000000E+00 0. -1.
</event>
<event>
 7    1  0.6999029E-005  0.2078166E+03  0.7818608E-02  0.1207033E+00
          2   -1    0    0  502    0  0.00000000000E+00  0.00000000000E+00  0.83960806800E+03  0.83960806800E+03  0.00000000000E+00 0. -1.
          1   -1    0    0  501    0 -0.00000000000E+00 -0.00000000000E+00 -0.14473427416E+04  0.14473427416E+04  0.00000000000E+00 0. -1.
         25    2    1    2    0    0  0.89170321255E+02  0.26684460644E+03  0.10697694507E+03  0.32591954548E+03  0.12498837214E+03 0.  0.
          2    1    1    2  501    0  0.16914623333E+02 -0.99441288810E+02 -0.13201410783E+04  0.13239891016E+04  0.00000000000E+00 0. -1.
          1    1    1    2  502    0 -0.10608494459E+03 -0.16740331763E+03  0.60542945966E+03  0.63704216254E+03  0.00000000000E+00 0. -1.
         22    1    3    3    0    0 -0.10645142238E+02  0.14687176515E+03  0.24110029327E+02  0.14921772001E+03  0.00000000000E+00 0.  1.
         22    1    3    3    0    0  0.99815463493E+02  0.11997284129E+03  0.82866915742E+02  0.17670182547E+03  0.00000000000E+00 0.  1.
</event>
<event>
 7    1  0.6999029E-005  0.6619035E+02  0.7818608E-02  0.1383112E+00
          2   -1    0    0  502    0  0.00000000000E+00  0.00000000000E+00  0.33825621130E+03  0.33825621130E+03  0.00000000000E+00 0. -1.
          1   -1    0    0  501    0 -0.00000000000E+00 -0.00000000000E+00 -0.85221714756E+03  0.85221714756E+03  0.00000000000E+00 0. -1.
         25    2    1    2    0    0 -0.10225742604E+03  0.72405531989E+01 -0.18451748648E+02  0.16270784744E+03  0.12499747918E+03 0.  0.
          2    1    1    2  501    0  0.45974952510E+02 -0.40413876481E+02 -0.75637266452E+03  0.75884556090E+03  0.00000000000E+00 0. -1.
          1    1    1    2  502    0  0.56282473525E+02  0.33173323282E+02  0.26086347690E+03  0.26891995051E+03  0.00000000000E+00 0. -1.
         22    1    3    3    0    0 -0.51631356955E+02  0.61465114469E+02 -0.33551195984E+02  0.87002529099E+02  0.00000000000E+00 0.  1.
         22    1    3    3    0    0 -0.50626069081E+02 -0.54224561270E+02  0.15099447336E+02  0.75705318343E+02  0.00000000000E+00 0.  1.
</event>
<event>
 7    1  0.1709932E-004  0.1350871E+04  0.7818608E-02  0.1123409E+00
          2   -1    0    0  502    0  0.00000000000E+00  0.00000000000E+00  0.35940376893E+04  0.35940376893E+04  0.00000000000E+00 0. -1.
          1   -1    0    0  501    0 -0.00000000000E+00 -0.00000000000E+00 -0.13102628627E+04  0.13102628627E+04  0.00000000000E+00 0. -1.
         25    2    1    2    0    0 -0.99658179772E+03  0.90343393618E+03 -0.70677569478E+03  0.15246392629E+04  0.12499937052E+03 0.  0.
          2    1    1    2  501    0  0.10296920654E+04 -0.92720480759E+03  0.22805949464E+04  0.26685366429E+04  0.00000000000E+00 0. -1.
          1    1    1    2  502    0 -0.33110267631E+02  0.23770871403E+02  0.70995557492E+03  0.71112464626E+03  0.00000000000E+00 0. -1.
         22    1    3    3    0    0 -0.45068370198E+03  0.45321851437E+03 -0.39527348748E+03  0.75150778499E+03  0.00000000000E+00 0. -1.
         22    1    3    3    0    0 -0.54589809574E+03  0.45021542181E+03 -0.31150220731E+03  0.77313147791E+03  0.00000000000E+00 0. -1.
</event>
<event>
 7    1  0.6999029E-005  0.6580313E+03  0.7818608E-02  0.1106209E+00
          2   -1    0    0  502    0  0.00000000000E+00  0.00000000000E+00  0.12482027888E+04  0.12482027888E+04  0.00000000000E+00 0. -1.
          1   -1    0    0  501    0 -0.00000000000E+00 -0.00000000000E+00 -0.21710429423E+04  0.21710429423E+04  0.00000000000E+00 0. -1.
         25    2    1    2    0    0  0.67494156515E+03 -0.18480463313E+03  0.79335374068E+02  0.71527519200E+03  0.12500251962E+03 0.  0.
          2    1    1    2  501    0 -0.64730323281E+03  0.84577030373E+02 -0.17920676835E+04  0.19072654067E+04  0.00000000000E+00 0. -1.
          1    1    1    2  502    0 -0.27638332343E+02  0.10022760276E+03  0.78989215598E+03  0.79670513231E+03  0.00000000000E+00 0. -1.
         22    1    3    3    0    0  0.58838447818E+03 -0.15735955967E+03  0.25255249058E+02  0.60958687058E+03  0.00000000000E+00 0.  1.
         22    1    3    3    0    0  0.86557086977E+02 -0.27445073459E+02  0.54080125010E+02  0.10568832142E+03  0.00000000000E+00 0.  1.
</event>
<event>
 7    1  0.6999029E-005  0.2348966E+03  0.7818608E-02  0.1327930E+00
          2   -1    0    0  502    0  0.00000000000E+00  0.00000000000E+00  0.37557627859E+03  0.37557627859E+03  0.00000000000E+00 0. -1.
          1   -1    0    0  501    0 -0.00000000000E+00 -0.00000000000E+00 -0.22551185462E+03  0.22551185462E+03  0.00000000000E+00 0. -1.
         25    2    1    2    0    0  0.22116501459E+03  0.86970464156E+02  0.19511943827E+03  0.33192262688E+03  0.12499283873E+03 0.  0.
          2    1    1    2  501    0 -0.17347487110E+02  0.21359574153E+02 -0.25508412931E+02  0.37521271930E+02  0.00000000000E+00 0. -1.
          1    1    1    2  502    0 -0.20381752748E+03 -0.10833003831E+03 -0.19546601368E+02  0.23164423440E+03  0.00000000000E+00 0. -1.
         22    1    3    3    0    0  0.26943355539E+02  0.64892983410E+02  0.73609642154E+02  0.10176159944E+03  0.00000000000E+00 0. -1.
         22    1    3    3    0    0  0.19422165905E+03  0.22077480746E+02  0.12150979611E+03  0.23016102744E+03  0.00000000000E+00 0. -1.
</event>
<event>
 7    1  0.6999029E-005  0.3961973E+03  0.7818608E-02  0.1183914E+00
          2   -1    0    0  502    0  0.00000000000E+00  0.00000000000E+00  0.12045081687E+04  0.12045081687E+04  0.00000000000E+00 0. -1.
          1   -1    0    0  501    0 -0.00000000000E+00 -0.00000000000E+00 -0.44067367942E+04  0.44067367942E+04  0.00000000000E+00 0. -1.
         25    2    1    2    0    0 -0.32353934453E+03 -0.32979835089E+03  0.49406500055E+03  0.68787357573E+03  0.12500068685E+03 0.  0.
          2    1    1    2  501    0  0.26776048735E+03  0.29065553790E+03 -0.42988487228E+04  0.43169754066E+04  0.00000000000E+00 0. -1.
          1    1    1    2  502    0  0.55778857179E+02  0.39142812992E+02  0.60255509666E+03  0.60639598055E+03  0.00000000000E+00 0. -1.
         22    1    3    3    0    0 -0.10751100664E+03 -0.61462936986E+02  0.72663321609E+02  0.14358366021E+03  0.00000000000E+00 0. -1.
         22    1    3    3    0    0 -0.21602833789E+03 -0.26833541391E+03  0.42140167894E+03  0.54428991553E+03  0.00000000000E+00 0. -1.
</event>
<event>
 7    1  0.6999029E-005  0.2529452E+03  0.7818608E-02  0.1244715E+00
          2   -1    0    0  502    0  0.00000000000E+00  0.00000000000E+00  0.11916760882E+04  0.11916760882E+04  0.00000000000E+00 0. -1.
          1   -1    0    0  501    0 -0.00000000000E+00 -0.00000000000E+00 -0.28312343393E+04  0.28312343393E+04  0.00000000000E+00 0. -1.
         25    2    1    2    0    0 -0.68582718531E+02 -0.21677661663E+03 -0.67162991252E+03  0.72000430558E+03  0.12499507936E+03 0.  0.
          2    1    1    2  501    0  0.12245565732E+03  0.23209153175E+03 -0.21266764221E+04  0.21428052808E+04  0.00000000000E+00 0. -1.
          1    1    1    2  502    0 -0.53872938790E+02 -0.15314915121E+02  0.11587480836E+04  0.11601008410E+04  0.00000000000E+00 0. -1.
         22    1    3    3    0    0 -0.21714581872E+02 -0.23479926167E+02 -0.17822402465E+02  0.36612402657E+02  0.00000000000E+00 0.  1.
         22    1    3    3    0    0 -0.46868136659E+02 -0.19329669046E+03 -0.65380751005E+03  0.68339190292E+03  0.00000000000E+00 0.  1.
</event>
<event>
 7    1  0.6999029E-005  0.1066958E+03  0.7818608E-02  0.1372321E+00
          2   -1    0    0  502    0  0.00000000000E+00  0.00000000000E+00  0.72419238291E+03  0.72419238291E+03  0.00000000000E+00 0. -1.
          1   -1    0    0  501    0 -0.00000000000E+00 -0.00000000000E+00 -0.77926076012E+02  0.77926076012E+02  0.00000000000E+00 0. -1.
         25    2    1    2    0    0 -0.75425646557E+02  0.10609892417E+03  0.36106095811E+03  0.40365280208E+03  0.12499823712E+03 0.  0.
          2    1    1    2  501    0 -0.16762492019E+00 -0.41479344393E+02 -0.40465895520E+02  0.57948708438E+02  0.00000000000E+00 0. -1.
          1    1    1    2  502    0  0.75593271478E+02 -0.64619579782E+02  0.32567124431E+03  0.34051694841E+03  0.00000000000E+00 0. -1.
         22    1    3    3    0    0 -0.86772957917E+02  0.70860186728E+02  0.34600152433E+03  0.36368635818E+03  0.00000000000E+00 0.  1.
         22    1    3    3    0    0  0.11347311359E+02  0.35238737446E+02  0.15059433781E+02  0.39966443896E+02  0.00000000000E+00 0.  1.
</event>
<event>
 7    1  0.6999029E-005  0.8544901E+02  0.7818608E-02  0.1371988E+00
          2   -1    0    0  502    0  0.00000000000E+00  0.00000000000E+00  0.19588158659E+04  0.19588158659E+04  0.00000000000E+00 0. -1.
          1   -1    0    0  501    0 -0.00000000000E+00 -0.00000000000E+00 -0.11055591964E+03  0.11055591964E+03  0.00000000000E+00 0. -1.
         25    2    1    2    0    0  0.42093287494E+02 -0.11534354624E+03  0.13711770702E+04  0.13823278502E+04  0.12501099520E+03 0.  0.
          2    1    1    2  501    0 -0.17777771638E+02  0.48799068036E+02 -0.96240271297E+02  0.10935990136E+03  0.00000000000E+00 0. -1.
          1    1    1    2  502    0 -0.24315515856E+02  0.66544478207E+02  0.57332314730E+03  0.57768403399E+03  0.00000000000E+00 0. -1.
         22    1    3    3    0    0 -0.18272288021E+02 -0.12739814432E+02  0.39559567778E+02  0.45399766344E+02  0.00000000000E+00 0. -1.
         22    1    3    3    0    0  0.60365575515E+02 -0.10260373181E+03  0.13316175024E+04  0.13369280838E+04  0.00000000000E+00 0. -1.
</event>
<event>
 7    1  0.6999029E-005  0.3028368E+03  0.7818608E-02  0.1114756E+00
          2   -1    0    0  502    0  0.00000000000E+00  0.00000000000E+00  0.11888936026E+04  0.11888936026E+04  0.00000000000E+00 0. -1.
          1   -1    0    0  501    0 -0.00000000000E+00 -0.00000000000E+00 -0.92470764213E+03  0.92470764213E+03  0.00000000000E+00 0. -1.
         25    2    1    2    0    0  0.11366755188E+03 -0.46386752310E+03 -0.18979042738E+03  0.52890253817E+03  0.12499638884E+03 0.  0.
          2    1    1    2  501    0  0.17608506263E+02  0.20186393313E+03 -0.52502881969E+03  0.56277381646E+03  0.00000000000E+00 0. -1.
          1    1    1    2  502    0 -0.13127605815E+03  0.26200358996E+03  0.97900520755E+03  0.10219248901E+04  0.00000000000E+00 0. -1.
         22    1    3    3    0    0  0.14073185832E+03 -0.40269577491E+03 -0.16925644580E+03  0.45893037329E+03  0.00000000000E+00 0.  1.
         22    1    3    3    0    0 -0.27064306440E+02 -0.61171748184E+02 -0.20533981582E+02  0.69972164884E+02  0.00000000000E+00 0.  1.
</event>
<event>
 7    1  0.6999029E-005  0.8888618E+02  0.7818608E-02  0.1344714E+00
          2   -1    0    0  502    0  0.00000000000E+00  0.00000000000E+00  0.96128230268E+03  0.96128230268E+03  0.00000000000E+00 0. -1.
          1   -1    0    0  501    0 -0.00000000000E+00 -0.00000000000E+00 -0.19221517252E+03  0.19221517252E+03  0.00000000000E+00 0. -1.
         25    2    1    2    0    0 -0.62144883102E+02 -0.12779917636E+02 -0.89587042329E+02  0.16634797117E+03  0.12498198497E+03 0.  0.
          2    1    1    2  501    0  0.12171609469E+02 -0.61635449055E+02 -0.46125760653E+02  0.77940120946E+02  0.00000000000E+00 0. -1.
          1    1    1    2  502    0  0.49973273633E+02  0.74415366691E+02  0.90477993314E+03  0.90920938309E+03  0.00000000000E+00 0. -1.
         22    1    3    3    0    0 -0.30385418839E+02 -0.95789188893E+01 -0.11884872113E+03  0.12304490188E+03  0.00000000000E+00 0. -1.
         22    1    3    3    0    0 -0.31759464263E+02 -0.32009987466E+01  0.29261678801E+02  0.43303069285E+02  0.00000000000E+00 0. -1.
</event>
<event>
 7    1  0.6999029E-005  0.3610878E+03  0.7818608E-02  0.1139696E+00
          2   -1    0    0  502    0  0.00000000000E+00  0.00000000000E+00  0.22015720238E+04  0.22015720238E+04  0.00000000000E+00 0. -1.
          1   -1    0    0  501    0 -0.00000000000E+00 -0.00000000000E+00 -0.13654753027E+03  0.13654753027E+03  0.00000000000E+00 0. -1.
         25    2    1    2    0    0  0.18836639503E+03 -0.26578829490E+03  0.43600041029E+03  0.55843092000E+03  0.12499367245E+03 0.  0.
          2    1    1    2  501    0 -0.14415095033E+03  0.38261412414E+03  0.50975181250E+03  0.65346765400E+03  0.00000000000E+00 0. -1.
          1    1    1    2  502    0 -0.44215444702E+02 -0.11682582924E+03  0.11192722707E+04  0.11262209801E+04  0.00000000000E+00 0. -1.
         22    1    3    3    0    0  0.16274676313E+03 -0.27169016678E+03  0.42477244344E+03  0.52984307520E+03  0.00000000000E+00 0. -1.
         22    1    3    3    0    0  0.25619631904E+02  0.59018718794E+01  0.11227966857E+02  0.28587844800E+02  0.00000000000E+00 0. -1.
</event>
<event>
 7    1  0.6999029E-005  0.5677752E+03  0.7818608E-02  0.1122183E+00
          2   -1    0    0  502    0  0.00000000000E+00  0.00000000000E+00  0.22303868541E+03  0.22303868541E+03  0.00000000000E+00 0. -1.
          1   -1    0    0  501    0 -0.00000000000E+00 -0.00000000000E+00 -0.18993211092E+04  0.18993211092E+04  0.00000000000E+00 0. -1.
         25    2    1    2    0    0  0.49571858908E+03 -0.24731884717E+03 -0.10067886682E+04  0.11559219655E+04  0.12501454432E+03 0.  0.
          2    1    1    2  501    0 -0.48416917114E+03  0.34510573359E+03 -0.60770574344E+03  0.85019058113E+03  0.00000000000E+00 0. -1.
          1    1    1    2  502    0 -0.11549417946E+02 -0.97786886421E+02 -0.61788012227E+02  0.11624724799E+03  0.00000000000E+00 0. -1.
         22    1    3    3    0    0  0.15616607128E+02 -0.36189594522E+02 -0.40751345381E+02  0.56694244155E+02  0.00000000000E+00 0. -1.
         22    1    3    3    0    0  0.48010198196E+03 -0.21112925265E+03 -0.96603732279E+03  0.10992277214E+04  0.00000000000E+00 0. -1.
</event>
<event>
 7    1  0.6999029E-005  0.1259761E+03  0.7818608E-02  0.1270196E+00
          2   -1    0    0  502    0  0.00000000000E+00  0.00000000000E+00  0.22775512342E+04  0.22775512342E+04  0.00000000000E+00 0. -1.
          1   -1    0    0  501    0 -0.00000000000E+00 -0.00000000000E+00 -0.87383457241E+02  0.87383457241E+02  0.00000000000E+00 0. -1.
         25    2    1    2    0    0 -0.18116932563E+03 -0.61948897936E+02  0.20995885330E+03  0.31043299130E+03  0.12500372596E+03 0.  0.
          2    1    1    2  501    0  0.85767168884E+02 -0.17082307215E+02  0.19137665505E+02  0.89521297573E+02  0.00000000000E+00 0. -1.
          1    1    1    2  502    0  0.95402156751E+02  0.79031205151E+02  0.19610712582E+04  0.19649804026E+04  0.00000000000E+00 0. -1.
         22    1    3    3    0    0 -0.13698344313E+03 -0.75800074530E+02  0.87139334274E+02  0.17917415709E+03  0.00000000000E+00 0.  1.
         22    1    3    3    0    0 -0.44185882500E+02  0.13851176595E+02  0.12281951902E+03  0.13125883421E+03  0.00000000000E+00 0.  1.
</event>
<event>
 7    1  0.6999029E-005  0.1180349E+03  0.7818608E-02  0.1285710E+00
          2   -1    0    0  502    0  0.00000000000E+00  0.00000000000E+00  0.41823217553E+03  0.41823217553E+03  0.00000000000E+00 0. -1.
          1   -1    0    0  501    0 -0.00000000000E+00 -0.00000000000E+00 -0.29230526179E+03  0.29230526179E+03  0.00000000000E+00 0. -1.
         25    2    1    2    0    0 -0.73710139943E+02  0.15451468603E+03 -0.19052589780E+03  0.28501462085E+03  0.12500097374E+03 0.  0.
          2    1    1    2  501    0 -0.14911652891E+02 -0.79092934575E+02 -0.79508332292E+01  0.80878089991E+02  0.00000000000E+00 0. -1.
          1    1    1    2  502    0  0.88621792835E+02 -0.75421751451E+02  0.32440364477E+03  0.34464472649E+03  0.00000000000E+00 0. -1.
         22    1    3    3    0    0 -0.94776864262E+02  0.57349848709E+02 -0.81948118663E+02  0.13779387976E+03  0.00000000000E+00 0. -1.
         22    1    3    3    0    0  0.21066724319E+02  0.97164837316E+02 -0.10857777914E+03  0.14722074109E+03  0.00000000000E+00 0. -1.
</event>
<event>
 7    1  0.6999029E-005  0.1587965E+03  0.7818608E-02  0.1254508E+00
          2   -1    0    0  502    0  0.00000000000E+00  0.00000000000E+00  0.46641527064E+03  0.46641527064E+03  0.00000000000E+00 0. -1.
          1   -1    0    0  501    0 -0.00000000000E+00 -0.00000000000E+00 -0.12518269289E+04  0.12518269289E+04  0.00000000000E+00 0. -1.
         25    2    1    2    0    0 -0.14521137648E+03 -0.15637967545E+03  0.17767959882E+03  0.30452579131E+03  0.12499988394E+03 0.  0.
          2    1    1    2  501    0  0.13845998046E+03  0.75767227897E+02 -0.11756952431E+04  0.11862424473E+04  0.00000000000E+00 0. -1.
          1    1    1    2  502    0  0.67513960124E+01  0.80612447551E+02  0.21260398602E+03  0.22747396097E+03  0.00000000000E+00 0. -1.
         22    1    3    3    0    0 -0.50777283814E+02 -0.73555789769E+02  0.30732208388E+01  0.89432832038E+02  0.00000000000E+00 0. -1.
         22    1    3    3    0    0 -0.94434092662E+02 -0.82823885678E+02  0.17460637799E+03  0.21509295927E+03  0.00000000000E+00 0. -1.
</event>
<event>
 7    1  0.6999029E-005  0.1926424E+03  0.7818608E-02  0.1303051E+00
          2   -1    0    0  502    0  0.00000000000E+00  0.00000000000E+00  0.13550704288E+04  0.13550704288E+04  0.00000000000E+00 0. -1.
          1   -1    0    0  501    0 -0.00000000000E+00 -0.00000000000E+00 -0.18092420771E+03  0.18092420771E+03  0.00000000000E+00 0. -1.
         25    2    1    2    0    0 -0.68986362211E+02 -0.17406619244E+03  0.66985480866E+03  0.70667415176E+03  0.12499893819E+03 0.  0.
          2    1    1    2  501    0  0.10856603296E+03  0.16010466296E+03 -0.10396992098E+03  0.21961291193E+03  0.00000000000E+00 0. -1.
          1    1    1    2  502    0 -0.39579670754E+02  0.13961529480E+02  0.60826133341E+03  0.60970757282E+03  0.00000000000E+00 0. -1.
         22    1    3    3    0    0 -0.84452558223E+02 -0.10350626074E+03  0.28063774165E+03  0.31081075052E+03  0.00000000000E+00 0. -1.
         22    1    3    3    0    0  0.15466196012E+02 -0.70559931702E+02  0.38921706701E+03  0.39586340123E+03  0.00000000000E+00 0. -1.
</event>
<event>
 7    1  0.6999029E-005  0.1641121E+03  0.7818608E-02  0.1314512E+00
          2   -1    0    0  502    0  0.00000000000E+00  0.00000000000E+00  0.10577398226E+04  0.10577398226E+04  0.00000000000E+00 0. -1.
          1   -1    0    0  501    0 -0.00000000000E+00 -0.00000000000E+00 -0.70199303295E+03  0.70199303295E+03  0.00000000000E+00 0. -1.
         25    2    1    2    0    0 -0.22331974560E+02 -0.16728524582E+03  0.16042139123E+03  0.26427634805E+03  0.12499557919E+03 0.  0.
          2    1    1    2  501    0  0.44156595145E+02  0.45563046658E+01 -0.64131930045E+03  0.64285380137E+03  0.00000000000E+00 0. -1.
          1    1    1    2  502    0 -0.21824620585E+02  0.16272894115E+03  0.83664469890E+03  0.85260270616E+03  0.00000000000E+00 0. -1.
         22    1    3    3    0    0 -0.36602012299E+02 -0.16801700781E+03  0.17395104084E+03  0.24459841951E+03  0.00000000000E+00 0. -1.
         22    1    3    3    0    0  0.14270037739E+02  0.73176199091E+00 -0.13529649616E+02  0.19677928535E+02  0.00000000000E+00 0. -1.
</event>
<event>
 7    1  0.6999029E-005  0.8569255E+03  0.7818608E-02  0.1141808E+00
          2   -1    0    0  502    0  0.00000000000E+00  0.00000000000E+00  0.15816820562E+04  0.15816820562E+04  0.00000000000E+00 0. -1.
          1   -1    0    0  501    0 -0.00000000000E+00 -0.00000000000E+00 -0.16430847865E+04  0.16430847865E+04  0.00000000000E+00 0. -1.
         25    2    1    2    0    0  0.50843040564E+03  0.71512587487E+03  0.90240075623E+02  0.89088450862E+03  0.12500176866E+03 0.  0.
          2    1    1    2  501    0 -0.45718975698E+03 -0.71786216159E+03 -0.10962711485E+04  0.13878613000E+04  0.00000000000E+00 0. -1.
          1    1    1    2  502    0 -0.51240648654E+02  0.27362867216E+01  0.94462834259E+03  0.94602103411E+03  0.00000000000E+00 0. -1.
         22    1    3    3    0    0  0.21016963059E+03  0.38295885870E+03  0.77808483024E+01  0.43690880362E+03  0.00000000000E+00 0. -1.
         22    1    3    3    0    0  0.29826077505E+03  0.33216701618E+03  0.82459227320E+02  0.45397570501E+03  0.00000000000E+00 0. -1.
</event>
<event>
 7    1  0.6999029E-005  0.1492483E+03  0.7818608E-02  0.1249238E+00
          2   -1    0    0  502    0  0.00000000000E+00  0.00000000000E+00  0.14262345661E+04  0.14262345661E+04  0.00000000000E+00 0. -1.
          1   -1    0    0  501    0 -0.00000000000E+00 -0.00000000000E+00 -0.22763334581E+03  0.22763334581E+03  0.00000000000E+00 0. -1.
         25    2    1    2    0    0  0.57628796642E+02 -0.22135785258E+03  0.31354223468E+03  0.40774432422E+03  0.12500529550E+03 0.  0.
          2    1    1    2  501    0 -0.12650257889E+02  0.14258712758E+03 -0.14985728375E+03  0.20723977289E+03  0.00000000000E+00 0. -1.
          1    1    1    2  502    0 -0.44978538752E+02  0.78770724997E+02  0.10349162694E+04  0.10388838148E+04  0.00000000000E+00 0. -1.
         22    1    3    3    0    0  0.82710743192E+02 -0.77990524751E+02  0.15894653336E+03  0.19541645135E+03  0.00000000000E+00 0.  1.
         22    1    3    3    0    0 -0.25081946550E+02 -0.14336732783E+03  0.15459570132E+03  0.21232787287E+03  0.00000000000E+00 0.  1.
</event>
<event>
 7    1  0.6999029E-005  0.6183897E+02  0.7818608E-02  0.1405966E+00
          2   -1    0    0  502    0  0.00000000000E+00  0.00000000000E+00  0.10535888610E+04  0.10535888610E+04  0.00000000000E+00 0. -1.
          1   -1    0    0  501    0 -0.00000000000E+00 -0.00000000000E+00 -0.12214421936E+03  0.12214421936E+03  0.00000000000E+00 0. -1.
         25    2    1    2    0    0  0.15042072066E+02 -0.19513956845E+01  0.16720310159E+03  0.20931129662E+03  0.12499707930E+03 0.  0.
          2    1    1    2  501    0  0.37870128902E+02  0.39324301620E+02 -0.92405922589E+02  0.10732847661E+03  0.00000000000E+00 0. -1.
          1    1    1    2  502    0 -0.52912200968E+02 -0.37372905935E+02  0.85664746261E+03  0.85909330710E+03  0.00000000000E+00 0. -1.
         22    1    3    3    0    0  0.40134191308E+02  0.29158295227E+02  0.14820808605E+02  0.51774664270E+02  0.00000000000E+00 0.  1.
         22    1    3    3    0    0 -0.25092119243E+02 -0.31109690911E+02  0.15238229298E+03  0.15753663235E+03  0.00000000000E+00 0.  1.
</event>
<event>
 7    1  0.6999029E-005  0.5489538E+03  0.7818608E-02  0.1005920E+00
          2   -1    0    0  502    0  0.00000000000E+00  0.00000000000E+00  0.83344414304E+03  0.83344414304E+03  0.00000000000E+00 0. -1.
          1   -1    0    0  501    0 -0.00000000000E+00 -0.00000000000E+00 -0.10828338104E+04  0.10828338104E+04  0.00000000000E+00 0. -1.
         25    2    1    2    0    0  0.15395376256E+03 -0.72661018841E+03  0.18092724973E+03  0.77461111331E+03  0.12499432091E+03 0.  0.
          2    1    1    2  501    0  0.27425961987E+03  0.44196259442E+03 -0.97604065455E+02  0.52922190766E+03  0.00000000000E+00 0. -1.
          1    1    1    2  502    0 -0.42821338243E+03  0.28464759398E+03 -0.33271285162E+03  0.61244493245E+03  0.00000000000E+00 0. -1.
         22    1    3    3    0    0  0.16363325400E+03 -0.70072591885E+03  0.19213877042E+03  0.74478853526E+03  0.00000000000E+00 0.  1.
         22    1    3    3    0    0 -0.96794914399E+01 -0.25884269559E+02 -0.11211520687E+02  0.29822578045E+02  0.00000000000E+00 0.  1.
</event>
<event>
 7    1  0.9947686E-005  0.6859329E+03  0.7818608E-02  0.1183060E+00
          2   -1    0    0  502    0  0.00000000000E+00  0.00000000000E+00  0.21465317089E+04  0.21465317089E+04  0.00000000000E+00 0. -1.
          1   -1    0    0  501    0 -0.00000000000E+00 -0.00000000000E+00 -0.13201013653E+04  0.13201013653E+04  0.00000000000E+00 0. -1.
         25    2    1    2    0    0 -0.21808697232E+02 -0.68039711069E+03 -0.59504529879E+03  0.91275396991E+03  0.12500021790E+03 0.  0.
          2    1    1    2  501    0 -0.15782190428E+02  0.69327934371E+03 -0.35356644289E+03  0.77839228895E+03  0.00000000000E+00 0. -1.
          1    1    1    2  502    0  0.37590887660E+02 -0.12882233024E+02  0.17750420853E+04  0.17754868153E+04  0.00000000000E+00 0. -1.
         22    1    3    3    0    0  0.21399683108E+01 -0.34504887435E+03 -0.38182740864E+03  0.51464111296E+03  0.00000000000E+00 0.  1.
         22    1    3    3    0    0 -0.23948665543E+02 -0.33534823634E+03 -0.21321789015E+03  0.39811285696E+03  0.00000000000E+00 0.  1.
</event>
<event>
 7    1  0.6999029E-005  0.2725320E+03  0.7818608E-02  0.1119636E+00
          2   -1    0    0  502    0  0.00000000000E+00  0.00000000000E+00  0.12822863345E+04  0.12822863345E+04  0.00000000000E+00 0. -1.
          1   -1    0    0  501    0 -0.00000000000E+00 -0.00000000000E+00 -0.35385407750E+03  0.35385407750E+03  0.00000000000E+00 0. -1.
         25    2    1    2    0    0  0.18516539569E+03  0.20872972037E+03  0.41557428879E+03  0.51592739092E+03  0.12499905309E+03 0.  0.
          2    1    1    2  501    0 -0.28128197885E+03 -0.20033026876E+02 -0.21981736631E+03  0.35754796647E+03  0.00000000000E+00 0. -1.
          1    1    1    2  502    0  0.96116583161E+02 -0.18869669349E+03  0.73267533455E+03  0.76266505462E+03  0.00000000000E+00 0. -1.
         22    1    3    3    0    0  0.43295580440E+02  0.14112462483E+03  0.22187451189E+03  0.26649383866E+03  0.00000000000E+00 0.  1.
         22    1    3    3    0    0  0.14186981525E+03  0.67605095545E+02  0.19369977690E+03  0.24943355227E+03  0.00000000000E+00 0.  1.
</event>
<event>
 7    1  0.6999029E-005  0.3368191E+03  0.7818608E-02  0.1138090E+00
          2   -1    0    0  502    0  0.00000000000E+00  0.00000000000E+00  0.13238665589E+04  0.13238665589E+04  0.00000000000E+00 0. -1.
          1   -1    0    0  501    0 -0.00000000000E+00 -0.00000000000E+00 -0.68625863483E+03  0.68625863483E+03  0.00000000000E+00 0. -1.
         25    2    1    2    0    0  0.38207736265E+03  0.94886745202E+02  0.63694172757E+03  0.75914802383E+03  0.12499740914E+03 0.  0.
          2    1    1    2  501    0 -0.75094418986E+02 -0.11403213263E+03 -0.57893601714E+03  0.59481880517E+03  0.00000000000E+00 0. -1.
          1    1    1    2  502    0 -0.30698294367E+03  0.19145387426E+02  0.57960221364E+03  0.65615836474E+03  0.00000000000E+00 0. -1.
         22    1    3    3    0    0  0.12016660637E+03  0.88839002827E+02  0.19962892976E+03  0.24936738221E+03  0.00000000000E+00 0. -1.
         22    1    3    3    0    0  0.26191075629E+03  0.60477423750E+01  0.43731279781E+03  0.50978064162E+03  0.00000000000E+00 0. -1.
</event>
<event>
 7    1  0.6999029E-005  0.6942268E+03  0.7818608E-02  0.1151237E+00
          2   -1    0    0  502    0  0.00000000000E+00  0.00000000000E+00  0.36812910678E+03  0.36812910678E+03  0.00000000000E+00 0. -1.
          1   -1    0    0  501    0 -0.00000000000E+00 -0.00000000000E+00 -0.18849859984E+04  0.18849859984E+04  0.00000000000E+00 0. -1.
         25    2    1    2    0    0  0.43942680986E+03  0.57276961827E+03 -0.45011032715E+03  0.85987607160E+03  0.12500638009E+03 0.  0.
          2    1    1    2  501    0 -0.34872476132E+02 -0.44588146982E+02 -0.54450642181E+03  0.54744080578E+03  0.00000000000E+00 0. -1.
          1    1    1    2  502    0 -0.40455433373E+03 -0.52818147129E+03 -0.52224014266E+03  0.84579822781E+03  0.00000000000E+00 0. -1.
         22    1    3    3    0    0  0.87912397510E+02  0.18265268686E+03 -0.82424603963E+02  0.21882506481E+03  0.00000000000E+00 0.  1.
         22    1    3    3    0    0  0.35151441235E+03  0.39011693141E+03 -0.36768572319E+03  0.64105100679E+03  0.00000000000E+00 0.  1.
</event>
<event>
 7    1  0.6999029E-005  0.5835632E+03  0.7818608E-02  0.1085781E+00
          2   -1    0    0  502    0  0.00000000000E+00  0.00000000000E+00  0.14141621971E+04  0.14141621971E+04  0.00000000000E+00 0. -1.
          1   -1    0    0  501    0 -0.00000000000E+00 -0.00000000000E+00 -0.44881676234E+03  0.44881676234E+03  0.00000000000E+00 0. -1.
         25    2    1    2    0    0  0.51480593073E+03  0.14114381603E+03  0.51377775714E+03  0.75135776484E+03  0.12499673570E+03 0.  0.
          2    1    1    2  501    0  0.69430430074E+02  0.13647265938E+03 -0.15998625924E+03  0.22145196888E+03  0.00000000000E+00 0. -1.
          1    1    1    2  502    0 -0.58423636080E+03 -0.27761647541E+03  0.61155393682E+03  0.89016922568E+03  0.00000000000E+00 0. -1.
         22    1    3    3    0    0  0.21037299372E+02 -0.18812344369E+02  0.17269860496E+02  0.33086558405E+02  0.00000000000E+00 0.  1.
         22    1    3    3    0    0  0.49376863136E+03  0.15995616040E+03  0.49650789664E+03  0.71827120643E+03  0.00000000000E+00 0.  1.
</event>
<event>
 7    1  0.6999029E-005  0.1175471E+03  0.7818608E-02  0.1407475E+00
          2   -1    0    0  502    0  0.00000000000E+00  0.00000000000E+00  0.80655638385E+03  0.80655638385E+03  0.00000000000E+00 0. -1.
          1   -1    0    0  501    0 -0.00000000000E+00 -0.00000000000E+00 -0.20920172735E+04  0.20920172735E+04  0.00000000000E+00 0. -1.
         25    2    1    2    0    0  0.60733561104E+02 -0.12489219950E+03  0.42865520709E+03  0.46760540982E+03  0.12499162288E+03 0.  0.
          2    1    1    2  501    0 -0.66204108987E+02  0.97041251664E+02 -0.20703125725E+04  0.20736427215E+04  0.00000000000E+00 0. -1.
          1    1    1    2  502    0  0.54705478827E+01  0.27850947838E+02  0.35619647578E+03  0.35732552602E+03  0.00000000000E+00 0. -1.
         22    1    3    3    0    0  0.24948709456E+02 -0.40937002431E+02  0.32900262196E+03  0.33247706918E+03  0.00000000000E+00 0. -1.
         22    1    3    3    0    0  0.35784851648E+02 -0.83955197072E+02  0.99652585126E+02  0.13512834064E+03  0.00000000000E+00 0. -1.
</event>
<event>
 7    1  0.6999029E-005  0.7107394E+03  0.7818608E-02  0.1161227E+00
          2   -1    0    0  502    0  0.00000000000E+00  0.00000000000E+00  0.21323402425E+04  0.21323402425E+04  0.00000000000E+00 0. -1.
          1   -1    0    0  501    0 -0.00000000000E+00 -0.00000000000E+00 -0.58664326130E+03  0.58664326130E+03  0.00000000000E+00 0. -1.
         25    2    1    2    0    0  0.38579085336E+03  0.58531589280E+03  0.38340942372E+03  0.80873843762E+03  0.12500318945E+03 0.  0.
          2    1    1    2  501    0  0.46555894209E+02 -0.15858022364E+02 -0.28859583940E+03  0.29275670219E+03  0.00000000000E+00 0. -1.
          1    1    1    2  502    0 -0.43234674757E+03 -0.56945787044E+03  0.14508833969E+04  0.16174883640E+04  0.00000000000E+00 0. -1.
         22    1    3    3    0    0  0.19383924045E+03  0.33987321458E+03  0.27734929333E+03  0.47959366513E+03  0.00000000000E+00 0. -1.
         22    1    3    3    0    0  0.19195161292E+03  0.24544267822E+03  0.10606013040E+03  0.32914477248E+03  0.00000000000E+00 0. -1.
</event>
<event>
 7    1  0.6999029E-005  0.1027938E+03  0.7818608E-02  0.1362532E+00
          2   -1    0    0  502    0  0.00000000000E+00  0.00000000000E+00  0.82266421932E+03  0.82266421932E+03  0.00000000000E+00 0. -1.
          1   -1    0    0  501    0 -0.00000000000E+00 -0.00000000000E+00 -0.92710824975E+03  0.92710824975E+03  0.00000000000E+00 0. -1.
         25    2    1    2    0    0 -0.50645329833E+02 -0.47836653495E+02  0.18747763793E+03  0.23585139636E+03  0.12499888635E+03 0.  0.
          2    1    1    2  501    0  0.96223813853E+02  0.37649637141E+02 -0.89906552351E+03  0.90498360930E+03  0.00000000000E+00 0. -1.
          1    1    1    2  502    0 -0.45578484020E+02  0.10187016354E+02  0.60714385515E+03  0.60893746342E+03  0.00000000000E+00 0. -1.
         22    1    3    3    0    0 -0.56937242189E+02  0.24885287955E+01  0.19265496701E+02  0.60159801253E+02  0.00000000000E+00 0. -1.
         22    1    3    3    0    0  0.62919123566E+01 -0.50325182290E+02  0.16821214123E+03  0.17569159510E+03  0.00000000000E+00 0. -1.
</event>
<event>
 7    1  0.6999029E-005  0.9182339E+02  0.7818608E-02  0.1304726E+00
          2   -1    0    0  502    0  0.00000000000E+00  0.00000000000E+00  0.75599423711E+03  0.75599423711E+03  0.00000000000E+00 0. -1.
          1   -1    0    0  501    0 -0.00000000000E+00 -0.00000000000E+00 -0.50543133962E+03  0.50543133962E+03  0.00000000000E+00 0. -1.
         25    2    1    2    0    0 -0.25811425880E+02  0.16773049324E+03  0.36019359244E+03  0.41732971053E+03  0.12499966073E+03 0.  0.
          2    1    1    2  501    0 -0.12845482345E+02 -0.90113446237E+02 -0.46729137708E+03  0.47607422814E+03  0.00000000000E+00 0. -1.
          1    1    1    2  502    0  0.38656908225E+02 -0.77617047004E+02  0.35766068213E+03  0.36802163806E+03  0.00000000000E+00 0. -1.
         22    1    3    3    0    0 -0.57371557268E+02  0.87805211074E+02  0.10649749241E+03  0.14947563870E+03  0.00000000000E+00 0.  1.
         22    1    3    3    0    0  0.31560131389E+02  0.79925282167E+02  0.25369610003E+03  0.26785407183E+03  0.00000000000E+00 0.  1.
</event>
<event>
 7    1  0.6999029E-005  0.2709888E+03  0.7818608E-02  0.1207760E+00
          2   -1    0    0  502    0  0.00000000000E+00  0.00000000000E+00  0.72415644504E+03  0.72415644504E+03  0.00000000000E+00 0. -1.
          1   -1    0    0  501    0 -0.00000000000E+00 -0.00000000000E+00 -0.19671769962E+04  0.19671769962E+04  0.00000000000E+00 0. -1.
         25    2    1    2    0    0  0.32268337222E+03 -0.91892330471E+02  0.41326178184E+03  0.54679290207E+03  0.12501367253E+03 0.  0.
          2    1    1    2  501    0 -0.26689432206E+03  0.39177804490E+02 -0.18845271272E+04  0.19037357938E+04  0.00000000000E+00 0. -1.
          1    1    1    2  502    0 -0.55789050161E+02  0.52714525981E+02  0.22824479413E+03  0.24080474542E+03  0.00000000000E+00 0. -1.
         22    1    3    3    0    0  0.19526063118E+02 -0.19010026582E+02  0.10447265479E+03  0.10796843914E+03  0.00000000000E+00 0. -1.
         22    1    3    3    0    0  0.30315730910E+03 -0.72882303889E+02  0.30878912705E+03  0.43882446293E+03  0.00000000000E+00 0. -1.
</event>
<event>
 7    1  0.6999029E-005  0.7863613E+03  0.7818608E-02  0.1114296E+00
          2   -1    0    0  502    0  0.00000000000E+00  0.00000000000E+00  0.15430342318E+04  0.15430342318E+04  0.00000000000E+00 0. -1.
          1   -1    0    0  501    0 -0.00000000000E+00 -0.00000000000E+00 -0.85923504877E+03  0.85923504877E+03  0.00000000000E+00 0. -1.
         25    2    1    2    0    0 -0.29008247879E+03 -0.71185491853E+03 -0.15944429868E+03  0.79494323324E+03  0.12500796038E+03 0.  0.
          2    1    1    2  501    0  0.36761455452E+03  0.72407719769E+03  0.53629734069E+02  0.81382086314E+03  0.00000000000E+00 0. -1.
          1    1    1    2  502    0 -0.77532075738E+02 -0.12222279159E+02  0.78961374759E+03  0.79350518414E+03  0.00000000000E+00 0. -1.
         22    1    3    3    0    0 -0.61929897110E+02 -0.66008380450E+02 -0.42801075817E+02  0.10012167866E+03  0.00000000000E+00 0. -1.
         22    1    3    3    0    0 -0.22815258168E+03 -0.64584653808E+03 -0.11664322287E+03  0.69482155459E+03  0.00000000000E+00 0. -1.
</event>
<event>
 7    1  0.6999029E-005  0.2915489E+03  0.7818608E-02  0.1293721E+00
          2   -1    0    0  502    0  0.00000000000E+00  0.00000000000E+00  0.76054557417E+03  0.76054557417E+03  0.00000000000E+00 0. -1.
          1   -1    0    0  501    0 -0.00000000000E+00 -0.00000000000E+00 -0.15020556231E+04  0.15020556231E+04  0.00000000000E+00 0. -1.
         25    2    1    2    0    0  0.28135062538E+03 -0.37773851616E+02  0.37030499791E+03  0.48304851681E+03  0.12500015939E+03 0.  0.
          2    1    1    2  501    0  0.12914941240E+02 -0.27331302486E+02 -0.13774703212E+04  0.13778019747E+04  0.00000000000E+00 0. -1.
          1    1    1    2  502    0 -0.29426556662E+03  0.65105154102E+02  0.26565527433E+03  0.40175070575E+03  0.00000000000E+00 0. -1.
         22    1    3    3    0    0  0.15829754668E+03 -0.46306937635E+02  0.29655531052E+03  0.33933390334E+03  0.00000000000E+00 0.  1.
         22    1    3    3    0    0  0.12305307870E+03  0.85330860197E+01  0.73749687387E+02  0.14371461347E+03  0.00000000000E+00 0.  1.
</event>
<event>
 7    1  0.8130156E-005  0.2112870E+03  0.7818608E-02  0.1210638E+00
          2   -1    0    0  502    0  0.00000000000E+00  0.00000000000E+00  0.70889968374E+03  0.70889968374E+03  0.00000000000E+00 0. -1.
          1   -1    0    0  501    0 -0.00000000000E+00 -0.00000000000E+00 -0.29043447094E+04  0.29043447094E+04  0.00000000000E+00 0. -1.
         25    2    1    2    0    0  0.21612625324E+03 -0.28622559589E+02 -0.10745413047E+04  0.11035368822E+04  0.12499930630E+03 0.  0.
          2    1    1    2  501    0 -0.15069568561E+02  0.94262782117E+02 -0.17979053181E+04  0.18004377514E+04  0.00000000000E+00 0. -1.
          1    1    1    2  502    0 -0.20105668467E+03 -0.65640222528E+02  0.67700159712E+03  0.70926975952E+03  0.00000000000E+00 0. -1.
         22    1    3    3    0    0  0.49456035439E+02 -0.57250301325E+02 -0.22656822842E+03  0.23886535658E+03  0.00000000000E+00 0. -1.
         22    1    3    3    0    0  0.16667021780E+03  0.28627741736E+02 -0.84797307627E+03  0.86467152559E+03  0.00000000000E+00 0. -1.
</event>
<event>
 7    1  0.6999029E-005  0.5242832E+03  0.7818608E-02  0.1210135E+00
          2   -1    0    0  502    0  0.00000000000E+00  0.00000000000E+00  0.12027091640E+04  0.12027091640E+04  0.00000000000E+00 0. -1.
          1   -1    0    0  501    0 -0.00000000000E+00 -0.00000000000E+00 -0.20203566732E+04  0.20203566732E+04  0.00000000000E+00 0. -1.
         25    2    1    2    0    0 -0.34038066448E+03 -0.43630770848E+03 -0.64297248071E+02  0.57095025408E+03  0.12500657305E+03 0.  0.
          2    1    1    2  501    0  0.33414475764E+03  0.39813641974E+03 -0.16626458121E+04  0.17419978255E+04  0.00000000000E+00 0. -1.
          1    1    1    2  502    0  0.62359068336E+01  0.38171288730E+02  0.90929555087E+03  0.91011775757E+03  0.00000000000E+00 0. -1.
         22    1    3    3    0    0 -0.26857787405E+03 -0.38674681704E+03 -0.15782407617E+02  0.47112234006E+03  0.00000000000E+00 0. -1.
         22    1    3    3    0    0 -0.71802790428E+02 -0.49560891437E+02 -0.48514840454E+02  0.99827914020E+02  0.00000000000E+00 0. -1.
</event>
<event>
 7    1  0.6999029E-005  0.1429834E+03  0.7818608E-02  0.1284109E+00
          2   -1    0    0  502    0  0.00000000000E+00  0.00000000000E+00  0.74267746213E+03  0.74267746213E+03  0.00000000000E+00 0. -1.
          1   -1    0    0  501    0 -0.00000000000E+00 -0.00000000000E+00 -0.19861653776E+03  0.19861653776E+03  0.00000000000E+00 0. -1.
         25    2    1    2    0    0 -0.10574446641E+03  0.10785263152E+02  0.29210460684E+03  0.33503282913E+03  0.12499472463E+03 0.  0.
          2    1    1    2  501    0 -0.66037398669E+02  0.13753971827E+02 -0.15217249999E+03  0.16645293484E+03  0.00000000000E+00 0. -1.
          1    1    1    2  502    0  0.17178186508E+03 -0.24539234979E+02  0.40412881752E+03  0.43980823591E+03  0.00000000000E+00 0. -1.
         22    1    3    3    0    0  0.51486525016E+01  0.85192179844E+01 -0.94507910107E+01  0.13726002636E+02  0.00000000000E+00 0.  1.
         22    1    3    3    0    0 -0.11089311891E+03  0.22660451677E+01  0.30155539785E+03  0.32130682650E+03  0.00000000000E+00 0.  1.
</event>
<event>
 7    1  0.6999029E-005  0.6129948E+02  0.7818608E-02  0.1482396E+00
          2   -1    0    0  502    0  0.00000000000E+00  0.00000000000E+00  0.38529836136E+03  0.38529836136E+03  0.00000000000E+00 0. -1.
          1   -1    0    0  501    0 -0.00000000000E+00 -0.00000000000E+00 -0.81939223755E+03  0.81939223755E+03  0.00000000000E+00 0. -1.
         25    2    1    2    0    0 -0.67024062820E+02  0.37209237749E+02  0.42582821488E+02  0.15269445595E+03  0.12500219126E+03 0.  0.
          2    1    1    2  501    0  0.37788541733E+02 -0.48115719309E+02 -0.76226094373E+03  0.76471226136E+03  0.00000000000E+00 0. -1.
          1    1    1    2  502    0  0.29235521087E+02  0.10906481560E+02  0.28558424606E+03  0.28728388160E+03  0.00000000000E+00 0. -1.
         22    1    3    3    0    0  0.17387757293E+02  0.23930974319E+02 -0.28849793351E+02  0.41319925120E+02  0.00000000000E+00 0. -1.
         22    1    3    3    0    0 -0.84411820113E+02  0.13278263430E+02  0.71432614839E+02  0.11137453083E+03  0.00000000000E+00 0. -1.
</event>
<event>
 7    1  0.6999029E-005  0.1352117E+03  0.7818608E-02  0.1307970E+00
          2   -1    0    0  502    0  0.00000000000E+00  0.00000000000E+00  0.55947709198E+03  0.55947709198E+03  0.00000000000E+00 0. -1.
          1   -1    0    0  501    0 -0.00000000000E+00 -0.00000000000E+00 -0.19284982839E+04  0.19284982839E+04  0.00000000000E+00 0. -1.
         25    2    1    2    0    0  0.12940914355E+03 -0.69272096976E-01 -0.23136189650E+03  0.29308807811E+03  0.12500225255E+03 0.  0.
          2    1    1    2  501    0 -0.60600248591E+01  0.56845998626E+02 -0.16570519730E+04  0.16580378261E+04  0.00000000000E+00 0. -1.
          1    1    1    2  502    0 -0.12334911870E+03 -0.56776726529E+02  0.51939267757E+03  0.53684947171E+03  0.00000000000E+00 0. -1.
         22    1    3    3    0    0 -0.12917558574E+00  0.39165993342E+02 -0.25565165383E+02  0.46771459266E+02  0.00000000000E+00 0. -1.
         22    1    3    3    0    0  0.12953831914E+03 -0.39235265439E+02 -0.20579673112E+03  0.24631661885E+03  0.00000000000E+00 0. -1.
</event>
<event>
 7    1  0.6999029E-005  0.1339005E+04  0.7818608E-02  0.1110625E+00
          2   -1    0    0  502    0  0.00000000000E+00  0.00000000000E+00  0.34292509243E+04  0.34292509243E+04  0.00000000000E+00 0. -1.
          1   -1    0    0  501    0 -0.00000000000E+00 -0.00000000000E+00 -0.14092053584E+04  0.14092053584E+04  0.00000000000E+00 0. -1.
         25    2    1    2    0    0 -0.60690195422E+03  0.12397155615E+04  0.20725537909E+04  0.24932565021E+04  0.12499645479E+03 0.  0.
          2    1    1    2  501    0  0.58105761353E+03 -0.11989222521E+04 -0.82771652148E+03  0.15684888131E+04  0.00000000000E+00 0. -1.
          1    1    1    2  502    0  0.25844340694E+02 -0.40793309372E+02  0.77520829649E+03  0.77671096747E+03  0.00000000000E+00 0. -1.
         22    1    3    3    0    0 -0.24050580161E+03  0.61586746080E+03  0.93583419617E+03  0.11458278285E+04  0.00000000000E+00 0. -1.
         22    1    3    3    0    0 -0.36639615261E+03  0.62384810068E+03  0.11367195948E+04  0.13474286736E+04  0.00000000000E+00 0. -1.
</event>
<event>
 7    1  0.6999029E-005  0.5955490E+03  0.7818608E-02  0.1132731E+00
          2   -1    0    0  502    0  0.00000000000E+00  0.00000000000E+00  0.25801568752E+04  0.25801568752E+04  0.00000000000E+00 0. -1.
          1   -1    0    0  501    0 -0.00000000000E+00 -0.00000000000E+00 -0.56762366947E+03  0.56762366947E+03  0.00000000000E+00 0. -1.
         25    2    1    2    0    0  0.56757221495E+03  0.17656052376E+01 -0.93875053357E+02  0.58870925219E+03  0.12499888570E+03 0.  0.
          2    1    1    2  501    0 -0.64823243846E+03  0.15178456411E+02  0.24085540247E+03  0.69169863720E+03  0.00000000000E+00 0. -1.
          1    1    1    2  502    0  0.80660223510E+02 -0.16944061649E+02  0.18655528566E+04  0.18673726553E+04  0.00000000000E+00 0. -1.
         22    1    3    3    0    0  0.34095441151E+03  0.42282726778E+02 -0.10055378052E+02  0.34371332581E+03  0.00000000000E+00 0.  1.
         22    1    3    3    0    0  0.22661780344E+03 -0.40517121541E+02 -0.83819675305E+02  0.24499592638E+03  0.00000000000E+00 0.  1.
</event>
<event>
 7    1  0.6999029E-005  0.2362971E+03  0.7818608E-02  0.1253845E+00
          2   -1    0    0  502    0  0.00000000000E+00  0.00000000000E+00  0.20549124638E+03  0.20549124638E+03  0.00000000000E+00 0. -1.
          1   -1    0    0  501    0 -0.00000000000E+00 -0.00000000000E+00 -0.48532134952E+03  0.48532134952E+03  0.00000000000E+00 0. -1.
         25    2    1    2    0    0  0.24342391165E+03  0.16692815194E+02 -0.12914127374E+03  0.30304384681E+03  0.12499701463E+03 0.  0.
          2    1    1    2  501    0 -0.19297284017E+02  0.51205968022E+02 -0.14338162091E+03  0.15346897258E+03  0.00000000000E+00 0. -1.
          1    1    1    2  502    0 -0.22412662763E+03 -0.67898783216E+02 -0.73072084801E+01  0.23429977650E+03  0.00000000000E+00 0. -1.
         22    1    3    3    0    0  0.23155044066E+03  0.43464541398E+02 -0.13724677665E+03  0.27265628662E+03  0.00000000000E+00 0. -1.
         22    1    3    3    0    0  0.11873470984E+02 -0.26771726204E+02  0.81055029121E+01  0.30387560195E+02  0.00000000000E+00 0. -1.
</event>
<event>
 7    1  0.6999029E-005  0.7863904E+03  0.7818608E-02  0.1148546E+00
          2   -1    0    0  502    0  0.00000000000E+00  0.00000000000E+00  0.15015303553E+04  0.15015303553E+04  0.00000000000E+00 0. -1.
          1   -1    0    0  501    0 -0.00000000000E+00 -0.00000000000E+00 -0.17735537874E+04  0.17735537874E+04  0.00000000000E+00 0. -1.
         25    2    1    2    0    0  0.76902043985E+03  0.17043172506E+03  0.11372689897E+04  0.13890447581E+04  0.12500070121E+03 0.  0.
          2    1    1    2  501    0  0.30823490840E+01 -0.51498582078E+02 -0.10051688918E+04  0.10064919800E+04  0.00000000000E+00 0. -1.
          1    1    1    2  502    0 -0.77210278894E+03 -0.11893314298E+03 -0.40412352999E+03  0.87954740445E+03  0.00000000000E+00 0. -1.
         22    1    3    3    0    0  0.22925039414E+03  0.36451362774E+02  0.24388472349E+03  0.33669601039E+03  0.00000000000E+00 0. -1.
         22    1    3    3    0    0  0.53977004571E+03  0.13398036229E+03  0.89338426623E+03  0.10523487477E+04  0.00000000000E+00 0. -1.
</event>
<event>
 7    1  0.6999029E-005  0.2144335E+03  0.7818608E-02  0.1322268E+00
          2   -1    0    0  502    0  0.00000000000E+00  0.00000000000E+00  0.28797037102E+03  0.28797037102E+03  0.00000000000E+00 0. -1.
          1   -1    0    0  501    0 -0.00000000000E+00 -0.00000000000E+00 -0.15598734831E+04  0.15598734831E+04  0.00000000000E+00 0. -1.
         25    2    1    2    0    0 -0.17000679258E+03  0.79280450897E+02 -0.45422834399E+03  0.50708521037E+03  0.12499729066E+03 0.  0.
          2    1    1    2  501    0 -0.31685913134E+02  0.71580773334E+00 -0.10339303354E+04  0.10344159936E+04  0.00000000000E+00 0. -1.
          1    1    1    2  502    0  0.20169270571E+03 -0.79996258631E+02  0.21625556725E+03  0.30634265015E+03  0.00000000000E+00 0. -1.
         22    1    3    3    0    0  0.16656419900E+02  0.20793884480E+02 -0.31251802578E+02  0.41066983332E+02  0.00000000000E+00 0.  1.
         22    1    3    3    0    0 -0.18666321248E+03  0.58486566418E+02 -0.42297654141E+03  0.46601822704E+03  0.00000000000E+00 0.  1.
</event>
<event>
 7    1  0.6999029E-005  0.5236950E+03  0.7818608E-02  0.1205972E+00
          2   -1    0    0  502    0  0.00000000000E+00  0.00000000000E+00  0.12373881714E+04  0.12373881714E+04  0.00000000000E+00 0. -1.
          1   -1    0    0  501    0 -0.00000000000E+00 -0.00000000000E+00 -0.11562471076E+04  0.11562471076E+04  0.00000000000E+00 0. -1.
         25    2    1    2    0    0  0.44168837984E+03 -0.22741441582E+03  0.45114386769E+03  0.68261363687E+03  0.12499858586E+03 0.  0.
          2    1    1    2  501    0 -0.48057106344E+03  0.21613239678E+03 -0.97307718731E+03  0.11065897941E+04  0.00000000000E+00 0. -1.
          1    1    1    2  502    0  0.38882683593E+02  0.11282019040E+02  0.60307438339E+03  0.60443184805E+03  0.00000000000E+00 0. -1.
         22    1    3    3    0    0  0.18559171477E+03 -0.72937125118E+02  0.10570856561E+03  0.22569539130E+03  0.00000000000E+00 0. -1.
         22    1    3    3    0    0  0.25609666507E+03 -0.15447729070E+03  0.34543530208E+03  0.45691824556E+03  0.00000000000E+00 0. -1.
</event>
<event>
 7    1  0.6999029E-005  0.3469707E+03  0.7818608E-02  0.1157007E+00
          2   -1    0    0  502    0  0.00000000000E+00  0.00000000000E+00  0.14869204001E+04  0.14869204001E+04  0.00000000000E+00 0. -1.
          1   -1    0    0  501    0 -0.00000000000E+00 -0.00000000000E+00 -0.28921445981E+03  0.28921445981E+03  0.00000000000E+00 0. -1.
         25    2    1    2    0    0  0.37822704421E+03  0.15138427178E+03  0.10963555591E+03  0.44002031340E+03  0.12500010550E+03 0.  0.
          2    1    1    2  501    0 -0.29131715375E+03 -0.91001638096E+02  0.70734977414E+02  0.31328967305E+03  0.00000000000E+00 0. -1.
          1    1    1    2  502    0 -0.86909890458E+02 -0.60382633683E+02  0.10173354070E+04  0.10228248735E+04  0.00000000000E+00 0. -1.
         22    1    3    3    0    0  0.30919365574E+03  0.16978831605E+03  0.10664536096E+03  0.36851325896E+03  0.00000000000E+00 0. -1.
         22    1    3    3    0    0  0.69033388473E+02 -0.18404044267E+02  0.29901949462E+01  0.71507054444E+02  0.00000000000E+00 0. -1.
</event>
<event>
 7    1  0.6999029E-005  0.7241553E+02  0.7818608E-02  0.1394387E+00
          2   -1    0    0  502    0  0.00000000000E+00  0.00000000000E+00  0.11542979320E+04  0.11542979320E+04  0.00000000000E+00 0. -1.
          1   -1    0    0  501    0 -0.00000000000E+00 -0.00000000000E+00 -0.67019475193E+03  0.67019475193E+03  0.00000000000E+00 0. -1.
         25    2    1    2    0    0 -0.41748182596E+02  0.58928529110E+02  0.24406433844E+02  0.14641223264E+03  0.12500154223E+03 0.  0.
          2    1    1    2  501    0 -0.75180848184E+01 -0.72479172670E+02 -0.60639876760E+03  0.61076117870E+03  0.00000000000E+00 0. -1.
          1    1    1    2  502    0  0.49266267415E+02  0.13550643561E+02  0.10660955138E+04  0.10673192726E+04  0.00000000000E+00 0. -1.
         22    1    3    3    0    0  0.26610403689E+02  0.67143185942E+02 -0.30516167607E+01  0.72288542438E+02  0.00000000000E+00 0. -1.
         22    1    3    3    0    0 -0.68358586285E+02 -0.82146568328E+01  0.27458050604E+02  0.74123690199E+02  0.00000000000E+00 0. -1.
</event>
<event>
 7    1  0.6999029E-005  0.1664298E+03  0.7818608E-02  0.1263724E+00
          2   -1    0    0  502    0  0.00000000000E+00  0.00000000000E+00  0.24785281763E+04  0.24785281763E+04  0.00000000000E+00 0. -1.
          1   -1    0    0  501    0 -0.00000000000E+00 -0.00000000000E+00 -0.19108292051E+03  0.19108292051E+03  0.00000000000E+00 0. -1.
         25    2    1    2    0    0  0.73506744291E+02  0.21543457963E+03  0.54809102014E+03  0.60650123138E+03  0.12499871096E+03 0.  0.
          2    1    1    2  501    0 -0.36531938540E+02 -0.60287116947E+02 -0.15068226570E+03  0.16635583608E+03  0.00000000000E+00 0. -1.
          1    1    1    2  502    0 -0.36974805751E+02 -0.15514746268E+03  0.18900365013E+04  0.18967540293E+04  0.00000000000E+00 0. -1.
         22    1    3    3    0    0  0.40111351342E+02  0.12006915343E+03  0.44292237898E+03  0.46065795979E+03  0.00000000000E+00 0. -1.
         22    1    3    3    0    0  0.33395392949E+02  0.95365426195E+02  0.10516864116E+03  0.14584327159E+03  0.00000000000E+00 0. -1.
</event>
<event>
 7    1  0.6999029E-005  0.4787454E+02  0.7818608E-02  0.1459198E+00
          2   -1    0    0  502    0  0.00000000000E+00  0.00000000000E+00  0.78229175037E+02  0.78229175037E+02  0.00000000000E+00 0. -1.
          1   -1    0    0  501    0 -0.00000000000E+00 -0.00000000000E+00 -0.14065699728E+04  0.14065699728E+04  0.00000000000E+00 0. -1.
         25    2    1    2    0    0 -0.53804775426E+02 -0.51582007298E+02 -0.36604536130E+02  0.15007083648E+03  0.12500282621E+03 0.  0.
          2    1    1    2  501    0  0.47543279854E+02  0.48320071768E+01 -0.12863691258E+04  0.12872564777E+04  0.00000000000E+00 0. -1.
          1    1    1    2  502    0  0.62614955718E+01  0.46750000121E+02 -0.53671358422E+01  0.47471833599E+02  0.00000000000E+00 0. -1.
         22    1    3    3    0    0 -0.85814178621E+02 -0.36999271164E+02  0.73912299624E+01  0.93742464228E+02  0.00000000000E+00 0.  1.
         22    1    3    3    0    0  0.32009403195E+02 -0.14582736134E+02 -0.43995766093E+02  0.56328372249E+02  0.00000000000E+00 0.  1.
</event>
<event>
 7    1  0.6999029E-005  0.8300023E+02  0.7818608E-02  0.1484362E+00
          2   -1    0    0  502    0  0.00000000000E+00  0.00000000000E+00  0.80811374462E+03  0.80811374462E+03  0.00000000000E+00 0. -1.
          1   -1    0    0  501    0 -0.00000000000E+00 -0.00000000000E+00 -0.38257728794E+03  0.38257728794E+03  0.00000000000E+00 0. -1.
         25    2    1    2    0    0 -0.45652829974E+02  0.72070641472E+02 -0.11240710016E+03  0.18851684938E+03  0.12499955234E+03 0.  0.
          2    1    1    2  501    0 -0.15836137771E+02 -0.16303926787E+02 -0.22931474712E+03  0.23043839640E+03  0.00000000000E+00 0. -1.
          1    1    1    2  502    0  0.61488967745E+02 -0.55766714685E+02  0.76725830396E+03  0.77173578679E+03  0.00000000000E+00 0. -1.
         22    1    3    3    0    0 -0.19583637670E+02  0.85738343386E+02 -0.18188744952E+02  0.89807643516E+02  0.00000000000E+00 0.  1.
         22    1    3    3    0    0 -0.26069192305E+02 -0.13667701915E+02 -0.94218355210E+02  0.98709205860E+02  0.00000000000E+00 0.  1.
</event>
<event>
 7    1  0.6999029E-005  0.4044197E+03  0.7818608E-02  0.1084973E+00
          2   -1    0    0  502    0  0.00000000000E+00  0.00000000000E+00  0.12441895700E+04  0.12441895700E+04  0.00000000000E+00 0. -1.
          1   -1    0    0  501    0 -0.00000000000E+00 -0.00000000000E+00 -0.20039295726E+04  0.20039295726E+04  0.00000000000E+00 0. -1.
         25    2    1    2    0    0 -0.48466511152E+03  0.34866575103E+03 -0.38508387681E+02  0.61120855525E+03  0.12499970331E+03 0.  0.
          2    1    1    2  501    0  0.27264994057E+03 -0.27845779889E+03 -0.16429407048E+04  0.16885292107E+04  0.00000000000E+00 0. -1.
          1    1    1    2  502    0  0.21201517095E+03 -0.70207952142E+02  0.92170908990E+03  0.94838137670E+03  0.00000000000E+00 0. -1.
         22    1    3    3    0    0 -0.58185909310E+02  0.47342987109E+02  0.36911214802E+02  0.83602609102E+02  0.00000000000E+00 0.  1.
         22    1    3    3    0    0 -0.42647920221E+03  0.30132276393E+03 -0.75419602484E+02  0.52760594615E+03  0.00000000000E+00 0.  1.
</event>
<event>
 7    1  0.6999029E-005  0.8961747E+02  0.7818608E-02  0.1326721E+00
          2   -1    0    0  502    0  0.00000000000E+00  0.00000000000E+00  0.54192525164E+02  0.54192525164E+02  0.00000000000E+00 0. -1.
          1   -1    0    0  501    0 -0.00000000000E+00 -0.00000000000E+00 -0.62105280577E+03  0.62105280577E+03  0.00000000000E+00 0. -1.
         25    2    1    2    0    0  0.48227405654E+02  0.11468639514E+03 -0.19030951969E+03  0.25946379425E+03  0.12499958142E+03 0.  0.
          2    1    1    2  501    0 -0.62878632396E+02 -0.36884460687E+02 -0.28762938746E+03  0.29672352516E+03  0.00000000000E+00 0. -1.
          1    1    1    2  502    0  0.14651226741E+02 -0.77801934458E+02 -0.88921373458E+02  0.11905801152E+03  0.00000000000E+00 0. -1.
         22    1    3    3    0    0 -0.39020717613E+02  0.54387245385E+02 -0.99053642258E+02  0.11955004353E+03  0.00000000000E+00 0.  1.
         22    1    3    3    0    0  0.87248123267E+02  0.60299149759E+02 -0.91255877431E+02  0.13991375072E+03  0.00000000000E+00 0.  1.
</event>
<event>
 7    1  0.6999029E-005  0.2278570E+03  0.7818608E-02  0.1216038E+00
          2   -1    0    0  502    0  0.00000000000E+00  0.00000000000E+00  0.47176207313E+03  0.47176207313E+03  0.00000000000E+00 0. -1.
          1   -1    0    0  501    0 -0.00000000000E+00 -0.00000000000E+00 -0.92406079076E+03  0.92406079076E+03  0.00000000000E+00 0. -1.
         25    2    1    2    0    0  0.14290517505E+03  0.25279032463E+03 -0.29687699596E+03  0.43368738946E+03  0.12499585498E+03 0.  0.
          2    1    1    2  501    0 -0.86107608597E+02 -0.19146619833E+03 -0.53434292829E+03  0.57410468590E+03  0.00000000000E+00 0. -1.
          1    1    1    2  502    0 -0.56797566457E+02 -0.61324126297E+02  0.37892120662E+03  0.38803078853E+03  0.00000000000E+00 0. -1.
         22    1    3    3    0    0  0.11854931057E+03  0.84004071841E+02 -0.14628276102E+03  0.20617776139E+03  0.00000000000E+00 0. -1.
         22    1    3    3    0    0  0.24355864487E+02  0.16878625279E+03 -0.15059423494E+03  0.22750962807E+03  0.00000000000E+00 0. -1.
</event>
<event>
 7    1  0.6999029E-005  0.1565360E+03  0.7818608E-02  0.1309649E+00
          2   -1    0    0  502    0  0.00000000000E+00  0.00000000000E+00  0.51866269951E+03  0.51866269951E+03  0.00000000000E+00 0. -1.
          1   -1    0    0  501    0 -0.00000000000E+00 -0.00000000000E+00 -0.16900601550E+04  0.16900601550E+04  0.00000000000E+00 0. -1.
         25    2    1    2    0    0  0.16491381294E+03  0.10201135295E+03  0.37048186323E+03  0.43644652386E+03  0.12500350144E+03 0.  0.
          2    1    1    2  501    0 -0.11633373284E+03 -0.10426657322E+03 -0.16480813508E+04  0.16554688745E+04  0.00000000000E+00 0. -1.
          1    1    1    2  502    0 -0.48580080105E+02  0.22552202731E+01  0.10620203204E+03  0.11680745615E+03  0.00000000000E+00 0. -1.
         22    1    3    3    0    0  0.19299816394E+02  0.10893044025E+02 -0.57167086392E+01  0.22887159689E+02  0.00000000000E+00 0. -1.
         22    1    3    3    0    0  0.14561399655E+03  0.91118308922E+02  0.37619857187E+03  0.41355936417E+03  0.00000000000E+00 0. -1.
</event>
<event>
 7    1  0.6999029E-005  0.9415613E+03  0.7818608E-02  0.1043631E+00
          2   -1    0    0  502    0  0.00000000000E+00  0.00000000000E+00  0.42509761866E+04  0.42509761866E+04  0.00000000000E+00 0. -1.
          1   -1    0    0  501    0 -0.00000000000E+00 -0.00000000000E+00 -0.74505208806E+03  0.74505208806E+03  0.00000000000E+00 0. -1.
         25    2    1    2    0    0 -0.24567136491E+03 -0.96654262076E+03  0.27225234189E+04  0.29021230287E+04  0.12500099934E+03 0.  0.
          2    1    1    2  501    0  0.12954954194E+03  0.11053288300E+03 -0.51048966881E+03  0.53814524434E+03  0.00000000000E+00 0. -1.
          1    1    1    2  502    0  0.11612182297E+03  0.85600973776E+03  0.12938903484E+04  0.15557600016E+04  0.00000000000E+00 0. -1.
         22    1    3    3    0    0 -0.10137928429E+03 -0.29525670579E+03  0.70694811494E+03  0.77280652094E+03  0.00000000000E+00 0. -1.
         22    1    3    3    0    0 -0.14429208062E+03 -0.67128591497E+03  0.20155753040E+04  0.21293165078E+04  0.00000000000E+00 0. -1.
</event>
<event>
 7    1  0.6999029E-005  0.1490155E+03  0.7818608E-02  0.1289439E+00
          2   -1    0    0  502    0  0.00000000000E+00  0.00000000000E+00  0.29435651783E+04  0.29435651783E+04  0.00000000000E+00 0. -1.
          1   -1    0    0  501    0 -0.00000000000E+00 -0.00000000000E+00 -0.16879367682E+03  0.16879367682E+03  0.00000000000E+00 0. -1.
         25    2    1    2    0    0  0.82401023047E+02  0.72563683772E+02  0.25294192142E+03  0.30275308373E+03  0.12499758915E+03 0.  0.
          2    1    1    2  501    0 -0.78567861109E+01  0.61053262356E+02 -0.13500116220E+03  0.14837298854E+03  0.00000000000E+00 0. -1.
          1    1    1    2  502    0 -0.74544236936E+02 -0.13361694613E+03  0.26568307423E+04  0.26612327829E+04  0.00000000000E+00 0. -1.
         22    1    3    3    0    0  0.93895522342E+02  0.36869977820E+02  0.24424877304E+03  0.26425977278E+03  0.00000000000E+00 0.  1.
         22    1    3    3    0    0 -0.11494499295E+02  0.35693705952E+02  0.86931483827E+01  0.38493310944E+02  0.00000000000E+00 0.  1.
</event>
<event>
 7    1  0.6999029E-005  0.3602183E+03  0.7818608E-02  0.1246706E+00
          2   -1    0    0  502    0  0.00000000000E+00  0.00000000000E+00  0.48966612395E+03  0.48966612395E+03  0.00000000000E+00 0. -1.
          1   -1    0    0  501    0 -0.00000000000E+00 -0.00000000000E+00 -0.13551097989E+04  0.13551097989E+04  0.00000000000E+00 0. -1.
         25    2    1    2    0    0 -0.17038753388E+03 -0.29071921405E+03 -0.38517447593E+03  0.52681405167E+03  0.12499638001E+03 0.  0.
          2    1    1    2  501    0  0.20086182598E+03  0.31432670221E+03 -0.85940620200E+03  0.93687019853E+03  0.00000000000E+00 0. -1.
          1    1    1    2  502    0 -0.30474292100E+02 -0.23607488156E+02  0.37913700295E+03  0.38109167267E+03  0.00000000000E+00 0. -1.
         22    1    3    3    0    0 -0.14554848697E+03 -0.19016797605E+03 -0.18936371599E+03  0.30529794973E+03  0.00000000000E+00 0.  1.
         22    1    3    3    0    0 -0.24839046911E+02 -0.10055123800E+03 -0.19581075994E+03  0.22151610195E+03  0.00000000000E+00 0.  1.
</event>
<event>
 7    1  0.6999029E-005  0.2579958E+03  0.7818608E-02  0.1121424E+00
          2   -1    0    0  502    0  0.00000000000E+00  0.00000000000E+00  0.55811543360E+03  0.55811543360E+03  0.00000000000E+00 0. -1.
          1   -1    0    0  501    0 -0.00000000000E+00 -0.00000000000E+00 -0.10471015968E+04  0.10471015968E+04  0.00000000000E+00 0. -1.
         25    2    1    2    0    0  0.34142581103E+03  0.20820703028E+03  0.17336965283E+03  0.45343578038E+03  0.12500087405E+03 0.  0.
          2    1    1    2  501    0 -0.25223708137E+03 -0.84588550305E+01 -0.83550624174E+03  0.87279194396E+03  0.00000000000E+00 0. -1.
          1    1    1    2  502    0 -0.89188729658E+02 -0.19974817525E+03  0.17315042566E+03  0.27898930610E+03  0.00000000000E+00 0. -1.
         22    1    3    3    0    0  0.92362950331E+02  0.23929502917E+01  0.63735596395E+02  0.11224467494E+03  0.00000000000E+00 0. -1.
         22    1    3    3    0    0  0.24906286070E+03  0.20581407999E+03  0.10963405643E+03  0.34119110544E+03  0.00000000000E+00 0. -1.
</event>
<event>
 7    1  0.6999029E-005  0.3185870E+03  0.7818608E-02  0.1273075E+00
          2   -1    0    0  502    0  0.00000000000E+00  0.00000000000E+00  0.13154841531E+04  0.13154841531E+04  0.00000000000E+00 0. -1.
          1   -1    0    0  501    0 -0.00000000000E+00 -0.00000000000E+00 -0.64939640098E+03  0.64939640098E+03  0.00000000000E+00 0. -1.
         25    2    1    2    0    0 -0.21179207839E+03 -0.24506299621E+03  0.20942831643E+03  0.40545890936E+03  0.12499980351E+03 0.  0.
          2    1    1    2  501    0  0.18204519313E+03  0.26075777386E+03 -0.50520738633E+03  0.59696697746E+03  0.00000000000E+00 0. -1.
          1    1    1    2  502    0  0.29746885262E+02 -0.15694777651E+02  0.96186682198E+03  0.96245466722E+03  0.00000000000E+00 0. -1.
         22    1    3    3    0    0 -0.31584718245E+02 -0.11856160322E+03  0.10624882321E+03  0.16230607080E+03  0.00000000000E+00 0.  1.
         22    1    3    3    0    0 -0.18020736014E+03 -0.12650139299E+03  0.10317949322E+03  0.24315283856E+03  0.00000000000E+00 0.  1.
</event>
<event>
 7    1  0.6999029E-005  0.5474074E+03  0.7818608E-02  0.1190476E+00
          2   -1    0    0  502    0  0.00000000000E+00  0.00000000000E+00  0.96984422830E+03  0.96984422830E+03  0.00000000000E+00 0. -1.
          1   -1    0    0  501    0 -0.00000000000E+00 -0.00000000000E+00 -0.13856359336E+04  0.13856359336E+04  0.00000000000E+00 0. -1.
         25    2    1    2    0    0  0.54953666156E+03 -0.18316851535E+03  0.15440758763E+03  0.61237879719E+03  0.12499936288E+03 0.  0.
          2    1    1    2  501    0 -0.50553089262E+03  0.19605975392E+03 -0.10920438825E+04  0.12192459767E+04  0.00000000000E+00 0. -1.
          1    1    1    2  502    0 -0.44005768941E+02 -0.12891238571E+02  0.52184458961E+03  0.52385538791E+03  0.00000000000E+00 0. -1.
         22    1    3    3    0    0  0.24767990407E+03 -0.44865330224E+02  0.14662632185E+02  0.25213731481E+03  0.00000000000E+00 0. -1.
         22    1    3    3    0    0  0.30185675749E+03 -0.13830318513E+03  0.13974495545E+03  0.36024148238E+03  0.00000000000E+00 0. -1.
</event>
<event>
 7    1  0.6999029E-005  0.3537799E+02  0.7818608E-02  0.1552516E+00
          2   -1    0    0  502    0  0.00000000000E+00  0.00000000000E+00  0.94734981748E+03  0.94734981748E+03  0.00000000000E+00 0. -1.
          1   -1    0    0  501    0 -0.00000000000E+00 -0.00000000000E+00 -0.32569386631E+03  0.32569386631E+03  0.00000000000E+00 0. -1.
         25    2    1    2    0    0  0.67585875637E+02  0.11005353723E+01  0.90993566972E+02  0.16874078645E+03  0.12499824806E+03 0.  0.
          2    1    1    2  501    0 -0.34590971218E+02  0.60780257264E+01 -0.28539466416E+03  0.28754754740E+03  0.00000000000E+00 0. -1.
          1    1    1    2  502    0 -0.32994904418E+02 -0.71785610988E+01  0.81605704836E+03  0.81675534993E+03  0.00000000000E+00 0. -1.
         22    1    3    3    0    0  0.62328187025E+02  0.23699769488E+02  0.11651605255E+03  0.13424780249E+03  0.00000000000E+00 0.  1.
         22    1    3    3    0    0  0.52576886118E+01 -0.22599234116E+02 -0.25522485580E+02  0.34492983958E+02  0.00000000000E+00 0.  1.
</event>
<event>
 7    1  0.6999029E-005  0.2802246E+03  0.7818608E-02  0.1262081E+00
          2   -1    0    0  502    0  0.00000000000E+00  0.00000000000E+00  0.28889360538E+04  0.28889360538E+04  0.00000000000E+00 0. -1.
          1   -1    0    0  501    0 -0.00000000000E+00 -0.00000000000E+00 -0.33768889677E+03  0.33768889677E+03  0.00000000000E+00 0. -1.
         25    2    1    2    0    0  0.10688290246E+03  0.27112729047E+03 -0.10636920205E+03  0.33448142062E+03  0.12501780321E+03 0.  0.
          2    1    1    2  501    0 -0.12762870200E+03 -0.23398377154E+03  0.34580351016E+02  0.26876251896E+03  0.00000000000E+00 0. -1.
          1    1    1    2  502    0  0.20745799543E+02 -0.37143518931E+02  0.26230360081E+04  0.26233810110E+04  0.00000000000E+00 0. -1.
         22    1    3    3    0    0  0.87144911572E+02  0.22576262232E+03 -0.13521718034E+03  0.27721234300E+03  0.00000000000E+00 0. -1.
         22    1    3    3    0    0  0.19737990883E+02  0.45364668154E+02  0.28847978288E+02  0.57269077626E+02  0.00000000000E+00 0. -1.
</event>
<event>
 7    1  0.6999029E-005  0.4769742E+03  0.7818608E-02  0.1213512E+00
          2   -1    0    0  502    0  0.00000000000E+00  0.00000000000E+00  0.13108285110E+04  0.13108285110E+04  0.00000000000E+00 0. -1.
          1   -1    0    0  501    0 -0.00000000000E+00 -0.00000000000E+00 -0.10538092902E+04  0.10538092902E+04  0.00000000000E+00 0. -1.
         25    2    1    2    0    0 -0.36006694757E+03 -0.31903716861E+03  0.99703334099E+02  0.50694992949E+03  0.12499821798E+03 0.  0.
          2    1    1    2  501    0 -0.21919943370E+02  0.34663218317E+02 -0.79335323429E+03  0.79441259871E+03  0.00000000000E+00 0. -1.
          1    1    1    2  502    0  0.38198689094E+03  0.28437395029E+03  0.95066912098E+03  0.10632752729E+04  0.00000000000E+00 0. -1.
         22    1    3    3    0    0 -0.11389201549E+03 -0.87941458196E+02  0.88874773793E+02  0.16912662912E+03  0.00000000000E+00 0.  1.
         22    1    3    3    0    0 -0.24617493208E+03 -0.23109571041E+03  0.10828560307E+02  0.33782330037E+03  0.00000000000E+00 0.  1.
</event>
<event>
 7    1  0.6999029E-005  0.1257081E+04  0.7818608E-02  0.1022830E+00
          2   -1    0    0  502    0  0.00000000000E+00  0.00000000000E+00  0.21384990214E+04  0.21384990214E+04  0.00000000000E+00 0. -1.
          1   -1    0    0  501    0 -0.00000000000E+00 -0.00000000000E+00 -0.24104960821E+04  0.24104960821E+04  0.00000000000E+00 0. -1.
         25    2    1    2    0    0  0.19209995649E+03 -0.12603690658E+04 -0.54166462457E+03  0.13908474301E+04  0.12499373204E+03 0.  0.
          2    1    1    2  501    0 -0.35420653221E+03  0.11990056780E+04 -0.11674826655E+04  0.17105825492E+04  0.00000000000E+00 0. -1.
          1    1    1    2  502    0  0.16210657572E+03  0.61363387857E+02  0.14371502294E+04  0.14475651243E+04  0.00000000000E+00 0. -1.
         22    1    3    3    0    0  0.12675685268E+03 -0.80855585702E+03 -0.28200378602E+03  0.86565351553E+03  0.00000000000E+00 0. -1.
         22    1    3    3    0    0  0.65343103804E+02 -0.45181320881E+03 -0.25966083855E+03  0.52519391461E+03  0.00000000000E+00 0. -1.
</event>
<event>
 7    1  0.6999029E-005  0.1119973E+03  0.7818608E-02  0.1314933E+00
          2   -1    0    0  502    0  0.00000000000E+00  0.00000000000E+00  0.17669736458E+04  0.17669736458E+04  0.00000000000E+00 0. -1.
          1   -1    0    0  501    0 -0.00000000000E+00 -0.00000000000E+00 -0.21498142206E+03  0.21498142206E+03  0.00000000000E+00 0. -1.
         25    2    1    2    0    0 -0.12424714441E+02 -0.11449250530E+03  0.36825603129E+03  0.40558002905E+03  0.12497899057E+03 0.  0.
          2    1    1    2  501    0  0.71215699178E+02  0.87237868909E+02 -0.17933626084E+03  0.21176311301E+03  0.00000000000E+00 0. -1.
          1    1    1    2  502    0 -0.58790984737E+02  0.27254636394E+02  0.13630724533E+04  0.13646119258E+04  0.00000000000E+00 0. -1.
         22    1    3    3    0    0 -0.14869216279E+02 -0.45970072146E+02  0.22870989358E+02  0.53454871434E+02  0.00000000000E+00 0. -1.
         22    1    3    3    0    0  0.24445018378E+01 -0.68522433157E+02  0.34538504194E+03  0.35212515762E+03  0.00000000000E+00 0. -1.
</event>
<event>
 7    1  0.8615309E-005  0.5380361E+03  0.7818608E-02  0.1217539E+00
          2   -1    0    0  502    0  0.00000000000E+00  0.00000000000E+00  0.27695241944E+04  0.27695241944E+04  0.00000000000E+00 0. -1.
          1   -1    0    0  501    0 -0.00000000000E+00 -0.00000000000E+00 -0.10548797645E+04  0.10548797645E+04  0.00000000000E+00 0. -1.
         25    2    1    2    0    0  0.52248013678E+03  0.86135707134E+02 -0.42603987881E+02  0.54576448727E+03  0.12505567725E+03 0.  0.
          2    1    1    2  501    0 -0.52798486748E+03 -0.12054003192E+03 -0.66416294914E+03  0.85697744580E+03  0.00000000000E+00 0. -1.
          1    1    1    2  502    0  0.55047307053E+01  0.34404324788E+02  0.24214113669E+04  0.24216620258E+04  0.00000000000E+00 0. -1.
         22    1    3    3    0    0  0.23717386782E+03  0.90723758919E+02  0.16107056102E+02  0.25444386663E+03  0.00000000000E+00 0. -1.
         22    1    3    3    0    0  0.28530626896E+03 -0.45880517850E+01 -0.58711043983E+02  0.29132062065E+03  0.00000000000E+00 0. -1.
</event>
<event>
 7    1  0.6999029E-005  0.4231733E+03  0.7818608E-02  0.1272539E+00
          2   -1    0    0  502    0  0.00000000000E+00  0.00000000000E+00  0.90164016582E+03  0.90164016582E+03  0.00000000000E+00 0. -1.
          1   -1    0    0  501    0 -0.00000000000E+00 -0.00000000000E+00 -0.15671381118E+04  0.15671381118E+04  0.00000000000E+00 0. -1.
         25    2    1    2    0    0  0.16827020447E+03 -0.38934567735E+03  0.74978181925E+03  0.87046808389E+03  0.12504795245E+03 0.  0.
          2    1    1    2  501    0  0.18476029683E+02  0.17505305363E+02 -0.10328466718E+04  0.10331602232E+04  0.00000000000E+00 0. -1.
          1    1    1    2  502    0 -0.18674623416E+03  0.37184037199E+03 -0.38243309339E+03  0.56514997047E+03  0.00000000000E+00 0. -1.
         22    1    3    3    0    0 -0.15976262664E+02 -0.64776162601E+02  0.14809009665E+03  0.16242496402E+03  0.00000000000E+00 0. -1.
         22    1    3    3    0    0  0.18424646714E+03 -0.32456951475E+03  0.60169172260E+03  0.70804311987E+03  0.00000000000E+00 0. -1.
</event>
<event>
 7    1  0.6999029E-005  0.2071396E+03  0.7818608E-02  0.1159890E+00
          2   -1    0    0  502    0  0.00000000000E+00  0.00000000000E+00  0.10713362527E+04  0.10713362527E+04  0.00000000000E+00 0. -1.
          1   -1    0    0  501    0 -0.00000000000E+00 -0.00000000000E+00 -0.92901083478E+03  0.92901083478E+03  0.00000000000E+00 0. -1.
         25    2    1    2    0    0  0.31284771955E+03  0.18757511638E+03 -0.64976807842E+03  0.75556705670E+03  0.12499960610E+03 0.  0.
          2    1    1    2  501    0 -0.11796116785E+03 -0.12435089560E+03 -0.18162988737E+03  0.24973465587E+03  0.00000000000E+00 0. -1.
          1    1    1    2  502    0 -0.19488655171E+03 -0.63224220773E+02  0.97372338372E+03  0.99504537491E+03  0.00000000000E+00 0. -1.
         22    1    3    3    0    0  0.27642833267E+03  0.18222428214E+03 -0.48833935954E+03  0.58999461199E+03  0.00000000000E+00 0.  1.
         22    1    3    3    0    0  0.36419386882E+02  0.53508342410E+01 -0.16142871888E+03  0.16557244471E+03  0.00000000000E+00 0.  1.
</event>
<event>
 7    1  0.6999029E-005  0.9815474E+02  0.7818608E-02  0.1338126E+00
          2   -1    0    0  502    0  0.00000000000E+00  0.00000000000E+00  0.10868711159E+04  0.10868711159E+04  0.00000000000E+00 0. -1.
          1   -1    0    0  501    0 -0.00000000000E+00 -0.00000000000E+00 -0.66800624993E+03  0.66800624993E+03  0.00000000000E+00 0. -1.
         25    2    1    2    0    0  0.11735474121E+03 -0.10344254244E+03  0.63640313958E+02  0.21011520018E+03  0.12500325162E+03 0.  0.
          2    1    1    2  501    0 -0.45492001082E+02  0.39468325677E+02 -0.59079788085E+03  0.59385975357E+03  0.00000000000E+00 0. -1.
          1    1    1    2  502    0 -0.71862740127E+02  0.63974216762E+02  0.94602243284E+03  0.95090241206E+03  0.00000000000E+00 0. -1.
         22    1    3    3    0    0  0.12353944770E+02 -0.45076914407E+02  0.76133096106E+02  0.89335303696E+02  0.00000000000E+00 0.  1.
         22    1    3    3    0    0  0.10500079644E+03 -0.58365628032E+02 -0.12492782148E+02  0.12077989648E+03  0.00000000000E+00 0.  1.
</event>
<event>
 7    1  0.6999029E-005  0.1197629E+03  0.7818608E-02  0.1323182E+00
          2   -1    0    0  502    0  0.00000000000E+00  0.00000000000E+00  0.20107163070E+04  0.20107163070E+04  0.00000000000E+00 0. -1.
          1   -1    0    0  501    0 -0.00000000000E+00 -0.00000000000E+00 -0.25367849554E+03  0.25367849554E+03  0.00000000000E+00 0. -1.
         25    2    1    2    0    0 -0.16992068165E+03 -0.32921112470E+02  0.32380986301E+03  0.38785878286E+03  0.12499908142E+03 0.  0.
          2    1    1    2  501    0  0.11642310525E+03  0.15418848368E+02 -0.20558100290E+03  0.23676070002E+03  0.00000000000E+00 0. -1.
          1    1    1    2  502    0  0.53497576400E+02  0.17502264102E+02  0.16388089514E+04  0.16397753197E+04  0.00000000000E+00 0. -1.
         22    1    3    3    0    0 -0.15261550034E+02  0.34040136338E+02  0.10657085234E+03  0.11291143591E+03  0.00000000000E+00 0.  1.
         22    1    3    3    0    0 -0.15465913162E+03 -0.66961248808E+02  0.21723901067E+03  0.27494734695E+03  0.00000000000E+00 0.  1.
</event>
<event>
 7    1  0.6999029E-005  0.4937688E+03  0.7818608E-02  0.1172360E+00
          2   -1    0    0  502    0  0.00000000000E+00  0.00000000000E+00  0.47047523872E+03  0.47047523872E+03  0.00000000000E+00 0. -1.
          1   -1    0    0  501    0 -0.00000000000E+00 -0.00000000000E+00 -0.15521094367E+04  0.15521094367E+04  0.00000000000E+00 0. -1.
         25    2    1    2    0    0  0.40269200655E+03  0.36088802646E+03 -0.14735479098E+03  0.57422925334E+03  0.12499912477E+03 0.  0.
          2    1    1    2  501    0 -0.34453896577E+03 -0.33857725429E+03 -0.11374920948E+04  0.12358114427E+04  0.00000000000E+00 0. -1.
          1    1    1    2  502    0 -0.58153040784E+02 -0.22310772166E+02  0.20321268780E+03  0.21254397943E+03  0.00000000000E+00 0. -1.
         22    1    3    3    0    0  0.29747492985E+03  0.18665843790E+03 -0.10202675338E+03  0.36570775865E+03  0.00000000000E+00 0. -1.
         22    1    3    3    0    0  0.10521707670E+03  0.17422958856E+03 -0.45328037602E+02  0.20852149470E+03  0.00000000000E+00 0. -1.
</event>
<event>
 7    1  0.6999029E-005  0.3194433E+03  0.7818608E-02  0.1272634E+00
          2   -1    0    0  502    0  0.00000000000E+00  0.00000000000E+00  0.27456310619E+04  0.27456310619E+04  0.00000000000E+00 0. -1.
          1   -1    0    0  501    0 -0.00000000000E+00 -0.00000000000E+00 -0.44316869509E+03  0.44316869509E+03  0.00000000000E+00 0. -1.
         25    2    1    2    0    0 -0.22463106576E+03 -0.26145787093E+03  0.42970939030E+03  0.56488430341E+03  0.12499912859E+03 0.  0.
          2    1    1    2  501    0  0.21865379713E+03  0.22830641585E+03 -0.30890907821E+03  0.44199334963E+03  0.00000000000E+00 0. -1.
          1    1    1    2  502    0  0.59772686365E+01  0.33151455088E+02  0.21816620547E+04  0.21819221039E+04  0.00000000000E+00 0. -1.
         22    1    3    3    0    0  0.11821809852E+02  0.21270625432E+00  0.27599966224E+02  0.30025964892E+02  0.00000000000E+00 0.  1.
         22    1    3    3    0    0 -0.23645287562E+03 -0.26167057719E+03  0.40210942407E+03  0.53485833852E+03  0.00000000000E+00 0.  1.
</event>
<event>
 7    1  0.6999029E-005  0.4334648E+03  0.7818608E-02  0.1076001E+00
          2   -1    0    0  502    0  0.00000000000E+00  0.00000000000E+00  0.10628149480E+04  0.10628149480E+04  0.00000000000E+00 0. -1.
          1   -1    0    0  501    0 -0.00000000000E+00 -0.00000000000E+00 -0.53571382060E+03  0.53571382060E+03  0.00000000000E+00 0. -1.
         25    2    1    2    0    0  0.82914144889E+02 -0.50529041550E+03  0.47686784122E+03  0.71078916783E+03  0.12500057479E+03 0.  0.
          2    1    1    2  501    0 -0.19656581639E+03  0.12899125538E+03 -0.28616435327E+03  0.37036050170E+03  0.00000000000E+00 0. -1.
          1    1    1    2  502    0  0.11365167150E+03  0.37629916012E+03  0.33639763950E+03  0.51737909912E+03  0.00000000000E+00 0. -1.
         22    1    3    3    0    0  0.11496745801E+02 -0.14760347841E+03  0.21798410988E+03  0.26350718048E+03  0.00000000000E+00 0. -1.
         22    1    3    3    0    0  0.71417399088E+02 -0.35768693710E+03  0.25888373133E+03  0.44728198735E+03  0.00000000000E+00 0. -1.
</event>
<event>
 7    1  0.6999029E-005  0.2003024E+03  0.7818608E-02  0.1201839E+00
          2   -1    0    0  502    0  0.00000000000E+00  0.00000000000E+00  0.55700140552E+03  0.55700140552E+03  0.00000000000E+00 0. -1.
          1   -1    0    0  501    0 -0.00000000000E+00 -0.00000000000E+00 -0.10344504635E+04  0.10344504635E+04  0.00000000000E+00 0. -1.
         25    2    1    2    0    0 -0.22527403298E+03  0.18534555246E+03  0.45840356117E+02  0.32066716345E+03  0.12499891084E+03 0.  0.
          2    1    1    2  501    0  0.98659890472E+02 -0.50162185264E+02 -0.87036824473E+03  0.87737728501E+03  0.00000000000E+00 0. -1.
          1    1    1    2  502    0  0.12661414251E+03 -0.13518336720E+03  0.34707883066E+03  0.39340742055E+03  0.00000000000E+00 0. -1.
         22    1    3    3    0    0 -0.12115217539E+03  0.80463239310E+02 -0.38577347484E+02  0.15046725299E+03  0.00000000000E+00 0.  1.
         22    1    3    3    0    0 -0.10412185759E+03  0.10488231315E+03  0.84417703601E+02  0.17019991046E+03  0.00000000000E+00 0.  1.
</event>
<event>
 7    1  0.6999029E-005  0.4990664E+03  0.7818608E-02  0.1161840E+00
          2   -1    0    0  502    0  0.00000000000E+00  0.00000000000E+00  0.27553003159E+04  0.27553003159E+04  0.00000000000E+00 0. -1.
          1   -1    0    0  501    0 -0.00000000000E+00 -0.00000000000E+00 -0.32952837279E+03  0.32952837279E+03  0.00000000000E+00 0. -1.
         25    2    1    2    0    0  0.36480055974E+03 -0.42374528308E+03  0.31646033517E+03  0.65453174660E+03  0.12500060104E+03 0.  0.
          2    1    1    2  501    0 -0.47209368481E+02  0.51068445298E+02 -0.12495552468E+03  0.14300557235E+03  0.00000000000E+00 0. -1.
          1    1    1    2  502    0 -0.31759119126E+03  0.37267683778E+03  0.22342671326E+04  0.22872913697E+04  0.00000000000E+00 0. -1.
         22    1    3    3    0    0  0.36910474299E+03 -0.39384495981E+03  0.28302646768E+03  0.60947202157E+03  0.00000000000E+00 0. -1.
         22    1    3    3    0    0 -0.43041832517E+01 -0.29900323267E+02  0.33433867490E+02  0.45059725036E+02  0.00000000000E+00 0. -1.
</event>
<event>
 7    1  0.6999029E-005  0.1483883E+03  0.7818608E-02  0.1300710E+00
          2   -1    0    0  502    0  0.00000000000E+00  0.00000000000E+00  0.15180533323E+04  0.15180533323E+04  0.00000000000E+00 0. -1.
          1   -1    0    0  501    0 -0.00000000000E+00 -0.00000000000E+00 -0.38416814248E+03  0.38416814248E+03  0.00000000000E+00 0. -1.
         25    2    1    2    0    0  0.97905258784E+02  0.66701214569E+02 -0.15648577370E+01  0.17224631842E+03  0.12502741183E+03 0.  0.
          2    1    1    2  501    0 -0.14971346022E+03 -0.46323951685E+02 -0.27602045032E+03  0.31740717960E+03  0.00000000000E+00 0. -1.
          1    1    1    2  502    0  0.51808201439E+02 -0.20377262884E+02  0.14114704979E+04  0.14125679767E+04  0.00000000000E+00 0. -1.
         22    1    3    3    0    0  0.27145283386E+02  0.86160844033E+02 -0.27471957306E+02  0.94420685725E+02  0.00000000000E+00 0. -1.
         22    1    3    3    0    0  0.70759975397E+02 -0.19459629464E+02  0.25907099569E+02  0.77825632700E+02  0.00000000000E+00 0. -1.
</event>
<event>
 7    1  0.6999029E-005  0.1244867E+04  0.7818608E-02  0.1026360E+00
          2   -1    0    0  502    0  0.00000000000E+00  0.00000000000E+00  0.22499450369E+04  0.22499450369E+04  0.00000000000E+00 0. -1.
          1   -1    0    0  501    0 -0.00000000000E+00 -0.00000000000E+00 -0.13836231353E+04  0.13836231353E+04  0.00000000000E+00 0. -1.
         25    2    1    2    0    0  0.11536375076E+04  0.26491744851E+03  0.71910569695E+03  0.13906110050E+04  0.12500084178E+03 0.  0.
          2    1    1    2  501    0 -0.11961473904E+04 -0.42539046747E+03 -0.65165633642E+03  0.14270184337E+04  0.00000000000E+00 0. -1.
          1    1    1    2  502    0  0.42509882807E+02  0.16047301895E+03  0.79887254105E+03  0.81593873348E+03  0.00000000000E+00 0. -1.
         22    1    3    3    0    0  0.80465222783E+03  0.17128725558E+03  0.56372279962E+03  0.99729029198E+03  0.00000000000E+00 0.  1.
         22    1    3    3    0    0  0.34898527978E+03  0.93630192932E+02  0.15538289733E+03  0.39332071305E+03  0.00000000000E+00 0.  1.
</event>
<event>
 7    1  0.6999029E-005  0.1587402E+04  0.7818608E-02  0.1086636E+00
          2   -1    0    0  502    0  0.00000000000E+00  0.00000000000E+00  0.20826974272E+04  0.20826974272E+04  0.00000000000E+00 0. -1.
          1   -1    0    0  501    0 -0.00000000000E+00 -0.00000000000E+00 -0.15438903294E+04  0.15438903294E+04  0.00000000000E+00 0. -1.
         25    2    1    2    0    0  0.15428517298E+04  0.49003557136E+03  0.21042472927E+03  0.16372019411E+04  0.12500123229E+03 0.  0.
          2    1    1    2  501    0 -0.55234828175E+02 -0.68068461275E+01 -0.29898838896E+03  0.30412378422E+03  0.00000000000E+00 0. -1.
          1    1    1    2  502    0 -0.14876169016E+04 -0.48322872524E+03  0.62737075741E+03  0.16852620313E+04  0.00000000000E+00 0. -1.
         22    1    3    3    0    0  0.14090718225E+04  0.42552321146E+03  0.16114006177E+03  0.14807158823E+04  0.00000000000E+00 0.  1.
         22    1    3    3    0    0  0.13377990724E+03  0.64512359899E+02  0.49284667490E+02  0.15648605884E+03  0.00000000000E+00 0.  1.
</event>
<event>
 7    1  0.6999029E-005  0.1710278E+03  0.7818608E-02  0.1181110E+00
          2   -1    0    0  502    0  0.00000000000E+00  0.00000000000E+00  0.11463825529E+04  0.11463825529E+04  0.00000000000E+00 0. -1.
          1   -1    0    0  501    0 -0.00000000000E+00 -0.00000000000E+00 -0.81540235288E+03  0.81540235288E+03  0.00000000000E+00 0. -1.
         25    2    1    2    0    0  0.80990999062E+02 -0.66476747726E+02  0.80327524942E+02  0.18181402971E+03  0.12500052088E+03 0.  0.
          2    1    1    2  501    0  0.61468694349E+02  0.16111159742E+03 -0.74757132875E+03  0.76720156333E+03  0.00000000000E+00 0. -1.
          1    1    1    2  502    0 -0.14245969341E+03 -0.94634849697E+02  0.99822400381E+03  0.10127693127E+04  0.00000000000E+00 0. -1.
         22    1    3    3    0    0 -0.19585979645E+02 -0.47988797209E+02  0.91456399843E-01  0.51831878420E+02  0.00000000000E+00 0. -1.
         22    1    3    3    0    0  0.10057697871E+03 -0.18487950517E+02  0.80236068542E+02  0.12998215129E+03  0.00000000000E+00 0. -1.
</event>
<event>
 7    1  0.6999029E-005  0.8578147E+03  0.7818608E-02  0.1189907E+00
          2   -1    0    0  502    0  0.00000000000E+00  0.00000000000E+00  0.12723216125E+04  0.12723216125E+04  0.00000000000E+00 0. -1.
          1   -1    0    0  501    0 -0.00000000000E+00 -0.00000000000E+00 -0.98873480614E+03  0.98873480614E+03  0.00000000000E+00 0. -1.
         25    2    1    2    0    0 -0.63684039731E+03 -0.56915077523E+03 -0.37682809886E+03  0.94187186689E+03  0.12499960377E+03 0.  0.
          2    1    1    2  501    0  0.66326241465E+03  0.55615208647E+03  0.24067550679E+03  0.89841353148E+03  0.00000000000E+00 0. -1.
          1    1    1    2  502    0 -0.26422017340E+02  0.12998688762E+02  0.41973939840E+03  0.42077102025E+03  0.00000000000E+00 0. -1.
         22    1    3    3    0    0 -0.58613220732E+03 -0.52105761416E+03 -0.38091519061E+03  0.87186488871E+03  0.00000000000E+00 0.  1.
         22    1    3    3    0    0 -0.50708189992E+02 -0.48093161071E+02  0.40870917457E+01  0.70006978174E+02  0.00000000000E+00 0.  1.
</event>
<event>
 7    1  0.6999029E-005  0.1403534E+03  0.7818608E-02  0.1418555E+00
          2   -1    0    0  502    0  0.00000000000E+00  0.00000000000E+00  0.38506309669E+03  0.38506309669E+03  0.00000000000E+00 0. -1.
          1   -1    0    0  501    0 -0.00000000000E+00 -0.00000000000E+00 -0.16008140281E+04  0.16008140281E+04  0.00000000000E+00 0. -1.
         25    2    1    2    0    0 -0.10650457641E+03  0.91327302639E+02 -0.15414719286E+04  0.15528827457E+04  0.12500085697E+03 0.  0.
          2    1    1    2  501    0  0.12134971264E+03 -0.75348746417E+02  0.42631383093E+02  0.14906582830E+03  0.00000000000E+00 0. -1.
          1    1    1    2  502    0 -0.14845136229E+02 -0.15978556222E+02  0.28308961410E+03  0.28392855077E+03  0.00000000000E+00 0. -1.
         22    1    3    3    0    0 -0.28763514923E+02 -0.11254784363E+02 -0.80025175919E+02  0.85779011085E+02  0.00000000000E+00 0.  1.
         22    1    3    3    0    0 -0.77741061485E+02  0.10258208700E+03 -0.14614467527E+04  0.14671037346E+04  0.00000000000E+00 0.  1.
</event>
<event>
 7    1  0.6999029E-005  0.1385094E+03  0.7818608E-02  0.1335926E+00
          2   -1    0    0  502    0  0.00000000000E+00  0.00000000000E+00  0.13593775867E+04  0.13593775867E+04  0.00000000000E+00 0. -1.
          1   -1    0    0  501    0 -0.00000000000E+00 -0.00000000000E+00 -0.76795426039E+03  0.76795426039E+03  0.00000000000E+00 0. -1.
         25    2    1    2    0    0 -0.16779715198E+03  0.65888778930E+02  0.16897202863E+03  0.27690056007E+03  0.12500063322E+03 0.  0.
          2    1    1    2  501    0  0.12554239279E+03 -0.55535230881E+02 -0.70696883132E+03  0.72017357818E+03  0.00000000000E+00 0. -1.
          1    1    1    2  502    0  0.42254759191E+02 -0.10353548049E+02  0.11294201290E+04  0.11302577089E+04  0.00000000000E+00 0. -1.
         22    1    3    3    0    0 -0.18210708528E+03  0.58126768080E+02  0.17536379302E+03  0.25941120172E+03  0.00000000000E+00 0. -1.
         22    1    3    3    0    0  0.14309933298E+02  0.77620108492E+01 -0.63917643890E+01  0.17489358348E+02  0.00000000000E+00 0. -1.
</event>
<event>
 7    1  0.6999029E-005  0.1501922E+03  0.7818608E-02  0.1376247E+00
          2   -1    0    0  502    0  0.00000000000E+00  0.00000000000E+00  0.18517418414E+04  0.18517418414E+04  0.00000000000E+00 0. -1.
          1   -1    0    0  501    0 -0.00000000000E+00 -0.00000000000E+00 -0.14834518778E+04  0.14834518778E+04  0.00000000000E+00 0. -1.
         25    2    1    2    0    0  0.10556877897E+03 -0.96707603216E+02  0.10922685299E+03  0.21920780480E+03  0.12499771462E+03 0.  0.
          2    1    1    2  501    0  0.22634967797E+02  0.17368625832E+02 -0.14249508294E+04  0.14252364285E+04  0.00000000000E+00 0. -1.
          1    1    1    2  502    0 -0.12820374676E+03  0.79338977384E+02  0.16840139400E+04  0.16907494859E+04  0.00000000000E+00 0. -1.
         22    1    3    3    0    0  0.69508815672E+02 -0.11794087280E+03  0.11255437681E+03  0.17722870161E+03  0.00000000000E+00 0.  1.
         22    1    3    3    0    0  0.36059963296E+02  0.21233269585E+02 -0.33275238275E+01  0.41979103195E+02  0.00000000000E+00 0.  1.
</event>
<event>
 7    1  0.6999029E-005  0.3547353E+03  0.7818608E-02  0.1106235E+00
          2   -1    0    0  502    0  0.00000000000E+00  0.00000000000E+00  0.17839889221E+04  0.17839889221E+04  0.00000000000E+00 0. -1.
          1   -1    0    0  501    0 -0.00000000000E+00 -0.00000000000E+00 -0.11356958655E+04  0.11356958655E+04  0.00000000000E+00 0. -1.
         25    2    1    2    0    0 -0.27524044450E+03 -0.43277044463E+03  0.49837949317E+02  0.53024067734E+03  0.12499517866E+03 0.  0.
          2    1    1    2  501    0  0.33693155753E+02  0.18982857139E+03 -0.86510242978E+03  0.88632518258E+03  0.00000000000E+00 0. -1.
          1    1    1    2  502    0  0.24154728874E+03  0.24294187324E+03  0.14635575371E+04  0.15031189277E+04  0.00000000000E+00 0. -1.
         22    1    3    3    0    0 -0.12960068622E+03 -0.25959207723E+03  0.82430536472E+02  0.30162754810E+03  0.00000000000E+00 0.  1.
         22    1    3    3    0    0 -0.14563975827E+03 -0.17317836740E+03 -0.32592587155E+02  0.22861312924E+03  0.00000000000E+00 0.  1.
</event>
<event>
 7    1  0.6999029E-005  0.1415376E+03  0.7818608E-02  0.1244107E+00
          2   -1    0    0  502    0  0.00000000000E+00  0.00000000000E+00  0.22255871958E+04  0.22255871958E+04  0.00000000000E+00 0. -1.
          1   -1    0    0  501    0 -0.00000000000E+00 -0.00000000000E+00 -0.39919829072E+03  0.39919829072E+03  0.00000000000E+00 0. -1.
         25    2    1    2    0    0  0.19284756576E+02  0.22346478241E+03  0.75747049186E+02  0.26771251806E+03  0.12499586413E+03 0.  0.
          2    1    1    2  501    0 -0.50339841732E+02 -0.87223291135E+02 -0.29240061739E+03  0.30925737377E+03  0.00000000000E+00 0. -1.
          1    1    1    2  502    0  0.31055085156E+02 -0.13624149127E+03  0.20430424732E+04  0.20478155947E+04  0.00000000000E+00 0. -1.
         22    1    3    3    0    0 -0.17620468453E+01  0.16599388900E+02 -0.30077564997E+02  0.34399192390E+02  0.00000000000E+00 0.  1.
         22    1    3    3    0    0  0.21046803421E+02  0.20686539351E+03  0.10582461418E+03  0.23331332567E+03  0.00000000000E+00 0.  1.
</event>
<event>
 7    1  0.6999029E-005  0.4421057E+03  0.7818608E-02  0.1126825E+00
          2   -1    0    0  502    0  0.00000000000E+00  0.00000000000E+00  0.82842456043E+03  0.82842456043E+03  0.00000000000E+00 0. -1.
          1   -1    0    0  501    0 -0.00000000000E+00 -0.00000000000E+00 -0.65342631341E+03  0.65342631341E+03  0.00000000000E+00 0. -1.
         25    2    1    2    0    0 -0.34099890094E+03  0.39706684517E+03 -0.41045569662E+02  0.53967863915E+03  0.12500385910E+03 0.  0.
          2    1    1    2  501    0  0.27198808560E+02 -0.11624175079E+03 -0.27230993121E+03  0.29732914161E+03  0.00000000000E+00 0. -1.
          1    1    1    2  502    0  0.31380009238E+03 -0.28082509437E+03  0.48835374789E+03  0.64484309308E+03  0.00000000000E+00 0. -1.
         22    1    3    3    0    0 -0.15713251053E+03  0.27608419097E+03 -0.33784707643E+02  0.31945972021E+03  0.00000000000E+00 0. -1.
         22    1    3    3    0    0 -0.18386639041E+03  0.12098265420E+03 -0.72608620190E+01  0.22021891894E+03  0.00000000000E+00 0. -1.
</event>
<event>
 7    1  0.6999029E-005  0.3056785E+03  0.7818608E-02  0.1112689E+00
          2   -1    0    0  502    0  0.00000000000E+00  0.00000000000E+00  0.18730933814E+04  0.18730933814E+04  0.00000000000E+00 0. -1.
          1   -1    0    0  501    0 -0.00000000000E+00 -0.00000000000E+00 -0.64475718184E+03  0.64475718184E+03  0.00000000000E+00 0. -1.
         25    2    1    2    0    0  0.17943749118E+03 -0.44119413305E+03  0.60590548533E+03  0.78076654113E+03  0.12499943323E+03 0.  0.
          2    1    1    2  501    0 -0.10585633580E+03  0.17679531717E+03 -0.52147704223E+03  0.56071423522E+03  0.00000000000E+00 0. -1.
          1    1    1    2  502    0 -0.73581155376E+02  0.26439881588E+03  0.11439077565E+04  0.11763697869E+04  0.00000000000E+00 0. -1.
         22    1    3    3    0    0  0.66302976701E+02 -0.13450143434E+03  0.28841558468E+03  0.32506963876E+03  0.00000000000E+00 0. -1.
         22    1    3    3    0    0  0.11313451448E+03 -0.30669269871E+03  0.31748990065E+03  0.45569690237E+03  0.00000000000E+00 0. -1.
</event>
<event>
 7    1  0.6999029E-005  0.9599662E+03  0.7818608E-02  0.1019597E+00
          2   -1    0    0  502    0  0.00000000000E+00  0.00000000000E+00  0.32291009497E+04  0.32291009497E+04  0.00000000000E+00 0. -1.
          1   -1    0    0  501    0 -0.00000000000E+00 -0.00000000000E+00 -0.13734320287E+04  0.13734320287E+04  0.00000000000E+00 0. -1.
         25    2    1    2    0    0  0.61014676481E+03  0.74336237208E+03  0.12628016621E+04  0.15922180674E+04  0.12499458254E+03 0.  0.
          2    1    1    2  501    0 -0.40944429210E+03 -0.87190276786E+03 -0.10065727460E+04  0.13932149001E+04  0.00000000000E+00 0. -1.
          1    1    1    2  502    0 -0.20070247271E+03  0.12854039578E+03  0.15994400049E+04  0.16171000109E+04  0.00000000000E+00 0. -1.
         22    1    3    3    0    0  0.16080235107E+03  0.19191075921E+03  0.24359551582E+03  0.34932207336E+03  0.00000000000E+00 0.  1.
         22    1    3    3    0    0  0.44934441374E+03  0.55145161287E+03  0.10192061462E+04  0.12428959941E+04  0.00000000000E+00 0.  1.
</event>
<event>
 7    1  0.6999029E-005  0.3326920E+03  0.7818608E-02  0.1111157E+00
          2   -1    0    0  502    0  0.00000000000E+00  0.00000000000E+00  0.26523534989E+03  0.26523534989E+03  0.00000000000E+00 0. -1.
          1   -1    0    0  501    0 -0.00000000000E+00 -0.00000000000E+00 -0.31207482834E+04  0.31207482834E+04  0.00000000000E+00 0. -1.
         25    2    1    2    0    0  0.40714158568E+03 -0.21005608188E+03 -0.28147976844E+03  0.55203611952E+03  0.12500075554E+03 0.  0.
          2    1    1    2  501    0 -0.19199612972E+03  0.20138590324E+02 -0.25372942094E+04  0.25446276706E+04  0.00000000000E+00 0. -1.
          1    1    1    2  502    0 -0.21514545596E+03  0.18991749156E+03 -0.36738955674E+02  0.28931984323E+03  0.00000000000E+00 0. -1.
         22    1    3    3    0    0  0.26936116682E+03 -0.84572919310E+02 -0.12527980710E+03  0.30887383660E+03  0.00000000000E+00 0. -1.
         22    1    3    3    0    0  0.13778041886E+03 -0.12548316257E+03 -0.15619996134E+03  0.24316228292E+03  0.00000000000E+00 0. -1.
</event>
<event>
 7    1  0.6999029E-005  0.1493288E+03  0.7818608E-02  0.1294023E+00
          2   -1    0    0  502    0  0.00000000000E+00  0.00000000000E+00  0.28138304564E+03  0.28138304564E+03  0.00000000000E+00 0. -1.
          1   -1    0    0  501    0 -0.00000000000E+00 -0.00000000000E+00 -0.32348264843E+03  0.32348264843E+03  0.00000000000E+00 0. -1.
         25    2    1    2    0    0 -0.18282176590E+02  0.15249416983E+03 -0.11611000128E+03  0.22955449386E+03  0.12500009377E+03 0.  0.
          2    1    1    2  501    0 -0.40170493555E+02 -0.14563599604E+03 -0.10689857239E+03  0.18506976165E+03  0.00000000000E+00 0. -1.
          1    1    1    2  502    0  0.58452670145E+02 -0.68581737851E+01  0.18090897089E+03  0.19024143856E+03  0.00000000000E+00 0. -1.
         22    1    3    3    0    0  0.33306785975E+02  0.10806537849E+03 -0.11525510182E+03  0.16146580602E+03  0.00000000000E+00 0. -1.
         22    1    3    3    0    0 -0.51588962565E+02  0.44428791343E+02 -0.85489946187E+00  0.68088687840E+02  0.00000000000E+00 0. -1.
</event>
<event>
 7    1  0.6999029E-005  0.1831585E+03  0.7818608E-02  0.1221315E+00
          2   -1    0    0  502    0  0.00000000000E+00  0.00000000000E+00  0.10632131024E+04  0.10632131024E+04  0.00000000000E+00 0. -1.
          1   -1    0    0  501    0 -0.00000000000E+00 -0.00000000000E+00 -0.19791159673E+03  0.19791159673E+03  0.00000000000E+00 0. -1.
         25    2    1    2    0    0  0.22011270601E+03  0.15982465880E+03  0.50283338054E+03  0.58520013669E+03  0.12499706596E+03 0.  0.
          2    1    1    2  501    0 -0.14876438564E+03 -0.92107154247E+02 -0.10107023961E+03  0.20206376131E+03  0.00000000000E+00 0. -1.
          1    1    1    2  502    0 -0.71348320366E+02 -0.67717504552E+02  0.46353836477E+03  0.47386080114E+03  0.00000000000E+00 0. -1.
         22    1    3    3    0    0  0.14751877777E+03  0.15997393506E+03  0.30664249992E+03  0.37600940474E+03  0.00000000000E+00 0. -1.
         22    1    3    3    0    0  0.72593928238E+02 -0.14927625968E+00  0.19619088062E+03  0.20919073196E+03  0.00000000000E+00 0. -1.
</event>
<event>
 7    1  0.6999029E-005  0.2239366E+03  0.7818608E-02  0.1263029E+00
          2   -1    0    0  502    0  0.00000000000E+00  0.00000000000E+00  0.13565652678E+04  0.13565652678E+04  0.00000000000E+00 0. -1.
          1   -1    0    0  501    0 -0.00000000000E+00 -0.00000000000E+00 -0.52044166498E+03  0.52044166498E+03  0.00000000000E+00 0. -1.
         25    2    1    2    0    0  0.17423513645E+03  0.19348861379E+03  0.38501421476E+03  0.48130716106E+03  0.12499964514E+03 0.  0.
          2    1    1    2  501    0 -0.17150462844E+03 -0.14081266175E+03 -0.44541188681E+03  0.49762816661E+03  0.00000000000E+00 0. -1.
          1    1    1    2  502    0 -0.27305080146E+01 -0.52675952037E+02  0.89652127489E+03  0.89807160512E+03  0.00000000000E+00 0. -1.
         22    1    3    3    0    0  0.18343963451E+03  0.13094279834E+03  0.30839676691E+03  0.38197471354E+03  0.00000000000E+00 0. -1.
         22    1    3    3    0    0 -0.92044980621E+01  0.62545815455E+02  0.76617447848E+02  0.99332447519E+02  0.00000000000E+00 0. -1.
</event>
<event>
 7    1  0.6999029E-005  0.6476016E+02  0.7818608E-02  0.1447702E+00
          2   -1    0    0  502    0  0.00000000000E+00  0.00000000000E+00  0.19108446574E+04  0.19108446574E+04  0.00000000000E+00 0. -1.
          1   -1    0    0  501    0 -0.00000000000E+00 -0.00000000000E+00 -0.15537219096E+03  0.15537219096E+03  0.00000000000E+00 0. -1.
         25    2    1    2    0    0 -0.80419920913E+02 -0.13990191495E+02  0.14247910416E+04  0.14325910657E+04  0.12499824053E+03 0.  0.
          2    1    1    2  501    0  0.32132677384E+02 -0.20163505429E+02 -0.14724520261E+03  0.15205336432E+03  0.00000000000E+00 0. -1.
          1    1    1    2  502    0  0.48287243529E+02  0.34153696925E+02  0.47792662747E+03  0.48157241838E+03  0.00000000000E+00 0. -1.
         22    1    3    3    0    0  0.19647467730E+02 -0.15487114078E+02  0.74336855395E+02  0.78433677464E+02  0.00000000000E+00 0.  1.
         22    1    3    3    0    0 -0.10006738864E+03  0.14969225825E+01  0.13504541862E+04  0.13541573882E+04  0.00000000000E+00 0.  1.
</event>
<event>
 7    1  0.6999029E-005  0.6466359E+03  0.7818608E-02  0.1155596E+00
          2   -1    0    0  502    0  0.00000000000E+00  0.00000000000E+00  0.33772002712E+03  0.33772002712E+03  0.00000000000E+00 0. -1.
          1   -1    0    0  501    0 -0.00000000000E+00 -0.00000000000E+00 -0.32609494349E+04  0.32609494349E+04  0.00000000000E+00 0. -1.
         25    2    1    2    0    0 -0.36878462936E+03 -0.49577258088E+03 -0.62970464555E+03  0.89103574770E+03  0.12499683293E+03 0.  0.
          2    1    1    2  501    0 -0.41355825920E+01 -0.57582429851E+02 -0.19614237702E+04  0.19622731832E+04  0.00000000000E+00 0. -1.
          1    1    1    2  502    0  0.37292021195E+03  0.55335501074E+03 -0.33210099202E+03  0.74536053108E+03  0.00000000000E+00 0. -1.
         22    1    3    3    0    0 -0.44736267420E+02 -0.35159447370E+02 -0.18277741163E+02  0.59762832798E+02  0.00000000000E+00 0. -1.
         22    1    3    3    0    0 -0.32404836194E+03 -0.46061313351E+03 -0.61142690438E+03  0.83127291490E+03  0.00000000000E+00 0. -1.
</event>
<event>
 7    1  0.6999029E-005  0.3507828E+03  0.7818608E-02  0.1191481E+00
          2   -1    0    0  502    0  0.00000000000E+00  0.00000000000E+00  0.92206763712E+03  0.92206763712E+03  0.00000000000E+00 0. -1.
          1   -1    0    0  501    0 -0.00000000000E+00 -0.00000000000E+00 -0.18197648229E+04  0.18197648229E+04  0.00000000000E+00 0. -1.
         25    2    1    2    0    0 -0.21140148730E+03 -0.29628936489E+03  0.59639932571E+03  0.70978552286E+03  0.12500142468E+03 0.  0.
          2    1    1    2  501    0  0.25504521633E+03  0.24057984873E+03 -0.17406130516E+04  0.17755732937E+04  0.00000000000E+00 0. -1.
          1    1    1    2  502    0 -0.43643729033E+02  0.55709516162E+02  0.24651654007E+03  0.25647364348E+03  0.00000000000E+00 0. -1.
         22    1    3    3    0    0 -0.14330123451E+02  0.13275240895E+00  0.88018791512E+02  0.89177787148E+02  0.00000000000E+00 0.  1.
         22    1    3    3    0    0 -0.19707136385E+03 -0.29642211730E+03  0.50838053420E+03  0.62060773571E+03  0.00000000000E+00 0.  1.
</event>
<event>
 7    1  0.6999029E-005  0.1298333E+03  0.7818608E-02  0.1341469E+00
          2   -1    0    0  502    0  0.00000000000E+00  0.00000000000E+00  0.43592124414E+03  0.43592124414E+03  0.00000000000E+00 0. -1.
          1   -1    0    0  501    0 -0.00000000000E+00 -0.00000000000E+00 -0.72557440703E+03  0.72557440703E+03  0.00000000000E+00 0. -1.
         25    2    1    2    0    0 -0.10099575128E+03  0.10278967844E+03 -0.50751650776E+03  0.54218441457E+03  0.12500029596E+03 0.  0.
          2    1    1    2  501    0  0.56767563281E+02 -0.10336709277E+03 -0.18207739073E+03  0.21693199009E+03  0.00000000000E+00 0. -1.
          1    1    1    2  502    0  0.44228187998E+02  0.57741433868E+00  0.39994073560E+03  0.40237924650E+03  0.00000000000E+00 0. -1.
         22    1    3    3    0    0 -0.63417354165E+02  0.12920891164E+03 -0.40600973642E+03  0.43076746595E+03  0.00000000000E+00 0. -1.
         22    1    3    3    0    0 -0.37578397115E+02 -0.26419233201E+02 -0.10150677134E+03  0.11141694862E+03  0.00000000000E+00 0. -1.
</event>
<event>
 7    1  0.6999029E-005  0.1488318E+03  0.7818608E-02  0.1327050E+00
          2   -1    0    0  502    0  0.00000000000E+00  0.00000000000E+00  0.19641665359E+03  0.19641665359E+03  0.00000000000E+00 0. -1.
          1   -1    0    0  501    0 -0.00000000000E+00 -0.00000000000E+00 -0.64437036931E+03  0.64437036931E+03  0.00000000000E+00 0. -1.
         25    2    1    2    0    0  0.17520915158E+03  0.71904528332E+02  0.29591715811E+02  0.22884006224E+03  0.12499438568E+03 0.  0.
          2    1    1    2  501    0 -0.13580297255E+03 -0.52858183441E+02 -0.52649093327E+03  0.54628668089E+03  0.00000000000E+00 0. -1.
          1    1    1    2  502    0 -0.39406179030E+02 -0.19046344891E+02  0.48945501735E+02  0.65660279771E+02  0.00000000000E+00 0. -1.
         22    1    3    3    0    0  0.13492373978E+03  0.10649014592E+03  0.35190541207E+02  0.17545067946E+03  0.00000000000E+00 0. -1.
         22    1    3    3    0    0  0.40285411799E+02 -0.34585617587E+02 -0.55988253953E+01  0.53389382779E+02  0.00000000000E+00 0. -1.
</event>
<event>
 7    1  0.6999029E-005  0.2899781E+03  0.7818608E-02  0.1185522E+00
          2   -1    0    0  502    0  0.00000000000E+00  0.00000000000E+00  0.13621716591E+04  0.13621716591E+04  0.00000000000E+00 0. -1.
          1   -1    0    0  501    0 -0.00000000000E+00 -0.00000000000E+00 -0.81007598463E+03  0.81007598463E+03  0.00000000000E+00 0. -1.
         25    2    1    2    0    0 -0.52979602863E+02 -0.35240763513E+03 -0.11419391730E+03  0.39453864386E+03  0.12499004413E+03 0.  0.
          2    1    1    2  501    0 -0.40304133248E+02  0.82089550014E+02 -0.53504740571E+03  0.54280645145E+03  0.00000000000E+00 0. -1.
          1    1    1    2  502    0  0.93283736110E+02  0.27031808512E+03  0.12013369975E+04  0.12349025484E+04  0.00000000000E+00 0. -1.
         22    1    3    3    0    0 -0.19257556201E+02 -0.32984816551E+03 -0.12380559122E+03  0.35284343579E+03  0.00000000000E+00 0.  1.
         22    1    3    3    0    0 -0.33722046662E+02 -0.22559469620E+02  0.96116739199E+01  0.41695208071E+02  0.00000000000E+00 0.  1.
</event>
<event>
 7    1  0.6999029E-005  0.4351938E+03  0.7818608E-02  0.1196922E+00
          2   -1    0    0  502    0  0.00000000000E+00  0.00000000000E+00  0.10711740045E+04  0.10711740045E+04  0.00000000000E+00 0. -1.
          1   -1    0    0  501    0 -0.00000000000E+00 -0.00000000000E+00 -0.84773190286E+03  0.84773190286E+03  0.00000000000E+00 0. -1.
         25    2    1    2    0    0  0.43025247522E+03 -0.28674654558E+02  0.58283191380E+03  0.73569964372E+03  0.12498599036E+03 0.  0.
          2    1    1    2  501    0  0.12471879710E+02  0.52271109534E+02 -0.65056905378E+03  0.65278473512E+03  0.00000000000E+00 0. -1.
          1    1    1    2  502    0 -0.44272435493E+03 -0.23596454976E+02  0.29117924159E+03  0.53042152847E+03  0.00000000000E+00 0. -1.
         22    1    3    3    0    0  0.25576478768E+03 -0.40683203323E+02  0.25130997629E+03  0.36087041141E+03  0.00000000000E+00 0.  1.
         22    1    3    3    0    0  0.17448768754E+03  0.12008548765E+02  0.33152193751E+03  0.37482923231E+03  0.00000000000E+00 0.  1.
</event>
<event>
 7    1  0.6999029E-005  0.1512636E+03  0.7818608E-02  0.1366632E+00
          2   -1    0    0  502    0  0.00000000000E+00  0.00000000000E+00  0.66599277518E+03  0.66599277518E+03  0.00000000000E+00 0. -1.
          1   -1    0    0  501    0 -0.00000000000E+00 -0.00000000000E+00 -0.75148124065E+02  0.75148124065E+02  0.00000000000E+00 0. -1.
         25    2    1    2    0    0  0.15493657310E+03  0.39161507686E+02  0.35258474518E+03  0.40679193661E+03  0.12499884716E+03 0.  0.
          2    1    1    2  501    0 -0.21872945521E+02  0.21499892502E+02 -0.20663714440E+02  0.36981890403E+02  0.00000000000E+00 0. -1.
          1    1    1    2  502    0 -0.13306362758E+03 -0.60661400188E+02  0.25892362038E+03  0.29736707224E+03  0.00000000000E+00 0. -1.
         22    1    3    3    0    0  0.56400520572E+02  0.75377991364E+02  0.12810503094E+03  0.15897722873E+03  0.00000000000E+00 0.  1.
         22    1    3    3    0    0  0.98536052528E+02 -0.36216483678E+02  0.22447971424E+03  0.24781470788E+03  0.00000000000E+00 0.  1.
</event>
<event>
 7    1  0.6999029E-005  0.1892942E+03  0.7818608E-02  0.1246422E+00
          2   -1    0    0  502    0  0.00000000000E+00  0.00000000000E+00  0.88742629873E+03  0.88742629873E+03  0.00000000000E+00 0. -1.
          1   -1    0    0  501    0 -0.00000000000E+00 -0.00000000000E+00 -0.13582564018E+04  0.13582564018E+04  0.00000000000E+00 0. -1.
         25    2    1    2    0    0 -0.21394706652E+03  0.10440085540E+03  0.19479065955E+03  0.33202212850E+03  0.12498962712E+03 0.  0.
          2    1    1    2  501    0  0.73017099304E+02  0.89690991890E+01 -0.12754523072E+04  0.12775721230E+04  0.00000000000E+00 0. -1.
          1    1    1    2  502    0  0.14092996721E+03 -0.11336995458E+03  0.60983154457E+03  0.63608844905E+03  0.00000000000E+00 0. -1.
         22    1    3    3    0    0 -0.12619636740E+03  0.10781439221E+03  0.17656877895E+03  0.24233447962E+03  0.00000000000E+00 0.  1.
         22    1    3    3    0    0 -0.87750699122E+02 -0.34135368151E+01  0.18221880603E+02  0.89687648886E+02  0.00000000000E+00 0.  1.
</event>
<event>
 7    1  0.6999029E-005  0.2997753E+03  0.7818608E-02  0.1282481E+00
          2   -1    0    0  502    0  0.00000000000E+00  0.00000000000E+00  0.85095394106E+03  0.85095394106E+03  0.00000000000E+00 0. -1.
          1   -1    0    0  501    0 -0.00000000000E+00 -0.00000000000E+00 -0.97612795036E+03  0.97612795036E+03  0.00000000000E+00 0. -1.
         25    2    1    2    0    0 -0.20024057635E+03 -0.19251145569E+03  0.17287865787E+03  0.35024173777E+03  0.12500118213E+03 0.  0.
          2    1    1    2  501    0 -0.18798874146E+02 -0.26723681933E+02 -0.84637163566E+03  0.84700206523E+03  0.00000000000E+00 0. -1.
          1    1    1    2  502    0  0.21903945050E+03  0.21923513762E+03  0.54831896848E+03  0.62983808843E+03  0.00000000000E+00 0. -1.
         22    1    3    3    0    0 -0.21307543309E+03 -0.15686260956E+03  0.13653308004E+03  0.29773864447E+03  0.00000000000E+00 0.  1.
         22    1    3    3    0    0  0.12834856735E+02 -0.35648846128E+02  0.36345577837E+02  0.52503093299E+02  0.00000000000E+00 0.  1.
</event>
<event>
 7    1  0.6999029E-005  0.8533559E+03  0.7818608E-02  0.1068092E+00
          2   -1    0    0  502    0  0.00000000000E+00  0.00000000000E+00  0.25907751018E+04  0.25907751018E+04  0.00000000000E+00 0. -1.
          1   -1    0    0  501    0 -0.00000000000E+00 -0.00000000000E+00 -0.17408762809E+04  0.17408762809E+04  0.00000000000E+00 0. -1.
         25    2    1    2    0    0 -0.42969176285E+03 -0.86124776392E+03  0.20162163777E+03  0.99129215267E+03  0.12500450073E+03 0.  0.
          2    1    1    2  501    0  0.62535064638E+02  0.11745556569E+03 -0.12561257047E+04  0.12631540801E+04  0.00000000000E+00 0. -1.
          1    1    1    2  502    0  0.36715669821E+03  0.74379219824E+03  0.19044028878E+04  0.20772051498E+04  0.00000000000E+00 0. -1.
         22    1    3    3    0    0 -0.32324967887E+03 -0.67631131138E+03  0.20766653697E+03  0.77782564586E+03  0.00000000000E+00 0. -1.
         22    1    3    3    0    0 -0.10644208398E+03 -0.18493645254E+03 -0.60448991931E+01  0.21346650681E+03  0.00000000000E+00 0. -1.
</event>
<event>
 7    1  0.6999029E-005  0.3624925E+03  0.7818608E-02  0.1204748E+00
          2   -1    0    0  502    0  0.00000000000E+00  0.00000000000E+00  0.34021486883E+03  0.34021486883E+03  0.00000000000E+00 0. -1.
          1   -1    0    0  501    0 -0.00000000000E+00 -0.00000000000E+00 -0.13954402310E+04  0.13954402310E+04  0.00000000000E+00 0. -1.
         25    2    1    2    0    0 -0.25790429839E+03 -0.31332828831E+03 -0.32597991368E+03  0.53532754863E+03  0.12499374711E+03 0.  0.
          2    1    1    2  501    0  0.22838573909E+02  0.54689492704E+02 -0.83350428383E+03  0.83560871957E+03  0.00000000000E+00 0. -1.
          1    1    1    2  502    0  0.23506572448E+03  0.25863879560E+03  0.10425883532E+03  0.36471883165E+03  0.00000000000E+00 0. -1.
         22    1    3    3    0    0 -0.57985736157E+02 -0.11421128279E+03 -0.41487426225E+02  0.13463940452E+03  0.00000000000E+00 0. -1.
         22    1    3    3    0    0 -0.19991856224E+03 -0.19911700551E+03 -0.28449248745E+03  0.40068814411E+03  0.00000000000E+00 0. -1.
</event>
<event>
 7    1  0.6999029E-005  0.3664182E+03  0.7818608E-02  0.1126615E+00
          2   -1    0    0  502    0  0.00000000000E+00  0.00000000000E+00  0.20097284681E+04  0.20097284681E+04  0.00000000000E+00 0. -1.
          1   -1    0    0  501    0 -0.00000000000E+00 -0.00000000000E+00 -0.38719903709E+04  0.38719903709E+04  0.00000000000E+00 0. -1.
         25    2    1    2    0    0  0.22007826389E+03 -0.22216597887E+03 -0.10762200878E+04  0.11276822133E+04  0.12500132935E+03 0.  0.
          2    1    1    2  501    0 -0.18003081310E+03  0.36091701814E+03 -0.27526961829E+04  0.27820870696E+04  0.00000000000E+00 0. -1.
          1    1    1    2  502    0 -0.40047450789E+02 -0.13875103927E+03  0.19666543679E+04  0.19719495562E+04  0.00000000000E+00 0. -1.
         22    1    3    3    0    0  0.21083182320E+03 -0.22971032860E+03 -0.10694219032E+04  0.11139479790E+04  0.00000000000E+00 0.  1.
         22    1    3    3    0    0  0.92464406904E+01  0.75443497328E+01 -0.67981845633E+01  0.13734234296E+02  0.00000000000E+00 0.  1.
</event>
<event>
 7    1  0.6999029E-005  0.9220336E+03  0.7818608E-02  0.1044043E+00
          2   -1    0    0  502    0  0.00000000000E+00  0.00000000000E+00  0.17968702487E+04  0.17968702487E+04  0.00000000000E+00 0. -1.
          1   -1    0    0  501    0 -0.00000000000E+00 -0.00000000000E+00 -0.10727284857E+04  0.10727284857E+04  0.00000000000E+00 0. -1.
         25    2    1    2    0    0 -0.25039979064E+03  0.95377377773E+03  0.10811472032E+04  0.14686349048E+04  0.12499893751E+03 0.  0.
          2    1    1    2  501    0  0.60981537336E+02 -0.16175745501E+03 -0.53940981540E+03  0.56643373054E+03  0.00000000000E+00 0. -1.
          1    1    1    2  502    0  0.18941825331E+03 -0.79201632272E+03  0.18240437522E+03  0.83453009906E+03  0.00000000000E+00 0. -1.
         22    1    3    3    0    0 -0.18964235687E+03  0.47979402010E+03  0.54599626935E+03  0.75118469858E+03  0.00000000000E+00 0. -1.
         22    1    3    3    0    0 -0.60757433770E+02  0.47397975763E+03  0.53515093383E+03  0.71745020621E+03  0.00000000000E+00 0. -1.
</event>
<event>
 7    1  0.6999029E-005  0.6178141E+02  0.7818608E-02  0.1415086E+00
          2   -1    0    0  502    0  0.00000000000E+00  0.00000000000E+00  0.61467087626E+03  0.61467087626E+03  0.00000000000E+00 0. -1.
          1   -1    0    0  501    0 -0.00000000000E+00 -0.00000000000E+00 -0.13488170066E+03  0.13488170066E+03  0.00000000000E+00 0. -1.
         25    2    1    2    0    0  0.42876585323E+02  0.10278058976E+03 -0.70170677403E+02  0.18152441888E+03  0.12499975792E+03 0.  0.
          2    1    1    2  501    0 -0.14473472881E+02 -0.48792885667E+02  0.84912525617E+02  0.98996788411E+02  0.00000000000E+00 0. -1.
          1    1    1    2  502    0 -0.28403112442E+02 -0.53987704091E+02  0.46504732739E+03  0.46903136963E+03  0.00000000000E+00 0. -1.
         22    1    3    3    0    0  0.49511444023E+02 -0.70068861679E+01  0.18768087229E+01  0.50040003537E+02  0.00000000000E+00 0. -1.
         22    1    3    3    0    0 -0.66348586996E+01  0.10978747593E+03 -0.72047486126E+02  0.13148441534E+03  0.00000000000E+00 0. -1.
</event>
<event>
 7    1  0.6999029E-005  0.3889594E+03  0.7818608E-02  0.1225973E+00
          2   -1    0    0  502    0  0.00000000000E+00  0.00000000000E+00  0.17912680025E+03  0.17912680025E+03  0.00000000000E+00 0. -1.
          1   -1    0    0  501    0 -0.00000000000E+00 -0.00000000000E+00 -0.34320753612E+04  0.34320753612E+04  0.00000000000E+00 0. -1.
         25    2    1    2    0    0 -0.84306674600E+02  0.41377312608E+03 -0.12813359412E+04  0.13549031074E+04  0.12499928393E+03 0.  0.
          2    1    1    2  501    0  0.25886633525E+02 -0.35731538732E+02 -0.18562202971E+04  0.18567446384E+04  0.00000000000E+00 0. -1.
          1    1    1    2  502    0  0.58420041075E+02 -0.37804158735E+03 -0.11539232261E+03  0.39955441567E+03  0.00000000000E+00 0. -1.
         22    1    3    3    0    0  0.21649666210E+02  0.20569287698E+03 -0.61243583936E+03  0.64641776354E+03  0.00000000000E+00 0. -1.
         22    1    3    3    0    0 -0.10595634081E+03  0.20808024910E+03 -0.66890010182E+03  0.70848534384E+03  0.00000000000E+00 0. -1.
</event>
<event>
 7    1  0.6999029E-005  0.2559936E+03  0.7818608E-02  0.1275891E+00
          2   -1    0    0  502    0  0.00000000000E+00  0.00000000000E+00  0.58071226720E+03  0.58071226720E+03  0.00000000000E+00 0. -1.
          1   -1    0    0  501    0 -0.00000000000E+00 -0.00000000000E+00 -0.77104903485E+03  0.77104903485E+03  0.00000000000E+00 0. -1.
         25    2    1    2    0    0  0.69877288923E+02 -0.23237145416E+03 -0.39247736742E+03  0.47806121041E+03  0.12499883501E+03 0.  0.
          2    1    1    2  501    0 -0.52407659718E+02  0.26917655697E+03 -0.27878347687E+03  0.39105346002E+03  0.00000000000E+00 0. -1.
          1    1    1    2  502    0 -0.17469629205E+02 -0.36805102809E+02  0.48092407662E+03  0.48264663162E+03  0.00000000000E+00 0. -1.
         22    1    3    3    0    0  0.39464877491E+02 -0.15503719383E+03 -0.14113567364E+03  0.21333843160E+03  0.00000000000E+00 0. -1.
         22    1    3    3    0    0  0.30412411432E+02 -0.77334260330E+02 -0.25134169378E+03  0.26472277881E+03  0.00000000000E+00 0. -1.
</event>
<event>
 7    1  0.6999029E-005  0.7253331E+03  0.7818608E-02  0.1080787E+00
          2   -1    0    0  502    0  0.00000000000E+00  0.00000000000E+00  0.12660844332E+04  0.12660844332E+04  0.00000000000E+00 0. -1.
          1   -1    0    0  501    0 -0.00000000000E+00 -0.00000000000E+00 -0.34330468384E+04  0.34330468384E+04  0.00000000000E+00 0. -1.
         25    2    1    2    0    0  0.56914415242E+03 -0.57027761388E+03 -0.14801067102E+04  0.16898176118E+04  0.12500425659E+03 0.  0.
          2    1    1    2  501    0 -0.49895746629E+03  0.45883065851E+03 -0.17818486554E+04  0.19064282722E+04  0.00000000000E+00 0. -1.
          1    1    1    2  502    0 -0.70186686131E+02  0.11144695537E+03  0.10949929604E+04  0.11028853876E+04  0.00000000000E+00 0. -1.
         22    1    3    3    0    0  0.15928756893E+03 -0.87068964859E+02 -0.31491025057E+03  0.36348590093E+03  0.00000000000E+00 0.  1.
         22    1    3    3    0    0  0.40985658349E+03 -0.48320864902E+03 -0.11651964597E+04  0.13263317108E+04  0.00000000000E+00 0.  1.
</event>
<event>
 7    1  0.6999029E-005  0.2815301E+03  0.7818608E-02  0.1196574E+00
          2   -1    0    0  502    0  0.00000000000E+00  0.00000000000E+00  0.45695322072E+03  0.45695322072E+03  0.00000000000E+00 0. -1.
          1   -1    0    0  501    0 -0.00000000000E+00 -0.00000000000E+00 -0.51930230585E+03  0.51930230585E+03  0.00000000000E+00 0. -1.
         25    2    1    2    0    0  0.25001785293E+03 -0.39145012703E+02 -0.14147993975E+03  0.31573538133E+03  0.12502399317E+03 0.  0.
          2    1    1    2  501    0 -0.29216194839E+03  0.11109731085E+03 -0.19874248860E+03  0.37040490458E+03  0.00000000000E+00 0. -1.
          1    1    1    2  502    0  0.42144095457E+02 -0.71952298147E+02  0.27787334322E+03  0.29011524066E+03  0.00000000000E+00 0. -1.
         22    1    3    3    0    0  0.19650669080E+03  0.23063441814E+02 -0.80978957530E+02  0.21378585884E+03  0.00000000000E+00 0. -1.
         22    1    3    3    0    0  0.53511162132E+02 -0.62208454517E+02 -0.60500982223E+02  0.10194952249E+03  0.00000000000E+00 0. -1.
</event>
<event>
 7    1  0.6999029E-005  0.8691337E+02  0.7818608E-02  0.1478380E+00
          2   -1    0    0  502    0  0.00000000000E+00  0.00000000000E+00  0.18253219620E+03  0.18253219620E+03  0.00000000000E+00 0. -1.
          1   -1    0    0  501    0 -0.00000000000E+00 -0.00000000000E+00 -0.13488260908E+04  0.13488260908E+04  0.00000000000E+00 0. -1.
         25    2    1    2    0    0  0.52241943365E+01  0.97814248924E+02 -0.76043227076E+03  0.77683733284E+03  0.12499633505E+03 0.  0.
          2    1    1    2  501    0  0.11491067493E+02 -0.82543441958E+02 -0.57644672346E+03  0.58243994492E+03  0.00000000000E+00 0. -1.
          1    1    1    2  502    0 -0.16715261830E+02 -0.15270806966E+02  0.17058509963E+03  0.17208100924E+03  0.00000000000E+00 0. -1.
         22    1    3    3    0    0  0.24434330641E+02  0.35313026031E+02 -0.62472388301E+03  0.62619803283E+03  0.00000000000E+00 0.  1.
         22    1    3    3    0    0 -0.19210136305E+02  0.62501222893E+02 -0.13570838776E+03  0.15063930001E+03  0.00000000000E+00 0.  1.
</event>
<event>
 7    1  0.6999029E-005  0.5260123E+03  0.7818608E-02  0.1148396E+00
          2   -1    0    0  502    0  0.00000000000E+00  0.00000000000E+00  0.35306548885E+03  0.35306548885E+03  0.00000000000E+00 0. -1.
          1   -1    0    0  501    0 -0.00000000000E+00 -0.00000000000E+00 -0.31236378655E+04  0.31236378655E+04  0.00000000000E+00 0. -1.
         25    2    1    2    0    0 -0.24888425471E+03  0.44535760825E+03 -0.48075818116E+02  0.52746597100E+03  0.12498917876E+03 0.  0.
          2    1    1    2  501    0 -0.74488505509E+02  0.20528215319E+02 -0.21215139018E+04  0.21229204367E+04  0.00000000000E+00 0. -1.
          1    1    1    2  502    0  0.32337276021E+03 -0.46588582357E+03 -0.60098265682E+03  0.82631694673E+03  0.00000000000E+00 0. -1.
         22    1    3    3    0    0 -0.30640493017E+02  0.10213466280E+02 -0.23679415709E+02  0.40048338719E+02  0.00000000000E+00 0. -1.
         22    1    3    3    0    0 -0.21824376169E+03  0.43514414197E+03 -0.24396402406E+02  0.48741763228E+03  0.00000000000E+00 0. -1.
</event>
<event>
 7    1  0.6999029E-005  0.6970856E+03  0.7818608E-02  0.1214865E+00
          2   -1    0    0  502    0  0.00000000000E+00  0.00000000000E+00  0.11620844443E+04  0.11620844443E+04  0.00000000000E+00 0. -1.
          1   -1    0    0  501    0 -0.00000000000E+00 -0.00000000000E+00 -0.27435457865E+04  0.27435457865E+04  0.00000000000E+00 0. -1.
         25    2    1    2    0    0 -0.68573087471E+03  0.17898007636E+03 -0.93691307132E+03  0.11813937871E+04  0.12499790646E+03 0.  0.
          2    1    1    2  501    0  0.67298216806E+03 -0.15443008519E+03 -0.16134261698E+04  0.17549637191E+04  0.00000000000E+00 0. -1.
          1    1    1    2  502    0  0.12748706658E+02 -0.24549991171E+02  0.96887789903E+03  0.96927272468E+03  0.00000000000E+00 0. -1.
         22    1    3    3    0    0 -0.10446177101E+03 -0.96657055839E+01 -0.18265372654E+03  0.21063729794E+03  0.00000000000E+00 0.  1.
         22    1    3    3    0    0 -0.58126910370E+03  0.18864578195E+03 -0.75425934478E+03  0.97075648912E+03  0.00000000000E+00 0.  1.
</event>
<event>
 7    1  0.8924406E-005  0.2108457E+03  0.7818608E-02  0.1272563E+00
          2   -1    0    0  502    0  0.00000000000E+00  0.00000000000E+00  0.77269827416E+03  0.77269827416E+03  0.00000000000E+00 0. -1.
          1   -1    0    0  501    0 -0.00000000000E+00 -0.00000000000E+00 -0.22315143519E+04  0.22315143519E+04  0.00000000000E+00 0. -1.
         25    2    1    2    0    0  0.18722507901E+03  0.12795872738E+02 -0.10008963269E+04  0.10259801265E+04  0.12499919275E+03 0.  0.
          2    1    1    2  501    0 -0.23166303179E+03  0.12373663161E+02 -0.12061514856E+04  0.12282598560E+04  0.00000000000E+00 0. -1.
          1    1    1    2  502    0  0.44437952782E+02 -0.25169535899E+02  0.74823173472E+03  0.74997264352E+03  0.00000000000E+00 0. -1.
         22    1    3    3    0    0  0.17542875933E+03 -0.29557965018E+02 -0.71936030544E+03  0.74103182924E+03  0.00000000000E+00 0. -1.
         22    1    3    3    0    0  0.11796319676E+02  0.42353837756E+02 -0.28153602146E+03  0.28494829725E+03  0.00000000000E+00 0. -1.
</event>
<event>
 7    1  0.6999029E-005  0.2499917E+03  0.7818608E-02  0.1182241E+00
          2   -1    0    0  502    0  0.00000000000E+00  0.00000000000E+00  0.15934012921E+04  0.15934012921E+04  0.00000000000E+00 0. -1.
          1   -1    0    0  501    0 -0.00000000000E+00 -0.00000000000E+00 -0.53899082265E+03  0.53899082265E+03  0.00000000000E+00 0. -1.
         25    2    1    2    0    0  0.26593510354E+02  0.31242911260E+03 -0.27810830558E+03  0.43736385219E+03  0.12499497742E+03 0.  0.
          2    1    1    2  501    0 -0.11200721143E+02 -0.20347571913E+03 -0.12123262946E+03  0.23711848278E+03  0.00000000000E+00 0. -1.
          1    1    1    2  502    0 -0.15392789211E+02 -0.10895339347E+03  0.14537514045E+04  0.14579097797E+04  0.00000000000E+00 0. -1.
         22    1    3    3    0    0 -0.26559018390E+02  0.13150238444E+03 -0.54366747892E+02  0.14475497176E+03  0.00000000000E+00 0.  1.
         22    1    3    3    0    0  0.53152528744E+02  0.18092672815E+03 -0.22374155769E+03  0.29260888044E+03  0.00000000000E+00 0.  1.
</event>
<event>
 7    1  0.6999029E-005  0.5380597E+03  0.7818608E-02  0.1173214E+00
          2   -1    0    0  502    0  0.00000000000E+00  0.00000000000E+00  0.31568347580E+04  0.31568347580E+04  0.00000000000E+00 0. -1.
          1   -1    0    0  501    0 -0.00000000000E+00 -0.00000000000E+00 -0.15811933564E+03  0.15811933564E+03  0.00000000000E+00 0. -1.
         25    2    1    2    0    0  0.29625177298E+03 -0.41128169914E+03  0.11866436055E+04  0.12964054397E+04  0.12500507471E+03 0.  0.
          2    1    1    2  501    0  0.19925887690E+02 -0.52982823190E+02 -0.48807809659E+02  0.74742376448E+02  0.00000000000E+00 0. -1.
          1    1    1    2  502    0 -0.31617766067E+03  0.46426452233E+03  0.18608796266E+04  0.19438062775E+04  0.00000000000E+00 0. -1.
         22    1    3    3    0    0  0.28312870256E+03 -0.32422591031E+03  0.10369447818E+04  0.11227371837E+04  0.00000000000E+00 0.  1.
         22    1    3    3    0    0  0.13123070419E+02 -0.87055788832E+02  0.14969882363E+03  0.17366825600E+03  0.00000000000E+00 0.  1.
</event>
<event>
 7    1  0.6999029E-005  0.2484051E+03  0.7818608E-02  0.1188366E+00
          2   -1    0    0  502    0  0.00000000000E+00  0.00000000000E+00  0.18597107311E+04  0.18597107311E+04  0.00000000000E+00 0. -1.
          1   -1    0    0  501    0 -0.00000000000E+00 -0.00000000000E+00 -0.94145659790E+03  0.94145659790E+03  0.00000000000E+00 0. -1.
         25    2    1    2    0    0 -0.27284498986E+03 -0.16461218956E+03  0.57124057212E+03  0.66594529339E+03  0.12500312439E+03 0.  0.
          2    1    1    2  501    0  0.10335152878E+03  0.41726174630E+01 -0.88007687101E+03  0.88613444133E+03  0.00000000000E+00 0. -1.
          1    1    1    2  502    0  0.16949346108E+03  0.16043957210E+03  0.12270904321E+04  0.12490875943E+04  0.00000000000E+00 0. -1.
         22    1    3    3    0    0 -0.26194784635E+03 -0.18376309163E+03  0.54071777491E+03  0.62830029456E+03  0.00000000000E+00 0.  1.
         22    1    3    3    0    0 -0.10897143511E+02  0.19150902067E+02  0.30522797218E+02  0.37644998827E+02  0.00000000000E+00 0.  1.
</event>
<event>
 7    1  0.6999029E-005  0.5590566E+03  0.7818608E-02  0.1151514E+00
          2   -1    0    0  502    0  0.00000000000E+00  0.00000000000E+00  0.43080525026E+03  0.43080525026E+03  0.00000000000E+00 0. -1.
          1   -1    0    0  501    0 -0.00000000000E+00 -0.00000000000E+00 -0.18794203731E+04  0.18794203731E+04  0.00000000000E+00 0. -1.
         25    2    1    2    0    0 -0.14938698106E+03  0.49536896105E+03 -0.27242477025E+03  0.59795294163E+03  0.12500234907E+03 0.  0.
          2    1    1    2  501    0  0.12382065754E+03 -0.56059925594E+03 -0.13811227927E+04  0.14956949052E+04  0.00000000000E+00 0. -1.
          1    1    1    2  502    0  0.25566323523E+02  0.65230294894E+02  0.20493244011E+03  0.21657777652E+03  0.00000000000E+00 0. -1.
         22    1    3    3    0    0 -0.30771524905E+02  0.14427406500E+03 -0.14288955433E+03  0.20537603880E+03  0.00000000000E+00 0. -1.
         22    1    3    3    0    0 -0.11861545616E+03  0.35109489604E+03 -0.12953521592E+03  0.39257690282E+03  0.00000000000E+00 0. -1.
</event>
<event>
 7    1  0.6999029E-005  0.1069165E+04  0.7818608E-02  0.1065480E+00
          2   -1    0    0  502    0  0.00000000000E+00  0.00000000000E+00  0.11870371085E+04  0.11870371085E+04  0.00000000000E+00 0. -1.
          1   -1    0    0  501    0 -0.00000000000E+00 -0.00000000000E+00 -0.25721346442E+04  0.25721346442E+04  0.00000000000E+00 0. -1.
         25    2    1    2    0    0  0.71739882264E+03  0.68938700988E+03 -0.24537066045E+03  0.10323488463E+04  0.12498743634E+03 0.  0.
          2    1    1    2  501    0 -0.81834315887E+03 -0.73336313644E+03 -0.17719837808E+04  0.20850500078E+04  0.00000000000E+00 0. -1.
          1    1    1    2  502    0  0.10094433623E+03  0.43976126562E+02  0.63225690560E+03  0.64177289862E+03  0.00000000000E+00 0. -1.
         22    1    3    3    0    0  0.20223964372E+03  0.12136514866E+03 -0.52637964385E+02  0.24166325351E+03  0.00000000000E+00 0.  1.
         22    1    3    3    0    0  0.51515917892E+03  0.56802186122E+03 -0.19273269607E+03  0.79068559274E+03  0.00000000000E+00 0.  1.
</event>
<event>
 7    1  0.6999029E-005  0.8312610E+02  0.7818608E-02  0.1428053E+00
          2   -1    0    0  502    0  0.00000000000E+00  0.00000000000E+00  0.58830089462E+02  0.58830089462E+02  0.00000000000E+00 0. -1.
          1   -1    0    0  501    0 -0.00000000000E+00 -0.00000000000E+00 -0.56290708842E+03  0.56290708842E+03  0.00000000000E+00 0. -1.
         25    2    1    2    0    0 -0.54359771321E+02  0.93666286878E+02 -0.11082488902E+03  0.19908903306E+03  0.12500371604E+03 0.  0.
          2    1    1    2  501    0  0.54884604553E+02 -0.59426804515E+02 -0.37542644206E+03  0.38404280791E+03  0.00000000000E+00 0. -1.
          1    1    1    2  502    0 -0.52483323183E+00 -0.34239482363E+02 -0.17825667872E+02  0.38605336905E+02  0.00000000000E+00 0. -1.
         22    1    3    3    0    0  0.25617802367E+02  0.72908587732E+02 -0.79091127378E+02  0.11057730505E+03  0.00000000000E+00 0. -1.
         22    1    3    3    0    0 -0.79977573688E+02  0.20757699146E+02 -0.31733761646E+02  0.88511728008E+02  0.00000000000E+00 0. -1.
</event>
<event>
 7    1  0.6999029E-005  0.2189244E+03  0.7818608E-02  0.1170770E+00
          2   -1    0    0  502    0  0.00000000000E+00  0.00000000000E+00  0.41536676279E+03  0.41536676279E+03  0.00000000000E+00 0. -1.
          1   -1    0    0  501    0 -0.00000000000E+00 -0.00000000000E+00 -0.12908676778E+04  0.12908676778E+04  0.00000000000E+00 0. -1.
         25    2    1    2    0    0 -0.12786891847E+03  0.29211156088E+03  0.87614070641E+02  0.35352781163E+03  0.12500425556E+03 0.  0.
          2    1    1    2  501    0  0.17557387049E+02 -0.14197083390E+03 -0.11076862098E+04  0.11168852756E+04  0.00000000000E+00 0. -1.
          1    1    1    2  502    0  0.11031153142E+03 -0.15014072698E+03  0.14457122411E+03  0.23582135337E+03  0.00000000000E+00 0. -1.
         22    1    3    3    0    0 -0.83290688237E+02  0.19635547720E+03  0.11782127199E+03  0.24366916979E+03  0.00000000000E+00 0. -1.
         22    1    3    3    0    0 -0.44578230235E+02  0.95756083682E+02 -0.30207201347E+02  0.10985864184E+03  0.00000000000E+00 0. -1.
</event>
<event>
 7    1  0.6999029E-005  0.2557689E+03  0.7818608E-02  0.1206875E+00
          2   -1    0    0  502    0  0.00000000000E+00  0.00000000000E+00  0.10159369192E+04  0.10159369192E+04  0.00000000000E+00 0. -1.
          1   -1    0    0  501    0 -0.00000000000E+00 -0.00000000000E+00 -0.27922035556E+03  0.27922035556E+03  0.00000000000E+00 0. -1.
         25    2    1    2    0    0 -0.17785272202E+03  0.14586244085E+03  0.32175130610E+03  0.41479705718E+03  0.12500101315E+03 0.  0.
          2    1    1    2  501    0  0.14336746018E+03 -0.22036610859E+03 -0.15454809070E+03  0.30495993637E+03  0.00000000000E+00 0. -1.
          1    1    1    2  502    0  0.34485261832E+02  0.74503667735E+02  0.56951334820E+03  0.57540028116E+03  0.00000000000E+00 0. -1.
         22    1    3    3    0    0 -0.45176211739E+02  0.25467952322E+02  0.17708551600E+03  0.18452313318E+03  0.00000000000E+00 0.  1.
         22    1    3    3    0    0 -0.13267651028E+03  0.12039448853E+03  0.14466579010E+03  0.23027392400E+03  0.00000000000E+00 0.  1.
</event>
<event>
 7    1  0.6999029E-005  0.1208492E+04  0.7818608E-02  0.1018698E+00
          2   -1    0    0  502    0  0.00000000000E+00  0.00000000000E+00  0.28325989851E+04  0.28325989851E+04  0.00000000000E+00 0. -1.
          1   -1    0    0  501    0 -0.00000000000E+00 -0.00000000000E+00 -0.12056727163E+04  0.12056727163E+04  0.00000000000E+00 0. -1.
         25    2    1    2    0    0  0.12236908744E+04  0.49450989445E+03  0.12172127984E+04  0.17997754885E+04  0.12500168250E+03 0.  0.
          2    1    1    2  501    0 -0.10421308323E+04 -0.55670690415E+03 -0.51877363998E+03  0.12903818575E+04  0.00000000000E+00 0. -1.
          1    1    1    2  502    0 -0.18156004212E+03  0.62197009702E+02  0.92848711039E+03  0.94811435548E+03  0.00000000000E+00 0. -1.
         22    1    3    3    0    0  0.94092455434E+03  0.41490646801E+03  0.10003808868E+04  0.14346596505E+04  0.00000000000E+00 0.  1.
         22    1    3    3    0    0  0.28276632004E+03  0.79603426443E+02  0.21683191162E+03  0.36511583798E+03  0.00000000000E+00 0.  1.
</event>
<event>
 7    1  0.6999029E-005  0.4323452E+03  0.7818608E-02  0.1197061E+00
          2   -1    0    0  502    0  0.00000000000E+00  0.00000000000E+00  0.14854051612E+04  0.14854051612E+04  0.00000000000E+00 0. -1.
          1   -1    0    0  501    0 -0.00000000000E+00 -0.00000000000E+00 -0.19800091960E+04  0.19800091960E+04  0.00000000000E+00 0. -1.
         25    2    1    2    0    0 -0.39746006790E+03 -0.16875960094E+03 -0.18676573633E+04  0.19209953981E+04  0.12499993720E+03 0.  0.
          2    1    1    2  501    0  0.42939802501E+03  0.12520369815E+03  0.50464700438E+03  0.67433465649E+03  0.00000000000E+00 0. -1.
          1    1    1    2  502    0 -0.31937957107E+02  0.43555902791E+02  0.86840632416E+03  0.87008430259E+03  0.00000000000E+00 0. -1.
         22    1    3    3    0    0 -0.14683595699E+03 -0.11045909258E+02 -0.47926130805E+03  0.50137232848E+03  0.00000000000E+00 0. -1.
         22    1    3    3    0    0 -0.25062411091E+03 -0.15771369168E+03 -0.13883960553E+04  0.14196230696E+04  0.00000000000E+00 0. -1.
</event>
<event>
 7    1  0.6999029E-005  0.6875926E+02  0.7818608E-02  0.1443956E+00
          2   -1    0    0  502    0  0.00000000000E+00  0.00000000000E+00  0.30995260906E+04  0.30995260906E+04  0.00000000000E+00 0. -1.
          1   -1    0    0  501    0 -0.00000000000E+00 -0.00000000000E+00 -0.13338398564E+04  0.13338398564E+04  0.00000000000E+00 0. -1.
         25    2    1    2    0    0  0.50768274104E+02  0.21189773005E+02  0.47132902564E+03  0.49071624195E+03  0.12499982226E+03 0.  0.
          2    1    1    2  501    0 -0.67861879906E+02  0.11325389949E+02 -0.13231235926E+04  0.13249111444E+04  0.00000000000E+00 0. -1.
          1    1    1    2  502    0  0.17093605801E+02 -0.32515162954E+02  0.26174808012E+04  0.26177385606E+04  0.00000000000E+00 0. -1.
         22    1    3    3    0    0  0.14752414639E+02  0.60668458344E+02  0.11926453643E+03  0.13461918595E+03  0.00000000000E+00 0. -1.
         22    1    3    3    0    0  0.36015859465E+02 -0.39478685340E+02  0.35206448921E+03  0.35609705600E+03  0.00000000000E+00 0. -1.
</event>
<event>
 7    1  0.6999029E-005  0.1869976E+03  0.7818608E-02  0.1180992E+00
          2   -1    0    0  502    0  0.00000000000E+00  0.00000000000E+00  0.47939858103E+03  0.47939858103E+03  0.00000000000E+00 0. -1.
          1   -1    0    0  501    0 -0.00000000000E+00 -0.00000000000E+00 -0.47393719092E+03  0.47393719092E+03  0.00000000000E+00 0. -1.
         25    2    1    2    0    0  0.15999054121E+03 -0.25509881114E+03 -0.12233751045E+03  0.34822989832E+03  0.12500087558E+03 0.  0.
          2    1    1    2  501    0 -0.12520897957E+03  0.81094584769E+02 -0.18973380296E+03  0.24135562191E+03  0.00000000000E+00 0. -1.
          1    1    1    2  502    0 -0.34781561643E+02  0.17400422637E+03  0.31753270352E+03  0.36375025172E+03  0.00000000000E+00 0. -1.
         22    1    3    3    0    0  0.10581650385E+03 -0.22520951534E+03 -0.13782209121E+03  0.28444926984E+03  0.00000000000E+00 0. -1.
         22    1    3    3    0    0  0.54174037363E+02 -0.29889295799E+02  0.15484580760E+02  0.63780628477E+02  0.00000000000E+00 0. -1.
</event>
<event>
 7    1  0.6999029E-005  0.2543735E+03  0.7818608E-02  0.1160783E+00
          2   -1    0    0  502    0  0.00000000000E+00  0.00000000000E+00  0.39163386157E+03  0.39163386157E+03  0.00000000000E+00 0. -1.
          1   -1    0    0  501    0 -0.00000000000E+00 -0.00000000000E+00 -0.92758391018E+03  0.92758391018E+03  0.00000000000E+00 0. -1.
         25    2    1    2    0    0  0.50289955240E+02  0.12869807657E+03  0.21940343239E+03  0.28784690125E+03  0.12500279158E+03 0.  0.
          2    1    1    2  501    0 -0.16394248059E+03 -0.20720557662E+03 -0.83231477912E+03  0.87324634524E+03  0.00000000000E+00 0. -1.
          1    1    1    2  502    0  0.11365252535E+03  0.78507500051E+02  0.76961298123E+02  0.15812452527E+03  0.00000000000E+00 0. -1.
         22    1    3    3    0    0  0.67002183906E+02  0.14310878074E+03  0.21232500648E+03  0.26467210686E+03  0.00000000000E+00 0. -1.
         22    1    3    3    0    0 -0.16712228666E+02 -0.14410704168E+02  0.70784259087E+01  0.23174794389E+02  0.00000000000E+00 0. -1.
</event>
<event>
 7    1  0.6999029E-005  0.5727318E+02  0.7818608E-02  0.1441733E+00
          2   -1    0    0  502    0  0.00000000000E+00  0.00000000000E+00  0.85292287183E+03  0.85292287183E+03  0.00000000000E+00 0. -1.
          1   -1    0    0  501    0 -0.00000000000E+00 -0.00000000000E+00 -0.95524847881E+03  0.95524847881E+03  0.00000000000E+00 0. -1.
         25    2    1    2    0    0  0.88143408619E+02 -0.51135587135E+02 -0.47434520691E+03  0.50101154467E+03  0.12500033528E+03 0.  0.
          2    1    1    2  501    0 -0.39953085169E+02  0.20350534756E+02 -0.46551799289E+03  0.46767231582E+03  0.00000000000E+00 0. -1.
          1    1    1    2  502    0 -0.48190323450E+02  0.30785052379E+02  0.83753759282E+03  0.83948749014E+03  0.00000000000E+00 0. -1.
         22    1    3    3    0    0  0.50945710394E+02  0.17716013946E+02 -0.34970505894E+03  0.35384028997E+03  0.00000000000E+00 0.  1.
         22    1    3    3    0    0  0.37197698224E+02 -0.68851601081E+02 -0.12464014797E+03  0.14717125470E+03  0.00000000000E+00 0.  1.
</event>
<event>
 7    1  0.6999029E-005  0.4328809E+03  0.7818608E-02  0.1120879E+00
          2   -1    0    0  502    0  0.00000000000E+00  0.00000000000E+00  0.37577832063E+04  0.37577832063E+04  0.00000000000E+00 0. -1.
          1   -1    0    0  501    0 -0.00000000000E+00 -0.00000000000E+00 -0.22533097478E+04  0.22533097478E+04  0.00000000000E+00 0. -1.
         25    2    1    2    0    0  0.35318005539E+03 -0.13447778756E+03 -0.81831528931E+03  0.90999172461E+03  0.12499839709E+03 0.  0.
          2    1    1    2  501    0 -0.47797014052E+03  0.93751260961E+02 -0.13452502487E+04  0.14307141524E+04  0.00000000000E+00 0. -1.
          1    1    1    2  502    0  0.12479008513E+03  0.40726526597E+02  0.36680389965E+04  0.36703870770E+04  0.00000000000E+00 0. -1.
         22    1    3    3    0    0  0.12527001271E+03 -0.11166894057E+03 -0.38108532335E+03  0.41639951014E+03  0.00000000000E+00 0. -1.
         22    1    3    3    0    0  0.22791004268E+03 -0.22808846987E+02 -0.43722996596E+03  0.49359221447E+03  0.00000000000E+00 0. -1.
</event>
<event>
 7    1  0.6999029E-005  0.3844920E+03  0.7818608E-02  0.1186832E+00
          2   -1    0    0  502    0  0.00000000000E+00  0.00000000000E+00  0.41818452013E+03  0.41818452013E+03  0.00000000000E+00 0. -1.
          1   -1    0    0  501    0 -0.00000000000E+00 -0.00000000000E+00 -0.64487219991E+03  0.64487219991E+03  0.00000000000E+00 0. -1.
         25    2    1    2    0    0  0.99892389395E+02  0.34541866193E+03  0.40736487268E+02  0.38285316104E+03  0.12499816020E+03 0.  0.
          2    1    1    2  501    0 -0.22517485080E+02  0.64134815216E+02 -0.25426886002E+03  0.26319757756E+03  0.00000000000E+00 0. -1.
          1    1    1    2  502    0 -0.77374904314E+02 -0.40955347714E+03 -0.13155307033E+02  0.41700598145E+03  0.00000000000E+00 0. -1.
         22    1    3    3    0    0  0.11492609476E+02  0.10996092725E+03 -0.41729869702E+02  0.11817304100E+03  0.00000000000E+00 0.  1.
         22    1    3    3    0    0  0.88399779918E+02  0.23545773468E+03  0.82466356971E+02  0.26468012003E+03  0.00000000000E+00 0.  1.
</event>
<event>
 7    1  0.6999029E-005  0.1354339E+03  0.7818608E-02  0.1291338E+00
          2   -1    0    0  502    0  0.00000000000E+00  0.00000000000E+00  0.44696629907E+03  0.44696629907E+03  0.00000000000E+00 0. -1.
          1   -1    0    0  501    0 -0.00000000000E+00 -0.00000000000E+00 -0.27234667073E+03  0.27234667073E+03  0.00000000000E+00 0. -1.
         25    2    1    2    0    0  0.13174680781E+03 -0.25789657961E+01 -0.20125011598E+03  0.27109275187E+03  0.12500319395E+03 0.  0.
          2    1    1    2  501    0 -0.15851501812E+03  0.63493601558E+02  0.21810524685E+03  0.27699882149E+03  0.00000000000E+00 0. -1.
          1    1    1    2  502    0  0.26768210302E+02 -0.60914635762E+02  0.15776449748E+03  0.17122139644E+03  0.00000000000E+00 0. -1.
         22    1    3    3    0    0  0.76623855627E+01  0.42543960563E+02 -0.22116370861E+02  0.48557538992E+02  0.00000000000E+00 0.  1.
         22    1    3    3    0    0  0.12408442225E+03 -0.45122926359E+02 -0.17913374512E+03  0.22253521288E+03  0.00000000000E+00 0.  1.
</event>
<event>
 7    1  0.6999029E-005  0.7022945E+02  0.7818608E-02  0.1386738E+00
          2   -1    0    0  502    0  0.00000000000E+00  0.00000000000E+00  0.26736829021E+04  0.26736829021E+04  0.00000000000E+00 0. -1.
          1   -1    0    0  501    0 -0.00000000000E+00 -0.00000000000E+00 -0.37122483919E+02  0.37122483919E+02  0.00000000000E+00 0. -1.
         25    2    1    2    0    0 -0.55262076027E+02  0.52809628743E+02  0.15594044194E+03  0.21397279884E+03  0.12499673307E+03 0.  0.
          2    1    1    2  501    0  0.36934142264E+01 -0.74701366820E+02  0.17230122636E+03  0.18783409732E+03  0.00000000000E+00 0. -1.
          1    1    1    2  502    0  0.51568661800E+02  0.21891738077E+02  0.23083187499E+04  0.23089984899E+04  0.00000000000E+00 0. -1.
         22    1    3    3    0    0 -0.48173252337E+02 -0.15954016407E+02  0.13099607831E+03  0.14048190422E+03  0.00000000000E+00 0. -1.
         22    1    3    3    0    0 -0.70888236897E+01  0.68763645150E+02  0.24944363628E+02  0.73490894623E+02  0.00000000000E+00 0. -1.
</event>
<event>
 7    1  0.6999029E-005  0.2747400E+03  0.7818608E-02  0.1256065E+00
          2   -1    0    0  502    0  0.00000000000E+00  0.00000000000E+00  0.20445472222E+04  0.20445472222E+04  0.00000000000E+00 0. -1.
          1   -1    0    0  501    0 -0.00000000000E+00 -0.00000000000E+00 -0.33129996598E+03  0.33129996598E+03  0.00000000000E+00 0. -1.
         25    2    1    2    0    0 -0.69501788471E+02 -0.22673641853E+03  0.32260628283E+03  0.41945070842E+03  0.12499672390E+03 0.  0.
          2    1    1    2  501    0  0.93833345352E+02  0.26582250920E+03 -0.21223479210E+03  0.35285961809E+03  0.00000000000E+00 0. -1.
          1    1    1    2  502    0 -0.24331556881E+02 -0.39086090670E+02  0.16028757654E+04  0.16035368616E+04  0.00000000000E+00 0. -1.
         22    1    3    3    0    0  0.28779657264E+01 -0.16377426271E+03  0.15064572195E+03  0.22254083975E+03  0.00000000000E+00 0.  1.
         22    1    3    3    0    0 -0.72379754198E+02 -0.62962155820E+02  0.17196056088E+03  0.19690986868E+03  0.00000000000E+00 0.  1.
</event>
<event>
 7    1  0.6999029E-005  0.1102598E+03  0.7818608E-02  0.1393749E+00
          2   -1    0    0  502    0  0.00000000000E+00  0.00000000000E+00  0.11361220988E+04  0.11361220988E+04  0.00000000000E+00 0. -1.
          1   -1    0    0  501    0 -0.00000000000E+00 -0.00000000000E+00 -0.13039881922E+03  0.13039881922E+03  0.00000000000E+00 0. -1.
         25    2    1    2    0    0  0.10227206515E+02  0.13745013752E+03  0.44631857766E+03  0.48355322496E+03  0.12500525008E+03 0.  0.
          2    1    1    2  501    0  0.25299243947E+00 -0.33728672172E+02 -0.10507701604E+03  0.11035790244E+03  0.00000000000E+00 0. -1.
          1    1    1    2  502    0 -0.10480198954E+02 -0.10372146535E+03  0.66448171792E+03  0.67260979059E+03  0.00000000000E+00 0. -1.
         22    1    3    3    0    0  0.23739115493E+02  0.11245123276E+03  0.16660988060E+03  0.20240473727E+03  0.00000000000E+00 0. -1.
         22    1    3    3    0    0 -0.13511908978E+02  0.24998904759E+02  0.27970869705E+03  0.28114848769E+03  0.00000000000E+00 0. -1.
</event>
<event>
 7    1  0.6999029E-005  0.7531188E+03  0.7818608E-02  0.1000592E+00
          2   -1    0    0  502    0  0.00000000000E+00  0.00000000000E+00  0.23370667076E+04  0.23370667076E+04  0.00000000000E+00 0. -1.
          1   -1    0    0  501    0 -0.00000000000E+00 -0.00000000000E+00 -0.20957591603E+04  0.20957591603E+04  0.00000000000E+00 0. -1.
         25    2    1    2    0    0 -0.66171179687E+03  0.43823101997E+03  0.99664410639E+03  0.12801690946E+04  0.12499802749E+03 0.  0.
          2    1    1    2  501    0  0.33359185224E+03 -0.67971594680E+03 -0.18423146625E+04  0.19918384994E+04  0.00000000000E+00 0. -1.
          1    1    1    2  502    0  0.32811994463E+03  0.24148492683E+03  0.10869781033E+04  0.11608182739E+04  0.00000000000E+00 0. -1.
         22    1    3    3    0    0 -0.28057021909E+03  0.26041938747E+03  0.46644134376E+03  0.60341149507E+03  0.00000000000E+00 0. -1.
         22    1    3    3    0    0 -0.38114157779E+03  0.17781163249E+03  0.53020276263E+03  0.67675759949E+03  0.00000000000E+00 0. -1.
</event>
<event>
 7    1  0.6999029E-005  0.2262560E+03  0.7818608E-02  0.1287396E+00
          2   -1    0    0  502    0  0.00000000000E+00  0.00000000000E+00  0.20237114194E+04  0.20237114194E+04  0.00000000000E+00 0. -1.
          1   -1    0    0  501    0 -0.00000000000E+00 -0.00000000000E+00 -0.19705167474E+03  0.19705167474E+03  0.00000000000E+00 0. -1.
         25    2    1    2    0    0 -0.18787712002E+03 -0.11656018061E+03  0.16272962817E+04  0.16469979757E+04  0.12500022238E+03 0.  0.
          2    1    1    2  501    0 -0.50011478129E+01 -0.41023792014E+02 -0.14386822670E+03  0.14968643774E+03  0.00000000000E+00 0. -1.
          1    1    1    2  502    0  0.19287826784E+03  0.15758397263E+03  0.34323168969E+03  0.42407868072E+03  0.00000000000E+00 0. -1.
         22    1    3    3    0    0 -0.56798121484E+02  0.24101403735E+02  0.40365238274E+03  0.40834072826E+03  0.00000000000E+00 0. -1.
         22    1    3    3    0    0 -0.13107899854E+03 -0.14066158435E+03  0.12236438989E+04  0.12386572474E+04  0.00000000000E+00 0. -1.
</event>
<event>
 7    1  0.6999029E-005  0.6024509E+03  0.7818608E-02  0.1112295E+00
          2   -1    0    0  502    0  0.00000000000E+00  0.00000000000E+00  0.12801621210E+04  0.12801621210E+04  0.00000000000E+00 0. -1.
          1   -1    0    0  501    0 -0.00000000000E+00 -0.00000000000E+00 -0.16044985432E+04  0.16044985432E+04  0.00000000000E+00 0. -1.
         25    2    1    2    0    0 -0.53583889902E+03  0.13114169573E+03  0.13807044701E+03  0.58224534879E+03  0.12499891115E+03 0.  0.
          2    1    1    2  501    0 -0.88229158979E+02 -0.57071026199E+02 -0.12726704601E+04  0.12770010128E+04  0.00000000000E+00 0. -1.
          1    1    1    2  502    0  0.62406805800E+03 -0.74070669532E+02  0.81026359092E+03  0.10254143025E+04  0.00000000000E+00 0. -1.
         22    1    3    3    0    0 -0.34746789814E+02 -0.21271358814E+02  0.19809492197E+02  0.45301502064E+02  0.00000000000E+00 0. -1.
         22    1    3    3    0    0 -0.50109210921E+03  0.15241305455E+03  0.11826095481E+03  0.53694384673E+03  0.00000000000E+00 0. -1.
</event>
<event>
 7    1  0.6999029E-005  0.5061338E+02  0.7818608E-02  0.1507972E+00
          2   -1    0    0  502    0  0.00000000000E+00  0.00000000000E+00  0.21035805212E+03  0.21035805212E+03  0.00000000000E+00 0. -1.
          1   -1    0    0  501    0 -0.00000000000E+00 -0.00000000000E+00 -0.72778019533E+02  0.72778019533E+02  0.00000000000E+00 0. -1.
         25    2    1    2    0    0 -0.67763468846E+02 -0.66362213408E+01  0.33229596422E+02  0.14621243267E+03  0.12505175827E+03 0.  0.
          2    1    1    2  501    0  0.25514729338E+02 -0.18750607298E+02  0.15354757330E+02  0.35190272234E+02  0.00000000000E+00 0. -1.
          1    1    1    2  502    0  0.42248739508E+02  0.25386828639E+02  0.88995678838E+02  0.10173336675E+03  0.00000000000E+00 0. -1.
         22    1    3    3    0    0  0.59017520929E+01  0.42622392935E+02  0.38084666027E+02  0.57462516858E+02  0.00000000000E+00 0.  1.
         22    1    3    3    0    0 -0.73665220939E+02 -0.49258614276E+02 -0.48550696054E+01  0.88749915815E+02  0.00000000000E+00 0.  1.
</event>
<event>
 7    1  0.6999029E-005  0.8927297E+02  0.7818608E-02  0.1350377E+00
          2   -1    0    0  502    0  0.00000000000E+00  0.00000000000E+00  0.65666602541E+02  0.65666602541E+02  0.00000000000E+00 0. -1.
          1   -1    0    0  501    0 -0.00000000000E+00 -0.00000000000E+00 -0.20098141956E+04  0.20098141956E+04  0.00000000000E+00 0. -1.
         25    2    1    2    0    0  0.50648518326E+02  0.44824206919E+01 -0.45663540081E+03  0.47615764762E+03  0.12499940641E+03 0.  0.
          2    1    1    2  501    0  0.20345565275E+02  0.56011543569E+02 -0.15035087592E+04  0.15046892783E+04  0.00000000000E+00 0. -1.
          1    1    1    2  502    0 -0.70994083601E+02 -0.60493964261E+02  0.15996567011E+02  0.94633872237E+02  0.00000000000E+00 0. -1.
         22    1    3    3    0    0  0.65624891890E+02  0.36736104025E+02 -0.41335801483E+03  0.42014404220E+03  0.00000000000E+00 0. -1.
         22    1    3    3    0    0 -0.14976373564E+02 -0.32253683333E+02 -0.43277385984E+02  0.56013605412E+02  0.00000000000E+00 0. -1.
</event>
<event>
 7    1  0.6999029E-005  0.3736124E+03  0.7818608E-02  0.1172374E+00
          2   -1    0    0  502    0  0.00000000000E+00  0.00000000000E+00  0.12024981591E+04  0.12024981591E+04  0.00000000000E+00 0. -1.
          1   -1    0    0  501    0 -0.00000000000E+00 -0.00000000000E+00 -0.13069065434E+04  0.13069065434E+04  0.00000000000E+00 0. -1.
         25    2    1    2    0    0  0.38606467660E+03  0.18109602029E+03 -0.33244560357E+02  0.44561481438E+03  0.12500263563E+03 0.  0.
          2    1    1    2  501    0 -0.79726446786E+02  0.20439929149E+02 -0.10320435833E+04  0.10353202668E+04  0.00000000000E+00 0. -1.
          1    1    1    2  502    0 -0.30633822981E+03 -0.20153594944E+03  0.96087975938E+03  0.10284696213E+04  0.00000000000E+00 0. -1.
         22    1    3    3    0    0  0.37417888474E+03  0.14171661405E+03 -0.14416283923E+02  0.40037640506E+03  0.00000000000E+00 0. -1.
         22    1    3    3    0    0  0.11885791857E+02  0.39379406244E+02 -0.18828276434E+02  0.45238409319E+02  0.00000000000E+00 0. -1.
</event>
<event>
 7    1  0.6999029E-005  0.5973725E+03  0.7818608E-02  0.1191249E+00
          2   -1    0    0  502    0  0.00000000000E+00  0.00000000000E+00  0.71443572200E+03  0.71443572200E+03  0.00000000000E+00 0. -1.
          1   -1    0    0  501    0 -0.00000000000E+00 -0.00000000000E+00 -0.16537125973E+04  0.16537125973E+04  0.00000000000E+00 0. -1.
         25    2    1    2    0    0  0.20121194399E+03  0.53745109477E+03 -0.48332009180E+03  0.76063361191E+03  0.12500101902E+03 0.  0.
          2    1    1    2  501    0 -0.20062493375E+03 -0.57910972918E+03 -0.93974523051E+03  0.11219356224E+04  0.00000000000E+00 0. -1.
          1    1    1    2  502    0 -0.58701024258E+00  0.41658634409E+02  0.48378844699E+03  0.48557908505E+03  0.00000000000E+00 0. -1.
         22    1    3    3    0    0  0.12121233395E+02  0.26270459321E+02 -0.72663732658E+02  0.78211759830E+02  0.00000000000E+00 0. -1.
         22    1    3    3    0    0  0.18909071059E+03  0.51118063545E+03 -0.41065635914E+03  0.68242185208E+03  0.00000000000E+00 0. -1.
</event>
<event>
 7    1  0.6999029E-005  0.2347667E+03  0.7818608E-02  0.1211875E+00
          2   -1    0    0  502    0  0.00000000000E+00  0.00000000000E+00  0.53657528878E+03  0.53657528878E+03  0.00000000000E+00 0. -1.
          1   -1    0    0  501    0 -0.00000000000E+00 -0.00000000000E+00 -0.56275066734E+03  0.56275066734E+03  0.00000000000E+00 0. -1.
         25    2    1    2    0    0  0.37580510916E+02  0.17183109414E+03  0.23139642284E+02  0.21700172592E+03  0.12496434010E+03 0.  0.
          2    1    1    2  501    0  0.32963441115E+02  0.78117171156E+02 -0.42068860943E+03  0.42914774494E+03  0.00000000000E+00 0. -1.
          1    1    1    2  502    0 -0.70543952031E+02 -0.24994826529E+03  0.37137358858E+03  0.45317648526E+03  0.00000000000E+00 0. -1.
         22    1    3    3    0    0  0.60766553630E+02  0.16398944867E+03 -0.10728706228E+02  0.17521477807E+03  0.00000000000E+00 0. -1.
         22    1    3    3    0    0 -0.23186042714E+02  0.78416454644E+01  0.33868348513E+02  0.41786947858E+02  0.00000000000E+00 0. -1.
</event>
<event>
 7    1  0.6999029E-005  0.1759322E+03  0.7818608E-02  0.1229952E+00
          2   -1    0    0  502    0  0.00000000000E+00  0.00000000000E+00  0.34861727738E+03  0.34861727738E+03  0.00000000000E+00 0. -1.
          1   -1    0    0  501    0 -0.00000000000E+00 -0.00000000000E+00 -0.13776462783E+04  0.13776462783E+04  0.00000000000E+00 0. -1.
         25    2    1    2    0    0  0.20742558344E+03 -0.14345221314E+03 -0.23105630832E+03  0.36416445982E+03  0.12499930425E+03 0.  0.
          2    1    1    2  501    0 -0.15554180776E+03  0.65536154614E+02 -0.10654386195E+04  0.10787250314E+04  0.00000000000E+00 0. -1.
          1    1    1    2  502    0 -0.51883775685E+02  0.77916058522E+02  0.26746592688E+03  0.28337406444E+03  0.00000000000E+00 0. -1.
         22    1    3    3    0    0  0.65745865050E+02 -0.31748985440E+02 -0.25983779598E+01  0.73056611034E+02  0.00000000000E+00 0. -1.
         22    1    3    3    0    0  0.14167971839E+03 -0.11170322770E+03 -0.22845793036E+03  0.29110784878E+03  0.00000000000E+00 0. -1.
</event>
<event>
 7    1  0.6999029E-005  0.1323342E+03  0.7818608E-02  0.1240045E+00
          2   -1    0    0  502    0  0.00000000000E+00  0.00000000000E+00  0.22586903689E+04  0.22586903689E+04  0.00000000000E+00 0. -1.
          1   -1    0    0  501    0 -0.00000000000E+00 -0.00000000000E+00 -0.82243994595E+03  0.82243994595E+03  0.00000000000E+00 0. -1.
         25    2    1    2    0    0  0.20788047220E+02  0.22970080492E+03  0.59095904784E+03  0.64656292027E+03  0.12496563908E+03 0.  0.
          2    1    1    2  501    0  0.16394980879E+02 -0.11102771296E+03 -0.78829996049E+03  0.79624919225E+03  0.00000000000E+00 0. -1.
          1    1    1    2  502    0 -0.37183028099E+02 -0.11867309196E+03  0.16335913356E+04  0.16383182023E+04  0.00000000000E+00 0. -1.
         22    1    3    3    0    0 -0.45978021256E+02  0.40773073144E+02  0.12256710732E+03  0.13710987466E+03  0.00000000000E+00 0. -1.
         22    1    3    3    0    0  0.66766068475E+02  0.18892773178E+03  0.46839194052E+03  0.50945304561E+03  0.00000000000E+00 0. -1.
</event>
<event>
 7    1  0.6999029E-005  0.2789080E+03  0.7818608E-02  0.1215730E+00
          2   -1    0    0  502    0  0.00000000000E+00  0.00000000000E+00  0.67442607318E+03  0.67442607318E+03  0.00000000000E+00 0. -1.
          1   -1    0    0  501    0 -0.00000000000E+00 -0.00000000000E+00 -0.61572381479E+03  0.61572381479E+03  0.00000000000E+00 0. -1.
         25    2    1    2    0    0  0.22404400895E+03  0.24164958641E+03 -0.11104418408E+03  0.36952095636E+03  0.12499874323E+03 0.  0.
          2    1    1    2  501    0 -0.17795153092E+03 -0.19096452580E+03 -0.32743724863E+03  0.41874735732E+03  0.00000000000E+00 0. -1.
          1    1    1    2  502    0 -0.46092478032E+02 -0.50685060611E+02  0.49718369111E+03  0.50188157428E+03  0.00000000000E+00 0. -1.
         22    1    3    3    0    0  0.18865542646E+03  0.20542494738E+03 -0.39241278103E+02  0.28165609677E+03  0.00000000000E+00 0. -1.
         22    1    3    3    0    0  0.35388582493E+02  0.36224639026E+02 -0.71802905979E+02  0.87864859589E+02  0.00000000000E+00 0. -1.
</event>
<event>
 7    1  0.6999029E-005  0.3978414E+03  0.7818608E-02  0.1092031E+00
          2   -1    0    0  502    0  0.00000000000E+00  0.00000000000E+00  0.15999772608E+04  0.15999772608E+04  0.00000000000E+00 0. -1.
          1   -1    0    0  501    0 -0.00000000000E+00 -0.00000000000E+00 -0.12012612172E+04  0.12012612172E+04  0.00000000000E+00 0. -1.
         25    2    1    2    0    0  0.27111460028E+02 -0.43852573139E+03  0.99273335939E+03  0.10927873134E+04  0.12499896421E+03 0.  0.
          2    1    1    2  501    0  0.16507101817E+03  0.36228572908E+03 -0.10957261491E+04  0.11658109557E+04  0.00000000000E+00 0. -1.
          1    1    1    2  502    0 -0.19218247820E+03  0.76240002307E+02  0.50170883336E+03  0.54264020893E+03  0.00000000000E+00 0. -1.
         22    1    3    3    0    0  0.44412366680E+02 -0.24501504660E+03  0.68501591298E+03  0.72887010668E+03  0.00000000000E+00 0.  1.
         22    1    3    3    0    0 -0.17300906651E+02 -0.19351068479E+03  0.30771744641E+03  0.36391720668E+03  0.00000000000E+00 0.  1.
</event>
<event>
 7    1  0.6999029E-005  0.1216727E+04  0.7818608E-02  0.1062479E+00
          2   -1    0    0  502    0  0.00000000000E+00  0.00000000000E+00  0.14907215637E+04  0.14907215637E+04  0.00000000000E+00 0. -1.
          1   -1    0    0  501    0 -0.00000000000E+00 -0.00000000000E+00 -0.12707003785E+04  0.12707003785E+04  0.00000000000E+00 0. -1.
         25    2    1    2    0    0 -0.11825514799E+04 -0.41112116273E+03 -0.38132658130E+03  0.13147182550E+04  0.12500206189E+03 0.  0.
          2    1    1    2  501    0  0.78072711608E+02 -0.63871741485E+02 -0.33231068859E+01  0.10092566917E+03  0.00000000000E+00 0. -1.
          1    1    1    2  502    0  0.11044787683E+04  0.47499290421E+03  0.60467087346E+03  0.13457780180E+04  0.00000000000E+00 0. -1.
         22    1    3    3    0    0 -0.35147615396E+03 -0.12347474329E+03 -0.54467372761E+02  0.37649461315E+03  0.00000000000E+00 0. -1.
         22    1    3    3    0    0 -0.83107532590E+03 -0.28764641944E+03 -0.32685920854E+03  0.93822364186E+03  0.00000000000E+00 0. -1.
</event>
<event>
 7    1  0.9413441E-005  0.5665491E+02  0.7818608E-02  0.1473122E+00
          2   -1    0    0  502    0  0.00000000000E+00  0.00000000000E+00  0.19314617316E+04  0.19314617316E+04  0.00000000000E+00 0. -1.
          1   -1    0    0  501    0 -0.00000000000E+00 -0.00000000000E+00 -0.23356018669E+04  0.23356018669E+04  0.00000000000E+00 0. -1.
         25    2    1    2    0    0 -0.24669196951E+02 -0.63633099960E+02 -0.55798879440E+03  0.57587707255E+03  0.12500066931E+03 0.  0.
          2    1    1    2  501    0  0.35165061156E+02  0.79598892362E+01 -0.17680677259E+04  0.17684353041E+04  0.00000000000E+00 0. -1.
          1    1    1    2  502    0 -0.10495864205E+02  0.55673210724E+02  0.19219163851E+04  0.19227512218E+04  0.00000000000E+00 0. -1.
         22    1    3    3    0    0 -0.59458608309E+02  0.85735190079E+01 -0.29011449031E+03  0.29626887926E+03  0.00000000000E+00 0. -1.
         22    1    3    3    0    0  0.34789411358E+02 -0.72206618968E+02 -0.26787430409E+03  0.27960819329E+03  0.00000000000E+00 0. -1.
</event>
<event>
 7    1  0.6999029E-005  0.4101271E+02  0.7818608E-02  0.1529688E+00
          2   -1    0    0  502    0  0.00000000000E+00  0.00000000000E+00  0.11708503981E+04  0.11708503981E+04  0.00000000000E+00 0. -1.
          1   -1    0    0  501    0 -0.00000000000E+00 -0.00000000000E+00 -0.23167278846E+02  0.23167278846E+02  0.00000000000E+00 0. -1.
         25    2    1    2    0    0 -0.16228437265E+02  0.67486706640E+02  0.29549197179E+03  0.32826487328E+03  0.12499801555E+03 0.  0.
          2    1    1    2  501    0  0.13508281590E+02 -0.33809852003E+02  0.45132546755E+02  0.57987296372E+02  0.00000000000E+00 0. -1.
          1    1    1    2  502    0  0.27201556758E+01 -0.33676854638E+02  0.80705860074E+03  0.80776550731E+03  0.00000000000E+00 0. -1.
         22    1    3    3    0    0  0.36823327809E+02  0.18391207296E+02  0.24725326845E+02  0.48015994880E+02  0.00000000000E+00 0.  1.
         22    1    3    3    0    0 -0.53051765074E+02  0.49095499344E+02  0.27076664494E+03  0.28024887840E+03  0.00000000000E+00 0.  1.
</event>
<event>
 7    1  0.6999029E-005  0.1416466E+03  0.7818608E-02  0.1260960E+00
          2   -1    0    0  502    0  0.00000000000E+00  0.00000000000E+00  0.20012237087E+04  0.20012237087E+04  0.00000000000E+00 0. -1.
          1   -1    0    0  501    0 -0.00000000000E+00 -0.00000000000E+00 -0.47275423551E+03  0.47275423551E+03  0.00000000000E+00 0. -1.
         25    2    1    2    0    0 -0.64296816309E+02 -0.20995017170E+03  0.73603188502E+03  0.77819058980E+03  0.12499801241E+03 0.  0.
          2    1    1    2  501    0  0.16406812562E+02  0.13960689512E+03 -0.43923442520E+03  0.46117908555E+03  0.00000000000E+00 0. -1.
          1    1    1    2  502    0  0.47890003747E+02  0.70343276580E+02  0.12316720134E+04  0.12346082689E+04  0.00000000000E+00 0. -1.
         22    1    3    3    0    0 -0.56219697455E+02 -0.21558533860E+03  0.73530287191E+03  0.76831504348E+03  0.00000000000E+00 0.  1.
         22    1    3    3    0    0 -0.80771188541E+01  0.56351668981E+01  0.72901310533E+00  0.98755463170E+01  0.00000000000E+00 0.  1.
</event>
<event>
 7    1  0.6999029E-005  0.5933428E+03  0.7818608E-02  0.1025737E+00
          2   -1    0    0  502    0  0.00000000000E+00  0.00000000000E+00  0.36893495379E+04  0.36893495379E+04  0.00000000000E+00 0. -1.
          1   -1    0    0  501    0 -0.00000000000E+00 -0.00000000000E+00 -0.15972867999E+04  0.15972867999E+04  0.00000000000E+00 0. -1.
         25    2    1    2    0    0 -0.62309318918E+02 -0.79685925455E+03  0.11681285686E+04  0.14209190880E+04  0.12497831487E+03 0.  0.
          2    1    1    2  501    0  0.22533267576E+03  0.26984624999E+03 -0.14173614011E+04  0.14603099516E+04  0.00000000000E+00 0. -1.
          1    1    1    2  502    0 -0.16302335684E+03  0.52701300456E+03  0.23412955705E+04  0.24054072982E+04  0.00000000000E+00 0. -1.
         22    1    3    3    0    0 -0.69905141955E+02 -0.67952676379E+03  0.10607997329E+04  0.12617208189E+04  0.00000000000E+00 0. -1.
         22    1    3    3    0    0  0.75958230370E+01 -0.11733249076E+03  0.10732883566E+03  0.15919826909E+03  0.00000000000E+00 0. -1.
</event>
<event>
 7    1  0.6999029E-005  0.9352867E+02  0.7818608E-02  0.1434302E+00
          2   -1    0    0  502    0  0.00000000000E+00  0.00000000000E+00  0.17515884911E+03  0.17515884911E+03  0.00000000000E+00 0. -1.
          1   -1    0    0  501    0 -0.00000000000E+00 -0.00000000000E+00 -0.23501737892E+03  0.23501737892E+03  0.00000000000E+00 0. -1.
         25    2    1    2    0    0  0.72151783811E+02  0.10448503330E+02 -0.55229357549E+02  0.15488388129E+03  0.12499473437E+03 0.  0.
          2    1    1    2  501    0 -0.10093695216E+03 -0.14203488138E+02 -0.10765484031E+03  0.14825509107E+03  0.00000000000E+00 0. -1.
          1    1    1    2  502    0  0.28785168345E+02  0.37549848075E+01  0.10302566805E+03  0.10703725568E+03  0.00000000000E+00 0. -1.
         22    1    3    3    0    0  0.66210211493E+01 -0.43021552398E+02  0.13852721142E+02  0.45679205059E+02  0.00000000000E+00 0. -1.
         22    1    3    3    0    0  0.65530762662E+02  0.53470055728E+02 -0.69082078691E+02  0.10920467623E+03  0.00000000000E+00 0. -1.
</event>
<event>
 7    1  0.6999029E-005  0.7080129E+02  0.7818608E-02  0.1519634E+00
          2   -1    0    0  502    0  0.00000000000E+00  0.00000000000E+00  0.20525543672E+03  0.20525543672E+03  0.00000000000E+00 0. -1.
          1   -1    0    0  501    0 -0.00000000000E+00 -0.00000000000E+00 -0.52023804371E+03  0.52023804371E+03  0.00000000000E+00 0. -1.
         25    2    1    2    0    0 -0.81894722681E+02  0.20002278268E+02  0.83637309693E+02  0.17242947327E+03  0.12501954623E+03 0.  0.
          2    1    1    2  501    0  0.63703707487E+02 -0.30340387482E+02 -0.47175098119E+03  0.47699862653E+03  0.00000000000E+00 0. -1.
          1    1    1    2  502    0  0.18191015194E+02  0.10338109215E+02  0.73131064499E+02  0.76065380632E+02  0.00000000000E+00 0. -1.
         22    1    3    3    0    0 -0.11830007555E+02  0.11071492948E+02 -0.32606007449E+02  0.36409871692E+02  0.00000000000E+00 0. -1.
         22    1    3    3    0    0 -0.70064715126E+02  0.89307853199E+01  0.11624331714E+03  0.13601960157E+03  0.00000000000E+00 0. -1.
</event>
<event>
 7    1  0.6999029E-005  0.1914602E+03  0.7818608E-02  0.1209906E+00
          2   -1    0    0  502    0  0.00000000000E+00  0.00000000000E+00  0.10057841829E+04  0.10057841829E+04  0.00000000000E+00 0. -1.
          1   -1    0    0  501    0 -0.00000000000E+00 -0.00000000000E+00 -0.88168035407E+03  0.88168035407E+03  0.00000000000E+00 0. -1.
         25    2    1    2    0    0  0.15926158702E+03  0.24616655051E+03 -0.16852285766E+03  0.36053679429E+03  0.12499841116E+03 0.  0.
          2    1    1    2  501    0 -0.65648198259E+02 -0.83441939026E+02 -0.60277701821E+03  0.61205586086E+03  0.00000000000E+00 0. -1.
          1    1    1    2  502    0 -0.93613388764E+02 -0.16272461148E+03  0.89540370472E+03  0.91487188183E+03  0.00000000000E+00 0. -1.
         22    1    3    3    0    0  0.97913480586E+02  0.84123034832E+02 -0.12966257767E+03  0.18296480186E+03  0.00000000000E+00 0.  1.
         22    1    3    3    0    0  0.61348106436E+02  0.16204351567E+03 -0.38860279988E+02  0.17757199243E+03  0.00000000000E+00 0.  1.
</event>
<event>
 7    1  0.6999029E-005  0.2294825E+03  0.7818608E-02  0.1249302E+00
          2   -1    0    0  502    0  0.00000000000E+00  0.00000000000E+00  0.57799176494E+03  0.57799176494E+03  0.00000000000E+00 0. -1.
          1   -1    0    0  501    0 -0.00000000000E+00 -0.00000000000E+00 -0.48522426510E+03  0.48522426510E+03  0.00000000000E+00 0. -1.
         25    2    1    2    0    0 -0.18927937557E+03  0.94463378655E+02 -0.15894292441E+03  0.29263816038E+03  0.12499691104E+03 0.  0.
          2    1    1    2  501    0  0.19464635905E+03 -0.15317443701E+03 -0.19794896394E+03  0.31707003260E+03  0.00000000000E+00 0. -1.
          1    1    1    2  502    0 -0.53669834790E+01  0.58711058358E+02  0.44965938819E+03  0.45350783706E+03  0.00000000000E+00 0. -1.
         22    1    3    3    0    0 -0.10709564774E+03 -0.77149828206E+01 -0.10703522821E+03  0.15160982423E+03  0.00000000000E+00 0. -1.
         22    1    3    3    0    0 -0.82183727833E+02  0.10217836148E+03 -0.51907696207E+02  0.14102833616E+03  0.00000000000E+00 0. -1.
</event>
<event>
 7    1  0.6999029E-005  0.4123307E+03  0.7818608E-02  0.1208577E+00
          2   -1    0    0  502    0  0.00000000000E+00  0.00000000000E+00  0.32466156975E+04  0.32466156975E+04  0.00000000000E+00 0. -1.
          1   -1    0    0  501    0 -0.00000000000E+00 -0.00000000000E+00 -0.11381792686E+04  0.11381792686E+04  0.00000000000E+00 0. -1.
         25    2    1    2    0    0 -0.31728067938E+03 -0.25537955071E+03  0.17913515455E+04  0.18413180283E+04  0.12500390984E+03 0.  0.
          2    1    1    2  501    0  0.22964471488E+02 -0.44419629717E+02 -0.10817551400E+04  0.10829102703E+04  0.00000000000E+00 0. -1.
          1    1    1    2  502    0  0.29431620789E+03  0.29979918043E+03  0.13988400235E+04  0.14605666675E+04  0.00000000000E+00 0. -1.
         22    1    3    3    0    0 -0.18965828886E+02  0.71932112691E+01  0.20272831571E+03  0.20374055792E+03  0.00000000000E+00 0.  1.
         22    1    3    3    0    0 -0.29831485049E+03 -0.26257276198E+03  0.15886232298E+04  0.16375774704E+04  0.00000000000E+00 0.  1.
</event>
<event>
 7    1  0.6999029E-005  0.8511368E+03  0.7818608E-02  0.1181706E+00
          2   -1    0    0  502    0  0.00000000000E+00  0.00000000000E+00  0.18035538332E+04  0.18035538332E+04  0.00000000000E+00 0. -1.
          1   -1    0    0  501    0 -0.00000000000E+00 -0.00000000000E+00 -0.35510230739E+04  0.35510230739E+04  0.00000000000E+00 0. -1.
         25    2    1    2    0    0 -0.22412802151E+03  0.79240457496E+03  0.26148678634E+03  0.87300556364E+03  0.12499997709E+03 0.  0.
          2    1    1    2  501    0  0.22105314276E+03 -0.82477211210E+03 -0.31888683600E+04  0.33012111332E+04  0.00000000000E+00 0. -1.
          1    1    1    2  502    0  0.30748787589E+01  0.32367537141E+02  0.11799123330E+04  0.11803602103E+04  0.00000000000E+00 0. -1.
         22    1    3    3    0    0  0.15996826723E+02  0.61562159539E+02  0.22216367168E+02  0.67374809257E+02  0.00000000000E+00 0.  1.
         22    1    3    3    0    0 -0.24012484824E+03  0.73084241542E+03  0.23927041917E+03  0.80563075439E+03  0.00000000000E+00 0.  1.
</event>
<event>
 7    1  0.6999029E-005  0.8242562E+03  0.7818608E-02  0.1136613E+00
          2   -1    0    0  502    0  0.00000000000E+00  0.00000000000E+00  0.22478107102E+04  0.22478107102E+04  0.00000000000E+00 0. -1.
          1   -1    0    0  501    0 -0.00000000000E+00 -0.00000000000E+00 -0.12668638593E+04  0.12668638593E+04  0.00000000000E+00 0. -1.
         25    2    1    2    0    0 -0.79484008207E+03  0.27456658973E+03  0.17879175528E+03  0.86876290813E+03  0.12499972213E+03 0.  0.
          2    1    1    2  501    0  0.44198139086E+01 -0.56629189780E+02 -0.82336070007E+03  0.82531766145E+03  0.00000000000E+00 0. -1.
          1    1    1    2  502    0  0.79042026816E+03 -0.21793739995E+03  0.16255157957E+04  0.18205939999E+04  0.00000000000E+00 0. -1.
         22    1    3    3    0    0 -0.38414204229E+03  0.10044662341E+03  0.28649891784E+02  0.39808975007E+03  0.00000000000E+00 0.  1.
         22    1    3    3    0    0 -0.41069803977E+03  0.17411996632E+03  0.15014186349E+03  0.47067315806E+03  0.00000000000E+00 0.  1.
</event>
<event>
 7    1  0.6999029E-005  0.8631556E+03  0.7818608E-02  0.1214199E+00
          2   -1    0    0  502    0  0.00000000000E+00  0.00000000000E+00  0.51743854599E+03  0.51743854599E+03  0.00000000000E+00 0. -1.
          1   -1    0    0  501    0 -0.00000000000E+00 -0.00000000000E+00 -0.28768645581E+04  0.28768645581E+04  0.00000000000E+00 0. -1.
         25    2    1    2    0    0 -0.52132032680E+03 -0.70433675097E+03 -0.14893321786E+04  0.17325126551E+04  0.12499847909E+03 0.  0.
          2    1    1    2  501    0 -0.16982831381E+01  0.22434574394E+02 -0.79916913326E+03  0.79948577089E+03  0.00000000000E+00 0. -1.
          1    1    1    2  502    0  0.52301860993E+03  0.68190217657E+03 -0.70924700164E+02  0.86230467809E+03  0.00000000000E+00 0. -1.
         22    1    3    3    0    0 -0.48666257794E+03 -0.67540597535E+03 -0.13498813614E+04  0.15859361230E+04  0.00000000000E+00 0. -1.
         22    1    3    3    0    0 -0.34657748861E+02 -0.28930775620E+02 -0.13945081726E+03  0.14657653212E+03  0.00000000000E+00 0. -1.
</event>
<event>
 7    1  0.6999029E-005  0.6348547E+03  0.7818608E-02  0.1100699E+00
          2   -1    0    0  502    0  0.00000000000E+00  0.00000000000E+00  0.22561333897E+04  0.22561333897E+04  0.00000000000E+00 0. -1.
          1   -1    0    0  501    0 -0.00000000000E+00 -0.00000000000E+00 -0.11271714282E+04  0.11271714282E+04  0.00000000000E+00 0. -1.
         25    2    1    2    0    0 -0.54824998543E+03 -0.31908362232E+03  0.19866755935E+04  0.20892338289E+04  0.12500269343E+03 0.  0.
          2    1    1    2  501    0  0.54295837930E+02 -0.10216443276E+03 -0.57409327862E+03  0.58563529769E+03  0.00000000000E+00 0. -1.
          1    1    1    2  502    0  0.49395414750E+03  0.42124805508E+03 -0.28362035341E+03  0.70843569123E+03  0.00000000000E+00 0. -1.
         22    1    3    3    0    0 -0.12956893118E+03 -0.28666625242E+02  0.32051948438E+03  0.34690434301E+03  0.00000000000E+00 0.  1.
         22    1    3    3    0    0 -0.41868105425E+03 -0.29041699708E+03  0.16661561091E+04  0.17423294859E+04  0.00000000000E+00 0.  1.
</event>
<event>
 7    1  0.6999029E-005  0.1193336E+03  0.7818608E-02  0.1265909E+00
          2   -1    0    0  502    0  0.00000000000E+00  0.00000000000E+00  0.45747535277E+03  0.45747535277E+03  0.00000000000E+00 0. -1.
          1   -1    0    0  501    0 -0.00000000000E+00 -0.00000000000E+00 -0.69309500050E+03  0.69309500050E+03  0.00000000000E+00 0. -1.
         25    2    1    2    0    0 -0.16851929466E+03  0.38479445703E+02 -0.99952756594E+02  0.23557347464E+03  0.12499955196E+03 0.  0.
          2    1    1    2  501    0  0.82658883051E+02 -0.81953877240E+02 -0.51276557810E+03  0.52581124657E+03  0.00000000000E+00 0. -1.
          1    1    1    2  502    0  0.85860411614E+02  0.43474431537E+02  0.37709868697E+03  0.38918563205E+03  0.00000000000E+00 0. -1.
         22    1    3    3    0    0 -0.61885558754E+02  0.32796623134E+01  0.25669198671E+02  0.67078210527E+02  0.00000000000E+00 0.  1.
         22    1    3    3    0    0 -0.10663373591E+03  0.35199783389E+02 -0.12562195527E+03  0.16849526412E+03  0.00000000000E+00 0.  1.
</event>
<event>
 7    1  0.6999029E-005  0.1309709E+03  0.7818608E-02  0.1367246E+00
          2   -1    0    0  502    0  0.00000000000E+00  0.00000000000E+00  0.55022648435E+03  0.55022648435E+03  0.00000000000E+00 0. -1.
          1   -1    0    0  501    0 -0.00000000000E+00 -0.00000000000E+00 -0.85765859002E+02  0.85765859002E+02  0.00000000000E+00 0. -1.
         25    2    1    2    0    0 -0.63445035959E+02 -0.14343924215E+03  0.20826427755E+03  0.28913504624E+03  0.12499990754E+03 0.  0.
          2    1    1    2  501    0  0.21207496551E+02  0.28146708419E+02 -0.22843116853E+02  0.41997655796E+02  0.00000000000E+00 0. -1.
          1    1    1    2  502    0  0.42237539408E+02  0.11529253373E+03  0.27903946465E+03  0.30485964131E+03  0.00000000000E+00 0. -1.
         22    1    3    3    0    0 -0.85076207513E+02 -0.13813218821E+03  0.21158003642E+03  0.26661690553E+03  0.00000000000E+00 0.  1.
         22    1    3    3    0    0  0.21631171555E+02 -0.53070539369E+01 -0.33157588635E+01  0.22518140713E+02  0.00000000000E+00 0.  1.
</event>
<event>
 7    1  0.6999029E-005  0.1371492E+03  0.7818608E-02  0.1264978E+00
          2   -1    0    0  502    0  0.00000000000E+00  0.00000000000E+00  0.14651132246E+03  0.14651132246E+03  0.00000000000E+00 0. -1.
          1   -1    0    0  501    0 -0.00000000000E+00 -0.00000000000E+00 -0.34782595435E+03  0.34782595435E+03  0.00000000000E+00 0. -1.
         25    2    1    2    0    0 -0.13550735165E+03  0.11585814504E+03 -0.10209679821E+03  0.24048708878E+03  0.12499972617E+03 0.  0.
          2    1    1    2  501    0  0.38659195359E+02 -0.75138940824E+02  0.27852698742E+02  0.88972842156E+02  0.00000000000E+00 0. -1.
          1    1    1    2  502    0  0.96848156294E+02 -0.40719204217E+02 -0.12707053243E+03  0.16487734587E+03  0.00000000000E+00 0. -1.
         22    1    3    3    0    0 -0.13148266169E+03  0.14048753058E+03 -0.85791572961E+02  0.21067660184E+03  0.00000000000E+00 0.  1.
         22    1    3    3    0    0 -0.40246899642E+01 -0.24629385537E+02 -0.16305225248E+02  0.29810486941E+02  0.00000000000E+00 0.  1.
</event>
<event>
 7    1  0.6999029E-005  0.5888685E+03  0.7818608E-02  0.1181921E+00
          2   -1    0    0  502    0  0.00000000000E+00  0.00000000000E+00  0.19305142575E+04  0.19305142575E+04  0.00000000000E+00 0. -1.
          1   -1    0    0  501    0 -0.00000000000E+00 -0.00000000000E+00 -0.11775619389E+04  0.11775619389E+04  0.00000000000E+00 0. -1.
         25    2    1    2    0    0 -0.32089431221E+03  0.47591664672E+03  0.11644965356E+04  0.13042802277E+04  0.12499966611E+03 0.  0.
          2    1    1    2  501    0  0.29181005574E+03 -0.51268513505E+03 -0.10281741226E+04  0.11853865120E+04  0.00000000000E+00 0. -1.
          1    1    1    2  502    0  0.29084256477E+02  0.36768488331E+02  0.61662990561E+03  0.61840945675E+03  0.00000000000E+00 0. -1.
         22    1    3    3    0    0 -0.25166029039E+03  0.44401315379E+03  0.10354649330E+04  0.11544124956E+04  0.00000000000E+00 0.  1.
         22    1    3    3    0    0 -0.69234021821E+02  0.31903492934E+02  0.12903160266E+03  0.14986773210E+03  0.00000000000E+00 0.  1.
</event>
<event>
 7    1  0.6999029E-005  0.1886364E+03  0.7818608E-02  0.1276677E+00
          2   -1    0    0  502    0  0.00000000000E+00  0.00000000000E+00  0.45964403970E+03  0.45964403970E+03  0.00000000000E+00 0. -1.
          1   -1    0    0  501    0 -0.00000000000E+00 -0.00000000000E+00 -0.14846752360E+04  0.14846752360E+04  0.00000000000E+00 0. -1.
         25    2    1    2    0    0 -0.20026247016E+03  0.13004706028E+03  0.25456663422E+01  0.26953293875E+03  0.12499691921E+03 0.  0.
          2    1    1    2  501    0  0.16348781749E+03 -0.89318935839E+02 -0.13423754176E+04  0.13552409013E+04  0.00000000000E+00 0. -1.
          1    1    1    2  502    0  0.36774652670E+02 -0.40728124446E+02  0.31479855499E+03  0.31954543562E+03  0.00000000000E+00 0. -1.
         22    1    3    3    0    0 -0.29576296575E+02  0.89094186520E+02 -0.28717396684E+01  0.93918998501E+02  0.00000000000E+00 0.  1.
         22    1    3    3    0    0 -0.17068617358E+03  0.40952873765E+02  0.54174060106E+01  0.17561394025E+03  0.00000000000E+00 0.  1.
</event>
<event>
 7    1  0.6999029E-005  0.7687545E+02  0.7818608E-02  0.1355983E+00
          2   -1    0    0  502    0  0.00000000000E+00  0.00000000000E+00  0.14049923030E+04  0.14049923030E+04  0.00000000000E+00 0. -1.
          1   -1    0    0  501    0 -0.00000000000E+00 -0.00000000000E+00 -0.18581727671E+03  0.18581727671E+03  0.00000000000E+00 0. -1.
         25    2    1    2    0    0 -0.70187908524E+02  0.92248064874E+02  0.35580391773E+03  0.39453470812E+03  0.12500064025E+03 0.  0.
          2    1    1    2  501    0 -0.32988291697E+00 -0.65985505671E+02 -0.15847386478E+03  0.17166293019E+03  0.00000000000E+00 0. -1.
          1    1    1    2  502    0  0.70517791441E+02 -0.26262559203E+02  0.10218449734E+04  0.10246119414E+04  0.00000000000E+00 0. -1.
         22    1    3    3    0    0 -0.43481592406E+02 -0.32679516571E+01  0.27440412026E+02  0.51519943696E+02  0.00000000000E+00 0. -1.
         22    1    3    3    0    0 -0.26706316118E+02  0.95516016531E+02  0.32836350571E+03  0.34301476443E+03  0.00000000000E+00 0. -1.
</event>
<event>
 7    1  0.6999029E-005  0.7442404E+03  0.7818608E-02  0.1151215E+00
          2   -1    0    0  502    0  0.00000000000E+00  0.00000000000E+00  0.75608597104E+03  0.75608597104E+03  0.00000000000E+00 0. -1.
          1   -1    0    0  501    0 -0.00000000000E+00 -0.00000000000E+00 -0.13040465804E+04  0.13040465804E+04  0.00000000000E+00 0. -1.
         25    2    1    2    0    0 -0.68418145438E+02 -0.77363953910E+03 -0.41765962609E+03  0.89065371803E+03  0.12500121242E+03 0.  0.
          2    1    1    2  501    0  0.30612859160E+02  0.43038383673E+02 -0.38970795794E+03  0.39327057111E+03  0.00000000000E+00 0. -1.
          1    1    1    2  502    0  0.37805286278E+02  0.73060115542E+03  0.25940697467E+03  0.77620826231E+03  0.00000000000E+00 0. -1.
         22    1    3    3    0    0 -0.23504264615E+02 -0.17875632167E+03 -0.40289084831E+02  0.18474166652E+03  0.00000000000E+00 0.  1.
         22    1    3    3    0    0 -0.44913880823E+02 -0.59488321743E+03 -0.37737054125E+03  0.70591205152E+03  0.00000000000E+00 0.  1.
</event>
<event>
 7    1  0.6999029E-005  0.1062632E+03  0.7818608E-02  0.1420968E+00
          2   -1    0    0  502    0  0.00000000000E+00  0.00000000000E+00  0.65262385060E+03  0.65262385060E+03  0.00000000000E+00 0. -1.
          1   -1    0    0  501    0 -0.00000000000E+00 -0.00000000000E+00 -0.10480704039E+04  0.10480704039E+04  0.00000000000E+00 0. -1.
         25    2    1    2    0    0  0.10127277924E+03 -0.15927503662E+02 -0.18277858863E+03  0.24401297721E+03  0.12499783756E+03 0.  0.
          2    1    1    2  501    0  0.44692754149E+01  0.27922129621E+02 -0.82988014187E+03  0.83036177032E+03  0.00000000000E+00 0. -1.
          1    1    1    2  502    0 -0.10574205465E+03 -0.11994625959E+02  0.61721217718E+03  0.62631950699E+03  0.00000000000E+00 0. -1.
         22    1    3    3    0    0  0.40394167615E+02 -0.53876073664E+02 -0.15142621285E+03  0.16572331770E+03  0.00000000000E+00 0. -1.
         22    1    3    3    0    0  0.60878611622E+02  0.37948570002E+02 -0.31352375781E+02  0.78289659505E+02  0.00000000000E+00 0. -1.
</event>
<event>
 7    1  0.6999029E-005  0.1310826E+03  0.7818608E-02  0.1254464E+00
          2   -1    0    0  502    0  0.00000000000E+00  0.00000000000E+00  0.10983672243E+04  0.10983672243E+04  0.00000000000E+00 0. -1.
          1   -1    0    0  501    0 -0.00000000000E+00 -0.00000000000E+00 -0.10666820030E+04  0.10666820030E+04  0.00000000000E+00 0. -1.
         25    2    1    2    0    0 -0.63718037991E+02 -0.19511068365E+03  0.22169373978E+03  0.32695704127E+03  0.12499850135E+03 0.  0.
          2    1    1    2  501    0  0.84244074573E+02  0.99243026363E+02 -0.10069293868E+04  0.10153093284E+04  0.00000000000E+00 0. -1.
          1    1    1    2  502    0 -0.20526036582E+02  0.95867657283E+02  0.81692086825E+03  0.82278285767E+03  0.00000000000E+00 0. -1.
         22    1    3    3    0    0  0.28161592203E+02 -0.11344426353E+03  0.97500960935E+02  0.15221403873E+03  0.00000000000E+00 0. -1.
         22    1    3    3    0    0 -0.91879630195E+02 -0.81666420113E+02  0.12419277885E+03  0.17474300254E+03  0.00000000000E+00 0. -1.
</event>
<event>
 7    1  0.6999029E-005  0.1378926E+03  0.7818608E-02  0.1255592E+00
          2   -1    0    0  502    0  0.00000000000E+00  0.00000000000E+00  0.15591171931E+03  0.15591171931E+03  0.00000000000E+00 0. -1.
          1   -1    0    0  501    0 -0.00000000000E+00 -0.00000000000E+00 -0.15448161869E+04  0.15448161869E+04  0.00000000000E+00 0. -1.
         25    2    1    2    0    0  0.88150080332E+02 -0.29567301183E+02 -0.15544149823E+03  0.22007251549E+03  0.12500076296E+03 0.  0.
          2    1    1    2  501    0  0.59160516149E+02  0.70668307581E+02 -0.13074972145E+04  0.13107413713E+04  0.00000000000E+00 0. -1.
          1    1    1    2  502    0 -0.14731059648E+03 -0.41101006399E+02  0.74034245141E+02  0.16991401948E+03  0.00000000000E+00 0. -1.
         22    1    3    3    0    0  0.95762756741E+02 -0.58829734829E+02 -0.15285399128E+03  0.18972555423E+03  0.00000000000E+00 0. -1.
         22    1    3    3    0    0 -0.76126764084E+01  0.29262433647E+02 -0.25875069448E+01  0.30346961252E+02  0.00000000000E+00 0. -1.
</event>
<event>
 7    1  0.6999029E-005  0.1267744E+03  0.7818608E-02  0.1287290E+00
          2   -1    0    0  502    0  0.00000000000E+00  0.00000000000E+00  0.12320259566E+04  0.12320259566E+04  0.00000000000E+00 0. -1.
          1   -1    0    0  501    0 -0.00000000000E+00 -0.00000000000E+00 -0.42799137768E+03  0.42799137768E+03  0.00000000000E+00 0. -1.
         25    2    1    2    0    0 -0.14323855882E+03 -0.38085863261E+02 -0.18359826862E+03  0.26702208738E+03  0.12499861279E+03 0.  0.
          2    1    1    2  501    0  0.53237998353E+02 -0.51153904554E+02 -0.19244973308E+03  0.20612594738E+03  0.00000000000E+00 0. -1.
          1    1    1    2  502    0  0.90000560463E+02  0.89239767815E+02  0.11800825806E+04  0.11868692995E+04  0.00000000000E+00 0. -1.
         22    1    3    3    0    0 -0.10266916055E+03 -0.76501325611E+02 -0.84964559229E+02  0.15366322160E+03  0.00000000000E+00 0.  1.
         22    1    3    3    0    0 -0.40569398269E+02  0.38415462351E+02 -0.98633709389E+02  0.11335886578E+03  0.00000000000E+00 0.  1.
</event>
<event>
 7    1  0.6999029E-005  0.5684320E+03  0.7818608E-02  0.1214237E+00
          2   -1    0    0  502    0  0.00000000000E+00  0.00000000000E+00  0.10426400335E+04  0.10426400335E+04  0.00000000000E+00 0. -1.
          1   -1    0    0  501    0 -0.00000000000E+00 -0.00000000000E+00 -0.10468767356E+04  0.10468767356E+04  0.00000000000E+00 0. -1.
         25    2    1    2    0    0 -0.48623502751E+03 -0.31782520781E+03 -0.57255918285E+03  0.82515901272E+03  0.12500405476E+03 0.  0.
          2    1    1    2  501    0  0.46096928967E+03  0.29484952433E+03 -0.13224824681E+03  0.56295517299E+03  0.00000000000E+00 0. -1.
          1    1    1    2  502    0  0.25265737844E+02  0.22975683483E+02  0.70057072760E+03  0.70140258334E+03  0.00000000000E+00 0. -1.
         22    1    3    3    0    0 -0.31978571724E+03 -0.14526599907E+03 -0.38172526289E+03  0.51872853379E+03  0.00000000000E+00 0.  1.
         22    1    3    3    0    0 -0.16644931027E+03 -0.17255920874E+03 -0.19083391996E+03  0.30643047893E+03  0.00000000000E+00 0.  1.
</event>
<event>
 7    1  0.6999029E-005  0.1424219E+03  0.7818608E-02  0.1278196E+00
          2   -1    0    0  502    0  0.00000000000E+00  0.00000000000E+00  0.50104117073E+03  0.50104117073E+03  0.00000000000E+00 0. -1.
          1   -1    0    0  501    0 -0.00000000000E+00 -0.00000000000E+00 -0.22043786573E+03  0.22043786573E+03  0.00000000000E+00 0. -1.
         25    2    1    2    0    0 -0.14257930580E+03  0.12128444875E+03 -0.57188577081E+01  0.22515914852E+03  0.12500064351E+03 0.  0.
          2    1    1    2  501    0  0.13862647182E+02 -0.70278836787E+02 -0.78402983973E+02  0.10619941517E+03  0.00000000000E+00 0. -1.
          1    1    1    2  502    0  0.12871665861E+03 -0.51005611963E+02  0.36472514668E+03  0.39012047277E+03  0.00000000000E+00 0. -1.
         22    1    3    3    0    0 -0.15299281573E+03  0.13563620706E+03  0.48478725336E+01  0.20451768676E+03  0.00000000000E+00 0. -1.
         22    1    3    3    0    0  0.10413509930E+02 -0.14351758306E+02 -0.10566730242E+02  0.20641461759E+02  0.00000000000E+00 0. -1.
</event>
<event>
 7    1  0.6999029E-005  0.7308737E+02  0.7818608E-02  0.1355977E+00
          2   -1    0    0  502    0  0.00000000000E+00  0.00000000000E+00  0.46165202010E+03  0.46165202010E+03  0.00000000000E+00 0. -1.
          1   -1    0    0  501    0 -0.00000000000E+00 -0.00000000000E+00 -0.10872556827E+03  0.10872556827E+03  0.00000000000E+00 0. -1.
         25    2    1    2    0    0 -0.59404807612E+02 -0.52946228198E+02 -0.30115690904E+02  0.15120787460E+03  0.12499852900E+03 0.  0.
          2    1    1    2  501    0 -0.13304624802E+02  0.68122297322E+02  0.74540960288E+02  0.10185290960E+03  0.00000000000E+00 0. -1.
          1    1    1    2  502    0  0.72709432414E+02 -0.15176069124E+02  0.30850118245E+03  0.31731680417E+03  0.00000000000E+00 0. -1.
         22    1    3    3    0    0 -0.16148987826E+02  0.23353877547E+02  0.32714025093E+02  0.43317442700E+02  0.00000000000E+00 0.  1.
         22    1    3    3    0    0 -0.43255819786E+02 -0.76300105745E+02 -0.62829715998E+02  0.10789043189E+03  0.00000000000E+00 0.  1.
</event>
<event>
 7    1  0.6999029E-005  0.1024241E+04  0.7818608E-02  0.1144220E+00
          2   -1    0    0  502    0  0.00000000000E+00  0.00000000000E+00  0.33259936280E+04  0.33259936280E+04  0.00000000000E+00 0. -1.
          1   -1    0    0  501    0 -0.00000000000E+00 -0.00000000000E+00 -0.12590667423E+04  0.12590667423E+04  0.00000000000E+00 0. -1.
         25    2    1    2    0    0  0.29677503836E+03  0.96122807929E+03  0.75483649753E+02  0.10165415811E+04  0.12499664366E+03 0.  0.
          2    1    1    2  501    0 -0.27886045559E+02  0.31013475042E+02 -0.69284861995E+03  0.69410278585E+03  0.00000000000E+00 0. -1.
          1    1    1    2  502    0 -0.26888899280E+03 -0.99224155434E+03  0.26842918559E+04  0.28744160034E+04  0.00000000000E+00 0. -1.
         22    1    3    3    0    0 -0.13265610740E+01  0.18958685075E+02 -0.14854801996E+02  0.24121704882E+02  0.00000000000E+00 0.  1.
         22    1    3    3    0    0  0.29810159944E+03  0.94226939422E+03  0.90338451749E+02  0.99241987623E+03  0.00000000000E+00 0.  1.
</event>
<event>
 7    1  0.6999029E-005  0.3536019E+03  0.7818608E-02  0.1182685E+00
          2   -1    0    0  502    0  0.00000000000E+00  0.00000000000E+00  0.32640657880E+04  0.32640657880E+04  0.00000000000E+00 0. -1.
          1   -1    0    0  501    0 -0.00000000000E+00 -0.00000000000E+00 -0.19187651357E+03  0.19187651357E+03  0.00000000000E+00 0. -1.
         25    2    1    2    0    0 -0.29111501019E+03 -0.28996796143E+03  0.74718878417E+03  0.86182663272E+03  0.12499879147E+03 0.  0.
          2    1    1    2  501    0  0.72562026130E+02  0.26956411902E+02 -0.11039472524E+03  0.13482911829E+03  0.00000000000E+00 0. -1.
          1    1    1    2  502    0  0.21855298406E+03  0.26301154952E+03  0.24353952155E+04  0.24592865506E+04  0.00000000000E+00 0. -1.
         22    1    3    3    0    0 -0.14456837188E+03 -0.59640901030E+02  0.26331142088E+03  0.30625145810E+03  0.00000000000E+00 0. -1.
         22    1    3    3    0    0 -0.14654663831E+03 -0.23032706040E+03  0.48387736329E+03  0.55557517462E+03  0.00000000000E+00 0. -1.
</event>
<event>
 7    1  0.6999029E-005  0.1567150E+04  0.7818608E-02  0.1170367E+00
          2   -1    0    0  502    0  0.00000000000E+00  0.00000000000E+00  0.30878746630E+04  0.30878746630E+04  0.00000000000E+00 0. -1.
          1   -1    0    0  501    0 -0.00000000000E+00 -0.00000000000E+00 -0.16674163413E+04  0.16674163413E+04  0.00000000000E+00 0. -1.
         25    2    1    2    0    0 -0.10932547327E+04 -0.11259365478E+04  0.23700491085E+04  0.28452947407E+04  0.12502145786E+03 0.  0.
          2    1    1    2  501    0  0.20075947113E+02  0.83970837712E-01 -0.16813047221E+03  0.16932485461E+03  0.00000000000E+00 0. -1.
          1    1    1    2  502    0  0.10731787856E+04  0.11258525769E+04 -0.78146031461E+03  0.17406714090E+04  0.00000000000E+00 0. -1.
         22    1    3    3    0    0 -0.29539403664E+03 -0.29487308090E+03  0.53452450310E+03  0.67817712667E+03  0.00000000000E+00 0. -1.
         22    1    3    3    0    0 -0.79786069605E+03 -0.83106346685E+03  0.18355246054E+04  0.21671176140E+04  0.00000000000E+00 0. -1.
</event>
<event>
 7    1  0.6999029E-005  0.1297743E+03  0.7818608E-02  0.1409767E+00
          2   -1    0    0  502    0  0.00000000000E+00  0.00000000000E+00  0.16190124941E+04  0.16190124941E+04  0.00000000000E+00 0. -1.
          1   -1    0    0  501    0 -0.00000000000E+00 -0.00000000000E+00 -0.50678810738E+03  0.50678810738E+03  0.00000000000E+00 0. -1.
         25    2    1    2    0    0  0.41580035900E+02  0.12925024402E+03 -0.91070956439E+02  0.20580124982E+03  0.12500284139E+03 0.  0.
          2    1    1    2  501    0 -0.16363990117E+02 -0.12790084205E+03 -0.34664661386E+03  0.36985170065E+03  0.00000000000E+00 0. -1.
          1    1    1    2  502    0 -0.25216045782E+02 -0.13494019661E+01  0.15499419570E+04  0.15501476510E+04  0.00000000000E+00 0. -1.
         22    1    3    3    0    0  0.35135336169E+02  0.15436357331E+03 -0.82332603051E+02  0.17844120079E+03  0.00000000000E+00 0. -1.
         22    1    3    3    0    0  0.64446997302E+01 -0.25113329294E+02 -0.87383533884E+01  0.27360049027E+02  0.00000000000E+00 0. -1.
</event>
<event>
 7    1  0.6999029E-005  0.6326355E+03  0.7818608E-02  0.1019965E+00
          2   -1    0    0  502    0  0.00000000000E+00  0.00000000000E+00  0.11432267643E+04  0.11432267643E+04  0.00000000000E+00 0. -1.
          1   -1    0    0  501    0 -0.00000000000E+00 -0.00000000000E+00 -0.20842422828E+04  0.20842422828E+04  0.00000000000E+00 0. -1.
         25    2    1    2    0    0  0.92945754576E+03  0.21982774058E+03  0.12461087628E+03  0.97127154756E+03  0.12499993487E+03 0.  0.
          2    1    1    2  501    0 -0.59227127590E+03 -0.94745208303E+02 -0.15447528174E+04  0.16571129068E+04  0.00000000000E+00 0. -1.
          1    1    1    2  502    0 -0.33718626986E+03 -0.12508253228E+03  0.47912642264E+03  0.59908459281E+03  0.00000000000E+00 0. -1.
         22    1    3    3    0    0  0.36741331842E+03  0.15009276481E+03  0.50238187482E+02  0.40005532127E+03  0.00000000000E+00 0. -1.
         22    1    3    3    0    0  0.56204422734E+03  0.69734975770E+02  0.74372688794E+02  0.57121622629E+03  0.00000000000E+00 0. -1.
</event>
<event>
 7    1  0.6999029E-005  0.2659737E+03  0.7818608E-02  0.1254313E+00
          2   -1    0    0  502    0  0.00000000000E+00  0.00000000000E+00  0.87845854201E+03  0.87845854201E+03  0.00000000000E+00 0. -1.
          1   -1    0    0  501    0 -0.00000000000E+00 -0.00000000000E+00 -0.68340927045E+03  0.68340927045E+03  0.00000000000E+00 0. -1.
         25    2    1    2    0    0  0.75234654124E+02 -0.27142088076E+03 -0.47786001757E+03  0.56859937954E+03  0.12500204132E+03 0.  0.
          2    1    1    2  501    0 -0.77297051727E+02  0.22307403537E+03 -0.71974799574E+02  0.24681416336E+03  0.00000000000E+00 0. -1.
          1    1    1    2  502    0  0.20623976035E+01  0.48346845387E+02  0.74488408870E+03  0.74645426956E+03  0.00000000000E+00 0. -1.
         22    1    3    3    0    0  0.84412082735E+02 -0.13329692401E+03 -0.33157731672E+03  0.36720156130E+03  0.00000000000E+00 0. -1.
         22    1    3    3    0    0 -0.91774286114E+01 -0.13812395675E+03 -0.14628270085E+03  0.20139781824E+03  0.00000000000E+00 0. -1.
</event>
<event>
 7    1  0.6999029E-005  0.1180177E+04  0.7818608E-02  0.1159679E+00
          2   -1    0    0  502    0  0.00000000000E+00  0.00000000000E+00  0.20626021549E+04  0.20626021549E+04  0.00000000000E+00 0. -1.
          1   -1    0    0  501    0 -0.00000000000E+00 -0.00000000000E+00 -0.12825270842E+04  0.12825270842E+04  0.00000000000E+00 0. -1.
         25    2    1    2    0    0 -0.68989184965E+03 -0.98014226328E+03  0.90378262045E+03  0.15063457597E+04  0.12499960962E+03 0.  0.
          2    1    1    2  501    0  0.69116658791E+03  0.95001164602E+03 -0.62898130085E+03  0.13326105420E+04  0.00000000000E+00 0. -1.
          1    1    1    2  502    0 -0.12747382648E+01  0.30130617252E+02  0.50527375107E+03  0.50617293742E+03  0.00000000000E+00 0. -1.
         22    1    3    3    0    0 -0.41867294196E+03 -0.69389994181E+03  0.62479502200E+03  0.10233049307E+04  0.00000000000E+00 0.  1.
         22    1    3    3    0    0 -0.27121890769E+03 -0.28624232146E+03  0.27898759845E+03  0.48304082909E+03  0.00000000000E+00 0.  1.
</event>
<event>
 7    1  0.6999029E-005  0.1715865E+03  0.7818608E-02  0.1192926E+00
          2   -1    0    0  502    0  0.00000000000E+00  0.00000000000E+00  0.11684359611E+04  0.11684359611E+04  0.00000000000E+00 0. -1.
          1   -1    0    0  501    0 -0.00000000000E+00 -0.00000000000E+00 -0.15801113258E+04  0.15801113258E+04  0.00000000000E+00 0. -1.
         25    2    1    2    0    0  0.17666532196E+03 -0.13581200128E+03  0.65171481857E+03  0.70000859332E+03  0.12499716120E+03 0.  0.
          2    1    1    2  501    0 -0.37811313225E+02  0.16736692134E+03 -0.15408108536E+04  0.15503352761E+04  0.00000000000E+00 0. -1.
          1    1    1    2  502    0 -0.13885400874E+03 -0.31554920058E+02  0.47742067035E+03  0.49820341749E+03  0.00000000000E+00 0. -1.
         22    1    3    3    0    0  0.97396546322E+02 -0.23142412117E+01  0.20242755356E+03  0.22465163563E+03  0.00000000000E+00 0.  1.
         22    1    3    3    0    0  0.79268775642E+02 -0.13349776007E+03  0.44928726501E+03  0.47535695770E+03  0.00000000000E+00 0.  1.
</event>
<event>
 7    1  0.6999029E-005  0.1386977E+03  0.7818608E-02  0.1251925E+00
          2   -1    0    0  502    0  0.00000000000E+00  0.00000000000E+00  0.59002807517E+03  0.59002807517E+03  0.00000000000E+00 0. -1.
          1   -1    0    0  501    0 -0.00000000000E+00 -0.00000000000E+00 -0.11964676637E+04  0.11964676637E+04  0.00000000000E+00 0. -1.
         25    2    1    2    0    0 -0.14970457420E+02  0.19528908192E+03  0.74580181452E+02  0.24402893818E+03  0.12500391630E+03 0.  0.
          2    1    1    2  501    0 -0.51729099543E+02 -0.12760612228E+03 -0.11021657658E+04  0.11107333602E+04  0.00000000000E+00 0. -1.
          1    1    1    2  502    0  0.66699556962E+02 -0.67682959643E+02  0.42114599577E+03  0.43173344054E+03  0.00000000000E+00 0. -1.
         22    1    3    3    0    0  0.68919669399E+01  0.69768620467E+02 -0.32802337146E+02  0.77402538281E+02  0.00000000000E+00 0. -1.
         22    1    3    3    0    0 -0.21862424360E+02  0.12552046145E+03  0.10738251860E+03  0.16662639990E+03  0.00000000000E+00 0. -1.
</event>
<event>
 7    1  0.6999029E-005  0.2169810E+03  0.7818608E-02  0.1352540E+00
          2   -1    0    0  502    0  0.00000000000E+00  0.00000000000E+00  0.15095237915E+03  0.15095237915E+03  0.00000000000E+00 0. -1.
          1   -1    0    0  501    0 -0.00000000000E+00 -0.00000000000E+00 -0.14194746277E+04  0.14194746277E+04  0.00000000000E+00 0. -1.
         25    2    1    2    0    0 -0.95451497003E+02  0.21847986496E+03 -0.24352543844E+02  0.27030122101E+03  0.12500105606E+03 0.  0.
          2    1    1    2  501    0  0.92284978578E+02 -0.19461808192E+03 -0.12552725118E+04  0.12736176011E+04  0.00000000000E+00 0. -1.
          1    1    1    2  502    0  0.31665184248E+01 -0.23861783040E+02  0.11102807105E+02  0.26508184667E+02  0.00000000000E+00 0. -1.
         22    1    3    3    0    0 -0.44142056730E+02  0.25514389045E+02 -0.47008845703E+02  0.69349382081E+02  0.00000000000E+00 0.  1.
         22    1    3    3    0    0 -0.51309440273E+02  0.19296547591E+03  0.22656301859E+02  0.20095183893E+03  0.00000000000E+00 0.  1.
</event>
<event>
 7    1  0.7316964E-005  0.1003691E+03  0.7818608E-02  0.1402769E+00
          2   -1    0    0  502    0  0.00000000000E+00  0.00000000000E+00  0.16388177780E+04  0.16388177780E+04  0.00000000000E+00 0. -1.
          1   -1    0    0  501    0 -0.00000000000E+00 -0.00000000000E+00 -0.81603846847E+03  0.81603846847E+03  0.00000000000E+00 0. -1.
         25    2    1    2    0    0  0.92748065640E+02 -0.97164839687E+02 -0.52500688992E+03  0.55614796087E+03  0.12500044067E+03 0.  0.
          2    1    1    2  501    0 -0.27022558491E+02  0.21437225681E+02 -0.27282557754E+03  0.27499739830E+03  0.00000000000E+00 0. -1.
          1    1    1    2  502    0 -0.65725507149E+02  0.75727614006E+02  0.16206117770E+04  0.16237108873E+04  0.00000000000E+00 0. -1.
         22    1    3    3    0    0  0.11478145237E+03 -0.79773299393E+02 -0.31958055687E+03  0.34881269104E+03  0.00000000000E+00 0.  1.
         22    1    3    3    0    0 -0.22033386728E+02 -0.17391540294E+02 -0.20542633306E+03  0.20733526983E+03  0.00000000000E+00 0.  1.
</event>
<event>
 7    1  0.6999029E-005  0.7210933E+03  0.7818608E-02  0.1226849E+00
          2   -1    0    0  502    0  0.00000000000E+00  0.00000000000E+00  0.39045099263E+04  0.39045099263E+04  0.00000000000E+00 0. -1.
          1   -1    0    0  501    0 -0.00000000000E+00 -0.00000000000E+00 -0.22320252921E+03  0.22320252921E+03  0.00000000000E+00 0. -1.
         25    2    1    2    0    0 -0.52792584875E+03  0.49405877462E+03  0.59796939559E+03  0.94656799983E+03  0.12499522263E+03 0.  0.
          2    1    1    2  501    0  0.50660337963E+03 -0.50413784739E+03  0.25774127332E+04  0.26746697648E+04  0.00000000000E+00 0. -1.
          1    1    1    2  502    0  0.21322469123E+02  0.10079072771E+02  0.50592526826E+03  0.50647469084E+03  0.00000000000E+00 0. -1.
         22    1    3    3    0    0 -0.53350292981E+03  0.49253701430E+03  0.58524887061E+03  0.93259547883E+03  0.00000000000E+00 0. -1.
         22    1    3    3    0    0  0.55770810575E+01  0.15217603225E+01  0.12720524974E+02  0.13972521004E+02  0.00000000000E+00 0. -1.
</event>
<event>
 7    1  0.6999029E-005  0.2108051E+03  0.7818608E-02  0.1321547E+00
          2   -1    0    0  502    0  0.00000000000E+00  0.00000000000E+00  0.22527891071E+04  0.22527891071E+04  0.00000000000E+00 0. -1.
          1   -1    0    0  501    0 -0.00000000000E+00 -0.00000000000E+00 -0.95571312829E+03  0.95571312829E+03  0.00000000000E+00 0. -1.
         25    2    1    2    0    0  0.41087055067E+02  0.21647409456E+03  0.11973026443E+04  0.12238087095E+04  0.12499982260E+03 0.  0.
          2    1    1    2  501    0  0.23381004197E+02 -0.22497770057E+02 -0.93215264946E+03  0.93271720415E+03  0.00000000000E+00 0. -1.
          1    1    1    2  502    0 -0.64468059264E+02 -0.19397632450E+03  0.10319259840E+04  0.10519763218E+04  0.00000000000E+00 0. -1.
         22    1    3    3    0    0  0.55944349371E+02  0.22449997925E+03  0.11601945632E+04  0.11830390675E+04  0.00000000000E+00 0.  1.
         22    1    3    3    0    0 -0.14857294304E+02 -0.80258846958E+01  0.37108081124E+02  0.40769641940E+02  0.00000000000E+00 0.  1.
</event>
<event>
 7    1  0.6999029E-005  0.3549408E+03  0.7818608E-02  0.1179000E+00
          2   -1    0    0  502    0  0.00000000000E+00  0.00000000000E+00  0.92112755095E+03  0.92112755095E+03  0.00000000000E+00 0. -1.
          1   -1    0    0  501    0 -0.00000000000E+00 -0.00000000000E+00 -0.87223705231E+03  0.87223705231E+03  0.00000000000E+00 0. -1.
         25    2    1    2    0    0 -0.87822592207E+02 -0.41252834990E+03 -0.26410490502E+03  0.51309746247E+03  0.12500063185E+03 0.  0.
          2    1    1    2  501    0  0.44849384663E+02  0.66694260043E+02 -0.44172248425E+03  0.44897477069E+03  0.00000000000E+00 0. -1.
          1    1    1    2  502    0  0.42973207544E+02  0.34583408986E+03  0.75471788790E+03  0.83129237010E+03  0.00000000000E+00 0. -1.
         22    1    3    3    0    0 -0.27407592994E+02 -0.32329153705E+02  0.60238504103E+01  0.42809310982E+02  0.00000000000E+00 0. -1.
         22    1    3    3    0    0 -0.60414999213E+02 -0.38019919619E+03 -0.27012875543E+03  0.47028815148E+03  0.00000000000E+00 0. -1.
</event>
<event>
 7    1  0.6999029E-005  0.2654732E+03  0.7818608E-02  0.1195997E+00
          2   -1    0    0  502    0  0.00000000000E+00  0.00000000000E+00  0.50948007498E+03  0.50948007498E+03  0.00000000000E+00 0. -1.
          1   -1    0    0  501    0 -0.00000000000E+00 -0.00000000000E+00 -0.55659467959E+03  0.55659467959E+03  0.00000000000E+00 0. -1.
         25    2    1    2    0    0  0.13532721501E+02 -0.26770879637E+03  0.11126595609E+03  0.31600313053E+03  0.12500692507E+03 0.  0.
          2    1    1    2  501    0  0.87204604610E+02  0.17729670683E+02 -0.38672487457E+03  0.39683134062E+03  0.00000000000E+00 0. -1.
          1    1    1    2  502    0 -0.10073732611E+03  0.24997912569E+03  0.22834431387E+03  0.35324028342E+03  0.00000000000E+00 0. -1.
         22    1    3    3    0    0 -0.32313990616E+02 -0.23680785880E+03  0.10237158826E+03  0.26000403470E+03  0.00000000000E+00 0. -1.
         22    1    3    3    0    0  0.45846712117E+02 -0.30900937575E+02  0.88943678275E+01  0.55999095833E+02  0.00000000000E+00 0. -1.
</event>
<event>
 7    1  0.6999029E-005  0.2111495E+03  0.7818608E-02  0.1214141E+00
          2   -1    0    0  502    0  0.00000000000E+00  0.00000000000E+00  0.25895844975E+03  0.25895844975E+03  0.00000000000E+00 0. -1.
          1   -1    0    0  501    0 -0.00000000000E+00 -0.00000000000E+00 -0.40863809446E+03  0.40863809446E+03  0.00000000000E+00 0. -1.
         25    2    1    2    0    0  0.16220373447E+03  0.12147230236E+03 -0.12847404376E+03  0.27054741567E+03  0.12499900995E+03 0.  0.
          2    1    1    2  501    0 -0.22229675743E+03 -0.51771890001E+02 -0.12344623531E+03  0.25949017316E+03  0.00000000000E+00 0. -1.
          1    1    1    2  502    0  0.60093022958E+02 -0.69700412362E+02  0.10224063436E+03  0.13755895538E+03  0.00000000000E+00 0. -1.
         22    1    3    3    0    0  0.97042312578E+02  0.13768724866E+03 -0.10897349119E+03  0.20062455148E+03  0.00000000000E+00 0.  1.
         22    1    3    3    0    0  0.65161421890E+02 -0.16214946294E+02 -0.19500552562E+02  0.69922864188E+02  0.00000000000E+00 0.  1.
</event>
<event>
 7    1  0.6999029E-005  0.6794492E+03  0.7818608E-02  0.1052510E+00
          2   -1    0    0  502    0  0.00000000000E+00  0.00000000000E+00  0.19731839186E+04  0.19731839186E+04  0.00000000000E+00 0. -1.
          1   -1    0    0  501    0 -0.00000000000E+00 -0.00000000000E+00 -0.11108599083E+04  0.11108599083E+04  0.00000000000E+00 0. -1.
         25    2    1    2    0    0  0.43127793657E+03  0.47993908325E+03  0.13947644766E+04  0.15418608617E+04  0.12499915703E+03 0.  0.
          2    1    1    2  501    0  0.12545839824E+03  0.16567113990E+03 -0.64926165732E+03  0.68170920190E+03  0.00000000000E+00 0. -1.
          1    1    1    2  502    0 -0.55673633481E+03 -0.64561022315E+03  0.11682119105E+03  0.86047376335E+03  0.00000000000E+00 0. -1.
         22    1    3    3    0    0  0.41696641933E+03  0.40948646208E+03  0.12146840136E+04  0.13479604632E+04  0.00000000000E+00 0.  1.
         22    1    3    3    0    0  0.14311517233E+02  0.70452621174E+02  0.18008046304E+03  0.19390039847E+03  0.00000000000E+00 0.  1.
</event>
<event>
 7    1  0.6999029E-005  0.4139803E+03  0.7818608E-02  0.1135726E+00
          2   -1    0    0  502    0  0.00000000000E+00  0.00000000000E+00  0.49257033415E+03  0.49257033415E+03  0.00000000000E+00 0. -1.
          1   -1    0    0  501    0 -0.00000000000E+00 -0.00000000000E+00 -0.13596592116E+04  0.13596592116E+04  0.00000000000E+00 0. -1.
         25    2    1    2    0    0 -0.44995485624E+03  0.20108461140E+03 -0.72143246926E+02  0.51354143361E+03  0.12500304943E+03 0.  0.
          2    1    1    2  501    0  0.33686701716E+03 -0.21782295918E+03 -0.10146211928E+04  0.10910464672E+04  0.00000000000E+00 0. -1.
          1    1    1    2  502    0  0.11308783908E+03  0.16738347783E+02  0.21967556227E+03  0.24764164490E+03  0.00000000000E+00 0. -1.
         22    1    3    3    0    0 -0.17649083057E+02 -0.16502011296E+02  0.36362111419E+00  0.24164824226E+02  0.00000000000E+00 0. -1.
         22    1    3    3    0    0 -0.43230577318E+03  0.21758662270E+03 -0.72506868040E+02  0.48937660938E+03  0.00000000000E+00 0. -1.
</event>
<event>
 7    1  0.6999029E-005  0.2578908E+03  0.7818608E-02  0.1249066E+00
          2   -1    0    0  502    0  0.00000000000E+00  0.00000000000E+00  0.29729741753E+03  0.29729741753E+03  0.00000000000E+00 0. -1.
          1   -1    0    0  501    0 -0.00000000000E+00 -0.00000000000E+00 -0.30577509647E+03  0.30577509647E+03  0.00000000000E+00 0. -1.
         25    2    1    2    0    0  0.19980041257E+03  0.17451882062E+03  0.19117689166E+02  0.29388172578E+03  0.12499583630E+03 0.  0.
          2    1    1    2  501    0 -0.15487567959E+03 -0.20185006825E+03 -0.13645208148E+02  0.25478641621E+03  0.00000000000E+00 0. -1.
          1    1    1    2  502    0 -0.44924732987E+02  0.27331247632E+02 -0.13950159954E+02  0.54404372010E+02  0.00000000000E+00 0. -1.
         22    1    3    3    0    0  0.57160833179E+02  0.13008631604E+03  0.25430568653E+02  0.14434862068E+03  0.00000000000E+00 0.  1.
         22    1    3    3    0    0  0.14263957939E+03  0.44432504579E+02 -0.63128794870E+01  0.14953310510E+03  0.00000000000E+00 0.  1.
</event>
<event>
 7    1  0.6999029E-005  0.2707423E+03  0.7818608E-02  0.1121712E+00
          2   -1    0    0  502    0  0.00000000000E+00  0.00000000000E+00  0.70069207158E+03  0.70069207158E+03  0.00000000000E+00 0. -1.
          1   -1    0    0  501    0 -0.00000000000E+00 -0.00000000000E+00 -0.13811290244E+04  0.13811290244E+04  0.00000000000E+00 0. -1.
         25    2    1    2    0    0  0.94758524571E+02  0.27669370523E+03 -0.12885417534E+03  0.34317378703E+03  0.12500506033E+03 0.  0.
          2    1    1    2  501    0 -0.24436168345E+03 -0.13260270392E+03 -0.11092463470E+04  0.11435574177E+04  0.00000000000E+00 0. -1.
          1    1    1    2  502    0  0.14960315888E+03 -0.14409100131E+03  0.55766356952E+03  0.59508989117E+03  0.00000000000E+00 0. -1.
         22    1    3    3    0    0  0.88436484070E+02  0.28852202605E+03 -0.11258483850E+03  0.32208898940E+03  0.00000000000E+00 0. -1.
         22    1    3    3    0    0  0.63220405013E+01 -0.11828320825E+02 -0.16269336848E+02  0.21084797630E+02  0.00000000000E+00 0. -1.
</event>
<event>
 7    1  0.6999029E-005  0.4072411E+03  0.7818608E-02  0.1094100E+00
          2   -1    0    0  502    0  0.00000000000E+00  0.00000000000E+00  0.53532711736E+03  0.53532711736E+03  0.00000000000E+00 0. -1.
          1   -1    0    0  501    0 -0.00000000000E+00 -0.00000000000E+00 -0.23855674742E+04  0.23855674742E+04  0.00000000000E+00 0. -1.
         25    2    1    2    0    0  0.48579469104E+03 -0.10501076352E+03 -0.32421155422E+03  0.60643431829E+03  0.12500283283E+03 0.  0.
          2    1    1    2  501    0 -0.97297231253E+02  0.17079217927E+03 -0.18151355709E+04  0.18257474800E+04  0.00000000000E+00 0. -1.
          1    1    1    2  502    0 -0.38849745978E+03 -0.65781415752E+02  0.28910676827E+03  0.48871279335E+03  0.00000000000E+00 0. -1.
         22    1    3    3    0    0  0.43243817025E+03 -0.12630284781E+03 -0.31117329835E+03  0.54752534376E+03  0.00000000000E+00 0.  1.
         22    1    3    3    0    0  0.53356520783E+02  0.21292084295E+02 -0.13038255875E+02  0.58908974528E+02  0.00000000000E+00 0.  1.
</event>
<event>
 7    1  0.6999029E-005  0.2536973E+03  0.7818608E-02  0.1159361E+00
          2   -1    0    0  502    0  0.00000000000E+00  0.00000000000E+00  0.11145469160E+04  0.11145469160E+04  0.00000000000E+00 0. -1.
          1   -1    0    0  501    0 -0.00000000000E+00 -0.00000000000E+00 -0.22775691072E+03  0.22775691072E+03  0.00000000000E+00 0. -1.
         25    2    1    2    0    0  0.29123969822E+03  0.14005921496E+03  0.71224385815E+01  0.34656632533E+03  0.12498137144E+03 0.  0.
          2    1    1    2  501    0 -0.15429730624E+03 -0.10728037890E+03  0.11964677948E+03  0.22278260760E+03  0.00000000000E+00 0. -1.
          1    1    1    2  502    0 -0.13694239198E+03 -0.32778836061E+02  0.76002078724E+03  0.77295489380E+03  0.00000000000E+00 0. -1.
         22    1    3    3    0    0  0.52862215769E+02  0.85522720327E+02 -0.12144378915E+02  0.10127208642E+03  0.00000000000E+00 0.  1.
         22    1    3    3    0    0  0.23837748245E+03  0.54536494634E+02  0.19266817496E+02  0.24529423891E+03  0.00000000000E+00 0.  1.
</event>
<event>
 7    1  0.6999029E-005  0.4326847E+03  0.7818608E-02  0.1107335E+00
          2   -1    0    0  502    0  0.00000000000E+00  0.00000000000E+00  0.19545531286E+04  0.19545531286E+04  0.00000000000E+00 0. -1.
          1   -1    0    0  501    0 -0.00000000000E+00 -0.00000000000E+00 -0.12112917147E+04  0.12112917147E+04  0.00000000000E+00 0. -1.
         25    2    1    2    0    0 -0.44317296445E+03  0.35847602872E+02 -0.14080033126E+03  0.48284284814E+03  0.12500062267E+03 0.  0.
          2    1    1    2  501    0  0.39479195737E+03 -0.18399826569E+03 -0.84302486042E+03  0.94889776407E+03  0.00000000000E+00 0. -1.
          1    1    1    2  502    0  0.48381007081E+02  0.14815066282E+03  0.17270866057E+04  0.17341042311E+04  0.00000000000E+00 0. -1.
         22    1    3    3    0    0 -0.18175472291E+03  0.67753873087E+02 -0.93263558766E+02  0.21522885033E+03  0.00000000000E+00 0.  1.
         22    1    3    3    0    0 -0.26141824154E+03 -0.31906270215E+02 -0.47536772495E+02  0.26761399782E+03  0.00000000000E+00 0.  1.
</event>
<event>
 7    1  0.6999029E-005  0.3061653E+03  0.7818608E-02  0.1174714E+00
          2   -1    0    0  502    0  0.00000000000E+00  0.00000000000E+00  0.45648032354E+03  0.45648032354E+03  0.00000000000E+00 0. -1.
          1   -1    0    0  501    0 -0.00000000000E+00 -0.00000000000E+00 -0.60221831046E+03  0.60221831046E+03  0.00000000000E+00 0. -1.
         25    2    1    2    0    0 -0.34643387412E+03  0.11719186626E+03  0.42667203868E+02  0.38883889235E+03  0.12499932504E+03 0.  0.
          2    1    1    2  501    0  0.72619391186E+02 -0.65506988909E+02 -0.33920462444E+03  0.35302198064E+03  0.00000000000E+00 0. -1.
          1    1    1    2  502    0  0.27381448294E+03 -0.51684877352E+02  0.15079943364E+03  0.31683776101E+03  0.00000000000E+00 0. -1.
         22    1    3    3    0    0 -0.34615141820E+03  0.13278632968E+03  0.43046857999E+02  0.37323725116E+03  0.00000000000E+00 0. -1.
         22    1    3    3    0    0 -0.28245592850E+00 -0.15594463419E+02 -0.37965413124E+00  0.15601641194E+02  0.00000000000E+00 0. -1.
</event>
<event>
 7    1  0.6999029E-005  0.8529162E+02  0.7818608E-02  0.1380855E+00
          2   -1    0    0  502    0  0.00000000000E+00  0.00000000000E+00  0.17035608272E+04  0.17035608272E+04  0.00000000000E+00 0. -1.
          1   -1    0    0  501    0 -0.00000000000E+00 -0.00000000000E+00 -0.13016359929E+03  0.13016359929E+03  0.00000000000E+00 0. -1.
         25    2    1    2    0    0 -0.51193714754E+02  0.12340627584E+01  0.12021672117E+04  0.12097332123E+04  0.12500448312E+03 0.  0.
          2    1    1    2  501    0  0.73563528801E+02 -0.44135754177E+02 -0.11046942030E+03  0.13986797484E+03  0.00000000000E+00 0. -1.
          1    1    1    2  502    0 -0.22369814047E+02  0.42901691419E+02  0.48169943656E+03  0.48412323936E+03  0.00000000000E+00 0. -1.
         22    1    3    3    0    0 -0.34762606378E+02  0.80137574208E+01  0.81988632472E+02  0.89413617335E+02  0.00000000000E+00 0. -1.
         22    1    3    3    0    0 -0.16431108376E+02 -0.67796946623E+01  0.11201785792E+04  0.11203195950E+04  0.00000000000E+00 0. -1.
</event>
<event>
 7    1  0.6999029E-005  0.9934814E+03  0.7818608E-02  0.1133821E+00
          2   -1    0    0  502    0  0.00000000000E+00  0.00000000000E+00  0.13228061821E+04  0.13228061821E+04  0.00000000000E+00 0. -1.
          1   -1    0    0  501    0 -0.00000000000E+00 -0.00000000000E+00 -0.42456551081E+04  0.42456551081E+04  0.00000000000E+00 0. -1.
         25    2    1    2    0    0  0.69935718693E+03 -0.68415742980E+03  0.43259400398E+03  0.10770030348E+04  0.12500440428E+03 0.  0.
          2    1    1    2  501    0  0.48714229474E+02 -0.19829055471E+01 -0.34696277986E+04  0.34699703268E+04  0.00000000000E+00 0. -1.
          1    1    1    2  502    0 -0.74807141640E+03  0.68614033535E+03  0.11418486864E+03  0.10214879285E+04  0.00000000000E+00 0. -1.
         22    1    3    3    0    0  0.43706312807E+03 -0.38208948696E+03  0.31257938618E+03  0.65933483650E+03  0.00000000000E+00 0.  1.
         22    1    3    3    0    0  0.26229405886E+03 -0.30206794284E+03  0.12001461779E+03  0.41766819832E+03  0.00000000000E+00 0.  1.
</event>
<event>
 7    1  0.6999029E-005  0.5557290E+03  0.7818608E-02  0.1077117E+00
          2   -1    0    0  502    0  0.00000000000E+00  0.00000000000E+00  0.16944336051E+04  0.16944336051E+04  0.00000000000E+00 0. -1.
          1   -1    0    0  501    0 -0.00000000000E+00 -0.00000000000E+00 -0.91106599184E+03  0.91106599184E+03  0.00000000000E+00 0. -1.
         25    2    1    2    0    0 -0.26049647413E+03 -0.49374383659E+03 -0.50807153004E+03  0.76511665549E+03  0.12500171061E+03 0.  0.
          2    1    1    2  501    0  0.41153558676E+03  0.39467289683E+03  0.35266502698E+02  0.57128973462E+03  0.00000000000E+00 0. -1.
          1    1    1    2  502    0 -0.15103911263E+03  0.99070939760E+02  0.12561726406E+04  0.12690932068E+04  0.00000000000E+00 0. -1.
         22    1    3    3    0    0 -0.63891774528E+02 -0.25264259481E+03 -0.24543857636E+03  0.35798119270E+03  0.00000000000E+00 0. -1.
         22    1    3    3    0    0 -0.19660469960E+03 -0.24110124178E+03 -0.26263295368E+03  0.40713546278E+03  0.00000000000E+00 0. -1.
</event>
<event>
 7    1  0.8061208E-005  0.1561461E+03  0.7818608E-02  0.1244277E+00
          2   -1    0    0  502    0  0.00000000000E+00  0.00000000000E+00  0.20877333136E+04  0.20877333136E+04  0.00000000000E+00 0. -1.
          1   -1    0    0  501    0 -0.00000000000E+00 -0.00000000000E+00 -0.12191347168E+04  0.12191347168E+04  0.00000000000E+00 0. -1.
         25    2    1    2    0    0 -0.67772524273E+02 -0.70462972527E+02 -0.11900394209E+03  0.19835745387E+03  0.12500238290E+03 0.  0.
          2    1    1    2  501    0  0.15776738829E+03  0.56126419303E+02 -0.10528201219E+04  0.10660539070E+04  0.00000000000E+00 0. -1.
          1    1    1    2  502    0 -0.89994864014E+02  0.14336553225E+02  0.20404226607E+04  0.20424566695E+04  0.00000000000E+00 0. -1.
         22    1    3    3    0    0 -0.55006275385E+02 -0.86665955028E+02 -0.29925141499E+02  0.10692142997E+03  0.00000000000E+00 0.  1.
         22    1    3    3    0    0 -0.12766248887E+02  0.16202982501E+02 -0.89078800589E+02  0.91436023902E+02  0.00000000000E+00 0.  1.
</event>
<event>
 7    1  0.6999029E-005  0.1915263E+03  0.7818608E-02  0.1246019E+00
          2   -1    0    0  502    0  0.00000000000E+00  0.00000000000E+00  0.15094671940E+04  0.15094671940E+04  0.00000000000E+00 0. -1.
          1   -1    0    0  501    0 -0.00000000000E+00 -0.00000000000E+00 -0.36602662890E+03  0.36602662890E+03  0.00000000000E+00 0. -1.
         25    2    1    2    0    0 -0.17339186110E+02 -0.25085816052E+03 -0.43505281744E+02  0.28416179310E+03  0.12499900417E+03 0.  0.
          2    1    1    2  501    0  0.37503227904E+02  0.62633929176E+02 -0.18890437079E+03  0.20252002985E+03  0.00000000000E+00 0. -1.
          1    1    1    2  502    0 -0.20164041794E+02  0.18822423135E+03  0.13758502177E+04  0.13888120000E+04  0.00000000000E+00 0. -1.
         22    1    3    3    0    0 -0.28194626032E+02 -0.97780117099E+02  0.40127897790E+02  0.10938983690E+03  0.00000000000E+00 0. -1.
         22    1    3    3    0    0  0.10855439922E+02 -0.15307804343E+03 -0.83633179534E+02  0.17477195620E+03  0.00000000000E+00 0. -1.
</event>
<event>
 7    1  0.6999029E-005  0.2294417E+03  0.7818608E-02  0.1264946E+00
          2   -1    0    0  502    0  0.00000000000E+00  0.00000000000E+00  0.20585043578E+03  0.20585043578E+03  0.00000000000E+00 0. -1.
          1   -1    0    0  501    0 -0.00000000000E+00 -0.00000000000E+00 -0.70057615987E+03  0.70057615987E+03  0.00000000000E+00 0. -1.
         25    2    1    2    0    0  0.37284586337E+02  0.20574609476E+03 -0.35005258711E+03  0.42647720919E+03  0.12499760129E+03 0.  0.
          2    1    1    2  501    0 -0.57148980443E+02 -0.25220371679E+03 -0.25215404974E+03  0.36118469725E+03  0.00000000000E+00 0. -1.
          1    1    1    2  502    0  0.19864394106E+02  0.46457622030E+02  0.10748091275E+03  0.11876468921E+03  0.00000000000E+00 0. -1.
         22    1    3    3    0    0  0.48367421717E+02  0.22008945183E+03 -0.32765278037E+03  0.39766206605E+03  0.00000000000E+00 0.  1.
         22    1    3    3    0    0 -0.11082835381E+02 -0.14343357073E+02 -0.22399806741E+02  0.28815143141E+02  0.00000000000E+00 0.  1.
</event>
<event>
 7    1  0.6999029E-005  0.1422961E+03  0.7818608E-02  0.1416608E+00
          2   -1    0    0  502    0  0.00000000000E+00  0.00000000000E+00  0.16754020730E+04  0.16754020730E+04  0.00000000000E+00 0. -1.
          1   -1    0    0  501    0 -0.00000000000E+00 -0.00000000000E+00 -0.21146567941E+03  0.21146567941E+03  0.00000000000E+00 0. -1.
         25    2    1    2    0    0  0.13055843716E+03  0.70140213118E+02  0.82918224086E+02  0.21086634615E+03  0.12499611610E+03 0.  0.
          2    1    1    2  501    0 -0.13266214727E+03 -0.48403412840E+02 -0.11359140835E+03  0.18123229223E+03  0.00000000000E+00 0. -1.
          1    1    1    2  502    0  0.21037101109E+01 -0.21736800277E+02  0.14946095778E+04  0.14947691140E+04  0.00000000000E+00 0. -1.
         22    1    3    3    0    0  0.75627167335E+02 -0.21458830900E+02  0.52168520420E+01  0.78785565987E+02  0.00000000000E+00 0. -1.
         22    1    3    3    0    0  0.54931269827E+02  0.91599044018E+02  0.77701372044E+02  0.13208078016E+03  0.00000000000E+00 0. -1.
</event>
<event>
 7    1  0.6999029E-005  0.1923487E+03  0.7818608E-02  0.1309551E+00
          2   -1    0    0  502    0  0.00000000000E+00  0.00000000000E+00  0.34793348833E+03  0.34793348833E+03  0.00000000000E+00 0. -1.
          1   -1    0    0  501    0 -0.00000000000E+00 -0.00000000000E+00 -0.19283308310E+04  0.19283308310E+04  0.00000000000E+00 0. -1.
         25    2    1    2    0    0 -0.12745168062E+03 -0.10401151007E+03  0.29897162352E+01  0.20663045809E+03  0.12499953075E+03 0.  0.
          2    1    1    2  501    0 -0.29285346760E+02 -0.26674729900E+02 -0.17834284430E+04  0.17838683203E+04  0.00000000000E+00 0. -1.
          1    1    1    2  502    0  0.15673702738E+03  0.13068623997E+03  0.20004138409E+03  0.28576554099E+03  0.00000000000E+00 0. -1.
         22    1    3    3    0    0 -0.10862961446E+03 -0.10058936935E+03  0.49688399035E+02  0.15616514131E+03  0.00000000000E+00 0.  1.
         22    1    3    3    0    0 -0.18822066159E+02 -0.34221407217E+01 -0.46698682800E+02  0.50465316772E+02  0.00000000000E+00 0.  1.
</event>
