<event>
 7    1  0.5970484E-006  0.3000856E+03  0.7818608E-02  0.1260034E+00
          2   -1    0    0  502    0  0.00000000000E+00  0.00000000000E+00  0.19478698330E+04  0.19478698330E+04  0.00000000000E+00 0. -1.
          1   -1    0    0  501    0 -0.00000000000E+00 -0.00000000000E+00 -0.13166785069E+04  0.13166785069E+04  0.00000000000E+00 0. -1.
         25    2    1    2    0    0 -0.19729541192E+03  0.27265959787E+03 -0.58394838258E+03  0.68548522138E+03  0.12500215734E+03 0.  0.
          2    1    1    2  501    0  0.95969200278E+01 -0.39382072112E+02 -0.66953097964E+03  0.67075687188E+03  0.00000000000E+00 0. -1.
          1    1    1    2  502    0  0.18769849190E+03 -0.23327752576E+03  0.18846706883E+04  0.19083062467E+04  0.00000000000E+00 0. -1.
         22    1    3    3    0    0 -0.19196827178E+03  0.18411405190E+03 -0.38829399590E+03  0.47066126750E+03  0.00000000000E+00 0. -1.
         22    1    3    3    0    0 -0.53271401456E+01  0.88545545967E+02 -0.19565438668E+03  0.21482395388E+03  0.00000000000E+00 0. -1.
</event>
<event>
 7    1  0.5970484E-006  0.4762713E+02  0.7818608E-02  0.1487306E+00
          2   -1    0    0  502    0  0.00000000000E+00  0.00000000000E+00  0.25182810953E+04  0.25182810953E+04  0.00000000000E+00 0. -1.
          1   -1    0    0  501    0 -0.00000000000E+00 -0.00000000000E+00 -0.25919349180E+02  0.25919349180E+02  0.00000000000E+00 0. -1.
         25    2    1    2    0    0 -0.15082652628E+02 -0.51361571770E+01  0.83714115729E+03  0.84657134367E+03  0.12499542465E+03 0.  0.
          2    1    1    2  501    0  0.44468820442E+02 -0.20201192280E+02  0.74563785181E+01  0.49408114127E+02  0.00000000000E+00 0. -1.
          1    1    1    2  502    0 -0.29386167814E+02  0.25337349457E+02  0.16477642103E+04  0.16482209867E+04  0.00000000000E+00 0. -1.
         22    1    3    3    0    0 -0.46540739078E+02  0.45958234983E+02  0.47755384004E+03  0.48201231301E+03  0.00000000000E+00 0. -1.
         22    1    3    3    0    0  0.31458086450E+02 -0.51094392160E+02  0.35958731725E+03  0.36455903066E+03  0.00000000000E+00 0. -1.
</event>
<event>
 7    1  0.5970484E-006  0.7173384E+02  0.7818608E-02  0.1464448E+00
          2   -1    0    0  502    0  0.00000000000E+00  0.00000000000E+00  0.60061467628E+03  0.60061467628E+03  0.00000000000E+00 0. -1.
          1   -1    0    0  501    0 -0.00000000000E+00 -0.00000000000E+00 -0.11336752734E+04  0.11336752734E+04  0.00000000000E+00 0. -1.
         25    2    1    2    0    0  0.40173016749E+02  0.15643371230E+02 -0.14391220364E+03  0.19543275136E+03  0.12499860643E+03 0.  0.
          2    1    1    2  501    0 -0.66875321603E+02 -0.29972711796E+02 -0.96220906099E+03  0.96499582857E+03  0.00000000000E+00 0. -1.
          1    1    1    2  502    0  0.26702304855E+02  0.14329340567E+02  0.57306066749E+03  0.57386136977E+03  0.00000000000E+00 0. -1.
         22    1    3    3    0    0  0.14548338149E+02  0.67558242728E+02 -0.10491103913E+03  0.12562681415E+03  0.00000000000E+00 0.  1.
         22    1    3    3    0    0  0.25624678599E+02 -0.51914871498E+02 -0.39001164509E+02  0.69805937205E+02  0.00000000000E+00 0.  1.
</event>
<event>
 7    1  0.5970484E-006  0.3830006E+02  0.7818608E-02  0.1562312E+00
          2   -1    0    0  502    0  0.00000000000E+00  0.00000000000E+00  0.92745782043E+03  0.92745782043E+03  0.00000000000E+00 0. -1.
          1   -1    0    0  501    0 -0.00000000000E+00 -0.00000000000E+00 -0.19493269039E+03  0.19493269039E+03  0.00000000000E+00 0. -1.
         25    2    1    2    0    0  0.16481667072E+01  0.22325201148E+02  0.71583854128E+03  0.72701574672E+03  0.12500379088E+03 0.  0.
          2    1    1    2  501    0 -0.20795571952E+02  0.20650002859E+02 -0.18549270160E+03  0.18779355894E+03  0.00000000000E+00 0. -1.
          1    1    1    2  502    0  0.19147405245E+02 -0.42975204007E+02  0.20217929036E+03  0.20758120516E+03  0.00000000000E+00 0. -1.
         22    1    3    3    0    0  0.14039857839E+02  0.59293248285E+02  0.18561341664E+03  0.19535902165E+03  0.00000000000E+00 0.  1.
         22    1    3    3    0    0 -0.12391691132E+02 -0.36968047137E+02  0.53022512464E+03  0.53165672508E+03  0.00000000000E+00 0.  1.
</event>
<event>
 7    1  0.5970484E-006  0.7722151E+02  0.7818608E-02  0.1485595E+00
          2   -1    0    0  502    0  0.00000000000E+00  0.00000000000E+00  0.10692021008E+03  0.10692021008E+03  0.00000000000E+00 0. -1.
          1   -1    0    0  501    0 -0.00000000000E+00 -0.00000000000E+00 -0.56118440993E+03  0.56118440993E+03  0.00000000000E+00 0. -1.
         25    2    1    2    0    0  0.87227898394E+02  0.19088906976E+00 -0.25617899114E+03  0.29809670258E+03  0.12500090355E+03 0.  0.
          2    1    1    2  501    0 -0.72776427187E+02 -0.19626267241E+02 -0.27720184572E+03  0.28726723097E+03  0.00000000000E+00 0. -1.
          1    1    1    2  502    0 -0.14451471208E+02  0.19435378171E+02  0.79116637009E+02  0.82740686463E+02  0.00000000000E+00 0. -1.
         22    1    3    3    0    0  0.11603053046E+02  0.48104815884E+02 -0.38405392468E+02  0.62639271403E+02  0.00000000000E+00 0.  1.
         22    1    3    3    0    0  0.75624845349E+02 -0.47913926814E+02 -0.21777359867E+03  0.23545743118E+03  0.00000000000E+00 0.  1.
</event>
<event>
 7    1  0.5970484E-006  0.5030514E+02  0.7818608E-02  0.1467076E+00
          2   -1    0    0  502    0  0.00000000000E+00  0.00000000000E+00  0.19597562182E+04  0.19597562182E+04  0.00000000000E+00 0. -1.
          1   -1    0    0  501    0 -0.00000000000E+00 -0.00000000000E+00 -0.16950149971E+03  0.16950149971E+03  0.00000000000E+00 0. -1.
         25    2    1    2    0    0 -0.52836786804E+02  0.48195521690E+02  0.10114598587E+04  0.10216607140E+04  0.12500013756E+03 0.  0.
          2    1    1    2  501    0  0.49928718447E+02 -0.58927388967E+01 -0.16006767860E+03  0.16777742110E+03  0.00000000000E+00 0. -1.
          1    1    1    2  502    0  0.29080683567E+01 -0.42302782793E+02  0.93886253834E+03  0.93981958279E+03  0.00000000000E+00 0. -1.
         22    1    3    3    0    0 -0.67417227988E+02  0.77964735914E+02  0.88290792937E+03  0.88890381619E+03  0.00000000000E+00 0. -1.
         22    1    3    3    0    0  0.14580441184E+02 -0.29769214224E+02  0.12855192935E+03  0.13275689783E+03  0.00000000000E+00 0. -1.
</event>
<event>
 7    1  0.5970484E-006  0.7255522E+02  0.7818608E-02  0.1393759E+00
          2   -1    0    0  502    0  0.00000000000E+00  0.00000000000E+00  0.11921115769E+04  0.11921115769E+04  0.00000000000E+00 0. -1.
          1   -1    0    0  501    0 -0.00000000000E+00 -0.00000000000E+00 -0.21563917603E+03  0.21563917603E+03  0.00000000000E+00 0. -1.
         25    2    1    2    0    0  0.88633693657E+02 -0.69974798901E+02  0.68305018199E+02  0.18177931574E+03  0.12500295992E+03 0.  0.
          2    1    1    2  501    0 -0.66175926213E+02  0.23903016436E+02 -0.15046273998E+03  0.16610130502E+03  0.00000000000E+00 0. -1.
          1    1    1    2  502    0 -0.22457767445E+02  0.46071782465E+02  0.10586301227E+04  0.10598701322E+04  0.00000000000E+00 0. -1.
         22    1    3    3    0    0  0.34086753475E+02 -0.41223808958E+01  0.87627041638E+02  0.94113756768E+02  0.00000000000E+00 0.  1.
         22    1    3    3    0    0  0.54546940182E+02 -0.65852418005E+02 -0.19322023439E+02  0.87665558974E+02  0.00000000000E+00 0.  1.
</event>
<event>
 7    1  0.5970484E-006  0.6381901E+02  0.7818608E-02  0.1516436E+00
          2   -1    0    0  502    0  0.00000000000E+00  0.00000000000E+00  0.53464275744E+02  0.53464275744E+02  0.00000000000E+00 0. -1.
          1   -1    0    0  501    0 -0.00000000000E+00 -0.00000000000E+00 -0.94102607442E+03  0.94102607442E+03  0.00000000000E+00 0. -1.
         25    2    1    2    0    0  0.51525688523E+02 -0.35013051362E+02 -0.44197629939E+03  0.46351835892E+03  0.12500163797E+03 0.  0.
          2    1    1    2  501    0 -0.63235584097E+02  0.14389824910E+02 -0.48264019812E+03  0.48697778902E+03  0.00000000000E+00 0. -1.
          1    1    1    2  502    0  0.11709895574E+02  0.20623226452E+02  0.37054698831E+02  0.43994202222E+02  0.00000000000E+00 0. -1.
         22    1    3    3    0    0  0.76662777965E+02  0.49315989565E+01 -0.15844804820E+03  0.17608885874E+03  0.00000000000E+00 0. -1.
         22    1    3    3    0    0 -0.25137089441E+02 -0.39944650319E+02 -0.28352825119E+03  0.28742950019E+03  0.00000000000E+00 0. -1.
</event>
<event>
 7    1  0.5970484E-006  0.1577332E+03  0.7818608E-02  0.1197749E+00
          2   -1    0    0  502    0  0.00000000000E+00  0.00000000000E+00  0.73071033409E+03  0.73071033409E+03  0.00000000000E+00 0. -1.
          1   -1    0    0  501    0 -0.00000000000E+00 -0.00000000000E+00 -0.30985579750E+03  0.30985579750E+03  0.00000000000E+00 0. -1.
         25    2    1    2    0    0 -0.15414771830E+03 -0.52527350845E+02 -0.63073198623E+02  0.21472939281E+03  0.12493935371E+03 0.  0.
          2    1    1    2  501    0  0.40403437671E+02  0.16180675568E+03 -0.11753820229E+03  0.20403208805E+03  0.00000000000E+00 0. -1.
          1    1    1    2  502    0  0.11374428063E+03 -0.10927940483E+03  0.60146593750E+03  0.62180465073E+03  0.00000000000E+00 0. -1.
         22    1    3    3    0    0 -0.65975486278E+02  0.20152915386E+02 -0.72499084807E+02  0.10007508224E+03  0.00000000000E+00 0. -1.
         22    1    3    3    0    0 -0.88172232026E+02 -0.72680266232E+02  0.94258861844E+01  0.11465431056E+03  0.00000000000E+00 0. -1.
</event>
<event>
 7    1  0.5970484E-006  0.1177593E+03  0.7818608E-02  0.1317308E+00
          2   -1    0    0  502    0  0.00000000000E+00  0.00000000000E+00  0.59487938700E+03  0.59487938700E+03  0.00000000000E+00 0. -1.
          1   -1    0    0  501    0 -0.00000000000E+00 -0.00000000000E+00 -0.35259542724E+03  0.35259542724E+03  0.00000000000E+00 0. -1.
         25    2    1    2    0    0  0.80581953109E+02  0.48692061896E+02 -0.88027331222E+02  0.17954880274E+03  0.12499837384E+03 0.  0.
          2    1    1    2  501    0 -0.13006599322E+03 -0.14182443206E+02 -0.19737515077E+03  0.23680214195E+03  0.00000000000E+00 0. -1.
          1    1    1    2  502    0  0.49484040109E+02 -0.34509618690E+02  0.52768644175E+03  0.53112386956E+03  0.00000000000E+00 0. -1.
         22    1    3    3    0    0 -0.14509863852E+01  0.11108623855E+02 -0.88608952308E+02  0.89314351112E+02  0.00000000000E+00 0. -1.
         22    1    3    3    0    0  0.82032939494E+02  0.37583438041E+02  0.58162108647E+00  0.90234451625E+02  0.00000000000E+00 0. -1.
</event>
<event>
 7    1  0.5970484E-006  0.1300244E+03  0.7818608E-02  0.1349848E+00
          2   -1    0    0  502    0  0.00000000000E+00  0.00000000000E+00  0.11723029308E+04  0.11723029308E+04  0.00000000000E+00 0. -1.
          1   -1    0    0  501    0 -0.00000000000E+00 -0.00000000000E+00 -0.98193769068E+03  0.98193769068E+03  0.00000000000E+00 0. -1.
         25    2    1    2    0    0 -0.30036174732E+02 -0.14351944061E+03 -0.45793794083E+03  0.49682126581E+03  0.12499684349E+03 0.  0.
          2    1    1    2  501    0  0.55861560598E+02  0.11154595684E+03 -0.49647245028E+03  0.51190615187E+03  0.00000000000E+00 0. -1.
          1    1    1    2  502    0 -0.25825385866E+02  0.31973483769E+02  0.11447756312E+04  0.11455132038E+04  0.00000000000E+00 0. -1.
         22    1    3    3    0    0 -0.64981511323E+02 -0.14235678124E+03 -0.35075764100E+03  0.38408198695E+03  0.00000000000E+00 0. -1.
         22    1    3    3    0    0  0.34945336591E+02 -0.11626593700E+01 -0.10718029984E+03  0.11273927887E+03  0.00000000000E+00 0. -1.
</event>
<event>
 7    1  0.5970484E-006  0.9677774E+02  0.7818608E-02  0.1363837E+00
          2   -1    0    0  502    0  0.00000000000E+00  0.00000000000E+00  0.69138548729E+03  0.69138548729E+03  0.00000000000E+00 0. -1.
          1   -1    0    0  501    0 -0.00000000000E+00 -0.00000000000E+00 -0.31171025866E+03  0.31171025866E+03  0.00000000000E+00 0. -1.
         25    2    1    2    0    0  0.45014549523E+02 -0.77720321219E+02  0.41012312629E+03  0.43805606260E+03  0.12500150905E+03 0.  0.
          2    1    1    2  501    0 -0.39594557530E+02 -0.28981311594E+02 -0.28488597318E+03  0.28908072077E+03  0.00000000000E+00 0. -1.
          1    1    1    2  502    0 -0.54199919927E+01  0.10670163281E+03  0.25443807551E+03  0.27595896258E+03  0.00000000000E+00 0. -1.
         22    1    3    3    0    0 -0.32502833004E+01 -0.92389401396E+02  0.17867424444E+03  0.20117368480E+03  0.00000000000E+00 0. -1.
         22    1    3    3    0    0  0.48264832823E+02  0.14669080177E+02  0.23144888185E+03  0.23688237780E+03  0.00000000000E+00 0. -1.
</event>
<event>
 7    1  0.5970484E-006  0.7264041E+02  0.7818608E-02  0.1362471E+00
          2   -1    0    0  502    0  0.00000000000E+00  0.00000000000E+00  0.61077642884E+03  0.61077642884E+03  0.00000000000E+00 0. -1.
          1   -1    0    0  501    0 -0.00000000000E+00 -0.00000000000E+00 -0.13855139465E+04  0.13855139465E+04  0.00000000000E+00 0. -1.
         25    2    1    2    0    0  0.72707046819E+02  0.17812024592E+02  0.39532915452E+03  0.42132533199E+03  0.12500524823E+03 0.  0.
          2    1    1    2  501    0 -0.28425887828E+02 -0.66918987296E+02 -0.13661239938E+04  0.13680573630E+04  0.00000000000E+00 0. -1.
          1    1    1    2  502    0 -0.44281158991E+02  0.49106962704E+02  0.19605732163E+03  0.20690768036E+03  0.00000000000E+00 0. -1.
         22    1    3    3    0    0  0.18735222467E+02 -0.52161426086E+02  0.18668115652E+03  0.19473488935E+03  0.00000000000E+00 0.  1.
         22    1    3    3    0    0  0.53971824352E+02  0.69973450678E+02  0.20864799800E+03  0.22659044264E+03  0.00000000000E+00 0.  1.
</event>
<event>
 7    1  0.5970484E-006  0.1074730E+03  0.7818608E-02  0.1327497E+00
          2   -1    0    0  502    0  0.00000000000E+00  0.00000000000E+00  0.22194493894E+03  0.22194493894E+03  0.00000000000E+00 0. -1.
          1   -1    0    0  501    0 -0.00000000000E+00 -0.00000000000E+00 -0.33261494661E+04  0.33261494661E+04  0.00000000000E+00 0. -1.
         25    2    1    2    0    0 -0.15962221541E+03 -0.11656308905E+02 -0.10896572981E+03  0.23045981903E+03  0.12499230666E+03 0.  0.
          2    1    1    2  501    0  0.59470851090E+02 -0.10392319331E+02 -0.31398072729E+04  0.31403876343E+04  0.00000000000E+00 0. -1.
          1    1    1    2  502    0  0.10015136432E+03  0.22048628236E+02  0.14456847555E+03  0.17724695175E+03  0.00000000000E+00 0. -1.
         22    1    3    3    0    0 -0.27835558703E+02 -0.45843080036E+02  0.36716946192E+01  0.53757675330E+02  0.00000000000E+00 0. -1.
         22    1    3    3    0    0 -0.13178665671E+03  0.34186771131E+02 -0.11263742443E+03  0.17670214370E+03  0.00000000000E+00 0. -1.
</event>
<event>
 7    1  0.5970484E-006  0.5974607E+02  0.7818608E-02  0.1444483E+00
          2   -1    0    0  502    0  0.00000000000E+00  0.00000000000E+00  0.22570177680E+03  0.22570177680E+03  0.00000000000E+00 0. -1.
          1   -1    0    0  501    0 -0.00000000000E+00 -0.00000000000E+00 -0.14742144062E+04  0.14742144062E+04  0.00000000000E+00 0. -1.
         25    2    1    2    0    0 -0.88735666933E+02  0.44091355550E+02 -0.31681238009E+03  0.35471067635E+03  0.12502605135E+03 0.  0.
          2    1    1    2  501    0  0.55150465284E+02 -0.18686720612E+02 -0.11355547996E+04  0.11370468198E+04  0.00000000000E+00 0. -1.
          1    1    1    2  502    0  0.33585201649E+02 -0.25404634938E+02  0.20385455031E+03  0.20815868690E+03  0.00000000000E+00 0. -1.
         22    1    3    3    0    0 -0.50296948438E+02  0.49540033337E+02 -0.53571180208E+02  0.88622058621E+02  0.00000000000E+00 0. -1.
         22    1    3    3    0    0 -0.38438718495E+02 -0.54486777877E+01 -0.26324119988E+03  0.26608861773E+03  0.00000000000E+00 0. -1.
</event>
<event>
 7    1  0.5970484E-006  0.2629305E+02  0.7818608E-02  0.1664437E+00
          2   -1    0    0  502    0  0.00000000000E+00  0.00000000000E+00  0.65936692903E+03  0.65936692903E+03  0.00000000000E+00 0. -1.
          1   -1    0    0  501    0 -0.00000000000E+00 -0.00000000000E+00 -0.13909399859E+04  0.13909399859E+04  0.00000000000E+00 0. -1.
         25    2    1    2    0    0 -0.11714587414E+02  0.38537225838E+01 -0.32477728032E+03  0.34821767074E+03  0.12499272644E+03 0.  0.
          2    1    1    2  501    0  0.74327516512E+01  0.22104905278E+02 -0.10540462844E+04  0.10543042456E+04  0.00000000000E+00 0. -1.
          1    1    1    2  502    0  0.42818357626E+01 -0.25958627862E+02  0.64725050785E+03  0.64778499858E+03  0.00000000000E+00 0. -1.
         22    1    3    3    0    0 -0.26441669992E+02  0.19356760132E+02 -0.12288121975E+02  0.34997771593E+02  0.00000000000E+00 0. -1.
         22    1    3    3    0    0  0.14727082578E+02 -0.15503037548E+02 -0.31248915835E+03  0.31321989914E+03  0.00000000000E+00 0. -1.
</event>
<event>
 7    1  0.5970484E-006  0.7258070E+02  0.7818608E-02  0.1387197E+00
          2   -1    0    0  502    0  0.00000000000E+00  0.00000000000E+00  0.33502877659E+03  0.33502877659E+03  0.00000000000E+00 0. -1.
          1   -1    0    0  501    0 -0.00000000000E+00 -0.00000000000E+00 -0.12480541261E+03  0.12480541261E+03  0.00000000000E+00 0. -1.
         25    2    1    2    0    0 -0.11952777773E+03 -0.15060756213E+02  0.59558499672E+02  0.18354071724E+03  0.12500505579E+03 0.  0.
          2    1    1    2  501    0  0.53893394750E+02 -0.35139120867E+01 -0.44229087957E+02  0.69807290431E+02  0.00000000000E+00 0. -1.
          1    1    1    2  502    0  0.65634382983E+02  0.18574668300E+02  0.19489395227E+03  0.20648618153E+03  0.00000000000E+00 0. -1.
         22    1    3    3    0    0 -0.93950787825E+02  0.79270991190E+01 -0.20430317087E+02  0.96472728217E+02  0.00000000000E+00 0.  1.
         22    1    3    3    0    0 -0.25576989908E+02 -0.22987855332E+02  0.79988816759E+02  0.87067989020E+02  0.00000000000E+00 0.  1.
</event>
<event>
 7    1  0.5970484E-006  0.9584038E+02  0.7818608E-02  0.1428777E+00
          2   -1    0    0  502    0  0.00000000000E+00  0.00000000000E+00  0.12208965527E+04  0.12208965527E+04  0.00000000000E+00 0. -1.
          1   -1    0    0  501    0 -0.00000000000E+00 -0.00000000000E+00 -0.96361300234E+02  0.96361300234E+02  0.00000000000E+00 0. -1.
         25    2    1    2    0    0  0.95841211072E+02 -0.96927087509E+00  0.92801578139E+03  0.94129039053E+03  0.12501132580E+03 0.  0.
          2    1    1    2  501    0 -0.91702127512E+02 -0.28277105933E+02 -0.62985422856E+02  0.11478692610E+03  0.00000000000E+00 0. -1.
          1    1    1    2  502    0 -0.41390835599E+01  0.29246376808E+02  0.25950489394E+03  0.26118053631E+03  0.00000000000E+00 0. -1.
         22    1    3    3    0    0  0.12282863331E+03  0.13012192402E+02  0.65114955727E+03  0.66276084393E+03  0.00000000000E+00 0. -1.
         22    1    3    3    0    0 -0.26987422237E+02 -0.13981463278E+02  0.27686622412E+03  0.27852954660E+03  0.00000000000E+00 0. -1.
</event>
<event>
 7    1  0.5970484E-006  0.9131458E+02  0.7818608E-02  0.1375620E+00
          2   -1    0    0  502    0  0.00000000000E+00  0.00000000000E+00  0.39901862683E+03  0.39901862683E+03  0.00000000000E+00 0. -1.
          1   -1    0    0  501    0 -0.00000000000E+00 -0.00000000000E+00 -0.19949427481E+03  0.19949427481E+03  0.00000000000E+00 0. -1.
         25    2    1    2    0    0  0.14064901186E+02  0.91098443690E+02  0.15096690399E+03  0.21659428450E+03  0.12500132034E+03 0.  0.
          2    1    1    2  501    0  0.43923109343E+02 -0.17194815675E+02 -0.15269905060E+03  0.15981833835E+03  0.00000000000E+00 0. -1.
          1    1    1    2  502    0 -0.57988010529E+02 -0.73903628015E+02  0.20125649862E+03  0.22210027879E+03  0.00000000000E+00 0. -1.
         22    1    3    3    0    0  0.66253604154E+02  0.24954326098E+02  0.62693713536E+02  0.94566168217E+02  0.00000000000E+00 0. -1.
         22    1    3    3    0    0 -0.52188702968E+02  0.66144117592E+02  0.88273190455E+02  0.12202811628E+03  0.00000000000E+00 0. -1.
</event>
<event>
 7    1  0.5970484E-006  0.1869752E+03  0.7818608E-02  0.1217997E+00
          2   -1    0    0  502    0  0.00000000000E+00  0.00000000000E+00  0.65790346219E+03  0.65790346219E+03  0.00000000000E+00 0. -1.
          1   -1    0    0  501    0 -0.00000000000E+00 -0.00000000000E+00 -0.80874601687E+03  0.80874601687E+03  0.00000000000E+00 0. -1.
         25    2    1    2    0    0  0.13935020250E+03 -0.16431374896E+03 -0.22281362315E+03  0.33419801410E+03  0.12499965974E+03 0.  0.
          2    1    1    2  501    0 -0.17043794715E+03  0.69502855800E+02 -0.50989100485E+03  0.54209646523E+03  0.00000000000E+00 0. -1.
          1    1    1    2  502    0  0.31087744652E+02  0.94810893165E+02  0.58186207332E+03  0.59035499972E+03  0.00000000000E+00 0. -1.
         22    1    3    3    0    0 -0.13647964768E+02 -0.16289394450E+02  0.55833919409E+01  0.21972382197E+02  0.00000000000E+00 0.  1.
         22    1    3    3    0    0  0.15299816727E+03 -0.14802435451E+03 -0.22839701509E+03  0.31222563190E+03  0.00000000000E+00 0.  1.
</event>
<event>
 7    1  0.5970484E-006  0.8873195E+02  0.7818608E-02  0.1307421E+00
          2   -1    0    0  502    0  0.00000000000E+00  0.00000000000E+00  0.26359372873E+04  0.26359372873E+04  0.00000000000E+00 0. -1.
          1   -1    0    0  501    0 -0.00000000000E+00 -0.00000000000E+00 -0.40326894216E+02  0.40326894216E+02  0.00000000000E+00 0. -1.
         25    2    1    2    0    0 -0.34989415365E+02  0.23130774793E+02  0.28782114765E+03  0.31658362374E+03  0.12499954342E+03 0.  0.
          2    1    1    2  501    0  0.16527472467E+02 -0.10992084085E+03  0.98230155858E+02  0.14834052757E+03  0.00000000000E+00 0. -1.
          1    1    1    2  502    0  0.18461942898E+02  0.86790066053E+02  0.22095590895E+04  0.22113400302E+04  0.00000000000E+00 0. -1.
         22    1    3    3    0    0 -0.55120095807E+02  0.54439005317E+02  0.25647809052E+03  0.26792320015E+03  0.00000000000E+00 0.  1.
         22    1    3    3    0    0  0.20130680442E+02 -0.31308230524E+02  0.31343057134E+02  0.48660423592E+02  0.00000000000E+00 0.  1.
</event>
<event>
 7    1  0.5970484E-006  0.1126405E+03  0.7818608E-02  0.1378742E+00
          2   -1    0    0  502    0  0.00000000000E+00  0.00000000000E+00  0.15909538001E+04  0.15909538001E+04  0.00000000000E+00 0. -1.
          1   -1    0    0  501    0 -0.00000000000E+00 -0.00000000000E+00 -0.94327265999E+02  0.94327265999E+02  0.00000000000E+00 0. -1.
         25    2    1    2    0    0  0.75542513096E+02  0.12114177810E+03  0.40411473103E+03  0.44645141152E+03  0.12501258067E+03 0.  0.
          2    1    1    2  501    0 -0.64171403839E+01 -0.36716513148E+02 -0.65674722796E+02  0.75514576360E+02  0.00000000000E+00 0. -1.
          1    1    1    2  502    0 -0.69125372712E+02 -0.84425264952E+02  0.11581865258E+04  0.11633150782E+04  0.00000000000E+00 0. -1.
         22    1    3    3    0    0  0.36038646615E+02  0.13315690855E+03  0.23618115809E+03  0.27351615269E+03  0.00000000000E+00 0.  1.
         22    1    3    3    0    0  0.39503866481E+02 -0.12015130448E+02  0.16793357294E+03  0.17293525883E+03  0.00000000000E+00 0.  1.
</event>
<event>
 7    1  0.5970484E-006  0.1082490E+03  0.7818608E-02  0.1419252E+00
          2   -1    0    0  502    0  0.00000000000E+00  0.00000000000E+00  0.45348348720E+03  0.45348348720E+03  0.00000000000E+00 0. -1.
          1   -1    0    0  501    0 -0.00000000000E+00 -0.00000000000E+00 -0.13736977140E+04  0.13736977140E+04  0.00000000000E+00 0. -1.
         25    2    1    2    0    0  0.13334572291E+03 -0.26643515944E+02  0.13100488897E+03  0.22644944210E+03  0.12500444045E+03 0.  0.
          2    1    1    2  501    0 -0.10550033906E+03  0.22668886320E+02 -0.13230531540E+04  0.13274463636E+04  0.00000000000E+00 0. -1.
          1    1    1    2  502    0 -0.27845383852E+02  0.39746296241E+01  0.27183403820E+03  0.27328539552E+03  0.00000000000E+00 0. -1.
         22    1    3    3    0    0  0.12980628160E+03  0.49790400228E+01  0.14230831781E+03  0.19268139220E+03  0.00000000000E+00 0.  1.
         22    1    3    3    0    0  0.35394413156E+01 -0.31622555967E+02 -0.11303428838E+02  0.33768049902E+02  0.00000000000E+00 0.  1.
</event>
<event>
 7    1  0.5970484E-006  0.2129945E+03  0.7818608E-02  0.1227681E+00
          2   -1    0    0  502    0  0.00000000000E+00  0.00000000000E+00  0.30480049626E+04  0.30480049626E+04  0.00000000000E+00 0. -1.
          1   -1    0    0  501    0 -0.00000000000E+00 -0.00000000000E+00 -0.21388010506E+04  0.21388010506E+04  0.00000000000E+00 0. -1.
         25    2    1    2    0    0 -0.23926954880E+03 -0.73159253542E+02  0.32715810346E+03  0.43041788342E+03  0.12499974538E+03 0.  0.
          2    1    1    2  501    0  0.21261847840E+03 -0.13789879423E+01 -0.20811664964E+04  0.20919996426E+04  0.00000000000E+00 0. -1.
          1    1    1    2  502    0  0.26651070401E+02  0.74538241484E+02  0.26632123050E+04  0.26643884871E+04  0.00000000000E+00 0. -1.
         22    1    3    3    0    0 -0.14395431191E+03 -0.47070919662E+02  0.28547950506E+03  0.32316723721E+03  0.00000000000E+00 0.  1.
         22    1    3    3    0    0 -0.95315236889E+02 -0.26088333880E+02  0.41678598401E+02  0.10725064621E+03  0.00000000000E+00 0.  1.
</event>
<event>
 7    1  0.5970484E-006  0.4955634E+02  0.7818608E-02  0.1452365E+00
          2   -1    0    0  502    0  0.00000000000E+00  0.00000000000E+00  0.20968682188E+04  0.20968682188E+04  0.00000000000E+00 0. -1.
          1   -1    0    0  501    0 -0.00000000000E+00 -0.00000000000E+00 -0.50793643913E+03  0.50793643913E+03  0.00000000000E+00 0. -1.
         25    2    1    2    0    0 -0.46245680968E+02  0.75108470302E+02  0.87667461894E+02  0.17632787132E+03  0.12500395598E+03 0.  0.
          2    1    1    2  501    0  0.61774961698E+01 -0.48861079790E+02 -0.46200530089E+03  0.46462292736E+03  0.00000000000E+00 0. -1.
          1    1    1    2  502    0  0.40068184798E+02 -0.26247390512E+02  0.19632696187E+04  0.19638538593E+04  0.00000000000E+00 0. -1.
         22    1    3    3    0    0 -0.77123650375E+02  0.80459964736E+02  0.92221376052E+02  0.14466044924E+03  0.00000000000E+00 0.  1.
         22    1    3    3    0    0  0.30877969408E+02 -0.53514944344E+01 -0.45539141588E+01  0.31667422086E+02  0.00000000000E+00 0.  1.
</event>
<event>
 7    1  0.5970484E-006  0.8140616E+02  0.7818608E-02  0.1390900E+00
          2   -1    0    0  502    0  0.00000000000E+00  0.00000000000E+00  0.36198298767E+03  0.36198298767E+03  0.00000000000E+00 0. -1.
          1   -1    0    0  501    0 -0.00000000000E+00 -0.00000000000E+00 -0.95905578341E+03  0.95905578341E+03  0.00000000000E+00 0. -1.
         25    2    1    2    0    0  0.13980784778E+02  0.79151354360E+02  0.30940592488E+01  0.14864385906E+03  0.12500009758E+03 0.  0.
          2    1    1    2  501    0  0.32572568308E+02 -0.74988156644E+02 -0.88246982690E+03  0.88624894428E+03  0.00000000000E+00 0. -1.
          1    1    1    2  502    0 -0.46553353086E+02 -0.41631977160E+01  0.28230297192E+03  0.28614596774E+03  0.00000000000E+00 0. -1.
         22    1    3    3    0    0 -0.41566975168E+02  0.39319775733E+02 -0.38189085028E+02  0.68791455891E+02  0.00000000000E+00 0.  1.
         22    1    3    3    0    0  0.55547759945E+02  0.39831578627E+02  0.41283144277E+02  0.79852403171E+02  0.00000000000E+00 0.  1.
</event>
<event>
 7    1  0.5970484E-006  0.8681559E+02  0.7818608E-02  0.1313558E+00
          2   -1    0    0  502    0  0.00000000000E+00  0.00000000000E+00  0.11009021408E+04  0.11009021408E+04  0.00000000000E+00 0. -1.
          1   -1    0    0  501    0 -0.00000000000E+00 -0.00000000000E+00 -0.19286521620E+03  0.19286521620E+03  0.00000000000E+00 0. -1.
         25    2    1    2    0    0 -0.19884289571E+02  0.13517104938E+01  0.34944037448E+03  0.37165834893E+03  0.12499656362E+03 0.  0.
          2    1    1    2  501    0  0.50904462908E+01 -0.86897534854E+02 -0.16860206818E+03  0.18974654569E+03  0.00000000000E+00 0. -1.
          1    1    1    2  502    0  0.14793843280E+02  0.85545824360E+02  0.72719861831E+03  0.73236246240E+03  0.00000000000E+00 0. -1.
         22    1    3    3    0    0 -0.52899451366E+02  0.19904628282E+02  0.31637432203E+03  0.32138335025E+03  0.00000000000E+00 0.  1.
         22    1    3    3    0    0  0.33015161795E+02 -0.18552917788E+02  0.33066052454E+02  0.50274998674E+02  0.00000000000E+00 0.  1.
</event>
<event>
 7    1  0.5970484E-006  0.1028368E+03  0.7818608E-02  0.1281626E+00
          2   -1    0    0  502    0  0.00000000000E+00  0.00000000000E+00  0.37324262512E+03  0.37324262512E+03  0.00000000000E+00 0. -1.
          1   -1    0    0  501    0 -0.00000000000E+00 -0.00000000000E+00 -0.16840838286E+04  0.16840838286E+04  0.00000000000E+00 0. -1.
         25    2    1    2    0    0  0.74351593524E+02 -0.10604602435E+03 -0.92894993829E+03  0.94622765251E+03  0.12499945513E+03 0.  0.
          2    1    1    2  501    0  0.21545590749E+02  0.10117989255E+03 -0.73649496740E+03  0.74372469379E+03  0.00000000000E+00 0. -1.
          1    1    1    2  502    0 -0.95897184273E+02  0.48661318037E+01  0.35460370221E+03  0.36737410743E+03  0.00000000000E+00 0. -1.
         22    1    3    3    0    0 -0.34554343604E+02 -0.26383028052E+02 -0.28459153229E+03  0.28789304799E+03  0.00000000000E+00 0.  1.
         22    1    3    3    0    0  0.10890593713E+03 -0.79662996301E+02 -0.64435840600E+03  0.65833460452E+03  0.00000000000E+00 0.  1.
</event>
<event>
 7    1  0.5970484E-006  0.1863486E+03  0.7818608E-02  0.1233149E+00
          2   -1    0    0  502    0  0.00000000000E+00  0.00000000000E+00  0.44151038989E+03  0.44151038989E+03  0.00000000000E+00 0. -1.
          1   -1    0    0  501    0 -0.00000000000E+00 -0.00000000000E+00 -0.27857420143E+03  0.27857420143E+03  0.00000000000E+00 0. -1.
         25    2    1    2    0    0 -0.11337851066E+03  0.60336418281E+02 -0.16449752524E+02  0.17998562831E+03  0.12501624691E+03 0.  0.
          2    1    1    2  501    0 -0.85082962489E+02 -0.85949750685E+01 -0.13791977629E+03  0.16228015527E+03  0.00000000000E+00 0. -1.
          1    1    1    2  502    0  0.19846147315E+03 -0.51741443212E+02  0.31730571727E+03  0.37781880774E+03  0.00000000000E+00 0. -1.
         22    1    3    3    0    0 -0.76531982786E+02 -0.17311025125E+02 -0.43711269647E+02  0.89819213280E+02  0.00000000000E+00 0.  1.
         22    1    3    3    0    0 -0.36846527870E+02  0.77647443405E+02  0.27261517123E+02  0.90166415030E+02  0.00000000000E+00 0.  1.
</event>
<event>
 7    1  0.5970484E-006  0.5560867E+02  0.7818608E-02  0.1482135E+00
          2   -1    0    0  502    0  0.00000000000E+00  0.00000000000E+00  0.17475862055E+04  0.17475862055E+04  0.00000000000E+00 0. -1.
          1   -1    0    0  501    0 -0.00000000000E+00 -0.00000000000E+00 -0.63138701340E+03  0.63138701340E+03  0.00000000000E+00 0. -1.
         25    2    1    2    0    0 -0.32604658835E+02 -0.12764358828E+02 -0.36863216237E+03  0.39082072103E+03  0.12500068888E+03 0.  0.
          2    1    1    2  501    0  0.45974516886E+02  0.44525088525E+02 -0.24741732361E+03  0.25556109198E+03  0.00000000000E+00 0. -1.
          1    1    1    2  502    0 -0.13369858051E+02 -0.31760729696E+02  0.17322486781E+04  0.17325914059E+04  0.00000000000E+00 0. -1.
         22    1    3    3    0    0  0.39033912352E+02  0.17482992439E+02 -0.20805165165E+03  0.21240242723E+03  0.00000000000E+00 0.  1.
         22    1    3    3    0    0 -0.71638571187E+02 -0.30247351267E+02 -0.16058051071E+03  0.17841829380E+03  0.00000000000E+00 0.  1.
</event>
<event>
 7    1  0.5970484E-006  0.2956149E+02  0.7818608E-02  0.1603889E+00
          2   -1    0    0  502    0  0.00000000000E+00  0.00000000000E+00  0.11783773922E+03  0.11783773922E+03  0.00000000000E+00 0. -1.
          1   -1    0    0  501    0 -0.00000000000E+00 -0.00000000000E+00 -0.13033436371E+04  0.13033436371E+04  0.00000000000E+00 0. -1.
         25    2    1    2    0    0  0.18070144683E+02  0.57290034709E+01 -0.11321461753E+03  0.16970135609E+03  0.12498659540E+03 0.  0.
          2    1    1    2  501    0 -0.17169766159E+02  0.24064097345E+02 -0.11592129308E+04  0.11595897985E+04  0.00000000000E+00 0. -1.
          1    1    1    2  502    0 -0.90037852334E+00 -0.29793100816E+02  0.86921650477E+02  0.91890221783E+02  0.00000000000E+00 0. -1.
         22    1    3    3    0    0 -0.33438786536E+01 -0.53015951317E+02 -0.18581161003E+02  0.56277279276E+02  0.00000000000E+00 0.  1.
         22    1    3    3    0    0  0.21414023336E+02  0.58744954788E+02 -0.94633456523E+02  0.11342407682E+03  0.00000000000E+00 0.  1.
</event>
<event>
 7    1  0.5970484E-006  0.1413951E+03  0.7818608E-02  0.1282510E+00
          2   -1    0    0  502    0  0.00000000000E+00  0.00000000000E+00  0.20541225979E+04  0.20541225979E+04  0.00000000000E+00 0. -1.
          1   -1    0    0  501    0 -0.00000000000E+00 -0.00000000000E+00 -0.86098465956E+03  0.86098465956E+03  0.00000000000E+00 0. -1.
         25    2    1    2    0    0 -0.80436736984E+02 -0.60213725939E+02  0.61302102288E+03  0.63365261510E+03  0.12500040273E+03 0.  0.
          2    1    1    2  501    0  0.62864711231E+02  0.12719975297E+03 -0.84390509091E+03  0.85574970146E+03  0.00000000000E+00 0. -1.
          1    1    1    2  502    0  0.17572025753E+02 -0.66986027031E+02  0.14240220064E+04  0.14257049409E+04  0.00000000000E+00 0. -1.
         22    1    3    3    0    0 -0.84798437658E+02 -0.90820861135E+02  0.41399275875E+03  0.43223744418E+03  0.00000000000E+00 0. -1.
         22    1    3    3    0    0  0.43617006737E+01  0.30607135196E+02  0.19902826412E+03  0.20141517092E+03  0.00000000000E+00 0. -1.
</event>
<event>
 7    1  0.5970484E-006  0.6455710E+02  0.7818608E-02  0.1424881E+00
          2   -1    0    0  502    0  0.00000000000E+00  0.00000000000E+00  0.13486512679E+04  0.13486512679E+04  0.00000000000E+00 0. -1.
          1   -1    0    0  501    0 -0.00000000000E+00 -0.00000000000E+00 -0.10147222629E+03  0.10147222629E+03  0.00000000000E+00 0. -1.
         25    2    1    2    0    0  0.50306708532E+02  0.66876175892E+02  0.16343557129E+03  0.22212420583E+03  0.12499915611E+03 0.  0.
          2    1    1    2  501    0 -0.52395085155E+01 -0.63802622623E+02 -0.57387777216E+02  0.85974322194E+02  0.00000000000E+00 0. -1.
          1    1    1    2  502    0 -0.45067200017E+02 -0.30735532696E+01  0.11411312475E+04  0.11420249662E+04  0.00000000000E+00 0. -1.
         22    1    3    3    0    0  0.81401209455E+02  0.12413165772E+02  0.12115694868E+03  0.14648976005E+03  0.00000000000E+00 0.  1.
         22    1    3    3    0    0 -0.31094500923E+02  0.54463010120E+02  0.42278622606E+02  0.75634445780E+02  0.00000000000E+00 0.  1.
</event>
<event>
 7    1  0.5970484E-006  0.3079902E+03  0.7818608E-02  0.1254589E+00
          2   -1    0    0  502    0  0.00000000000E+00  0.00000000000E+00  0.10955485238E+04  0.10955485238E+04  0.00000000000E+00 0. -1.
          1   -1    0    0  501    0 -0.00000000000E+00 -0.00000000000E+00 -0.29599687710E+03  0.29599687710E+03  0.00000000000E+00 0. -1.
         25    2    1    2    0    0  0.10454914490E+03  0.29617100813E+03  0.66399112175E+03  0.74508861469E+03  0.12500017691E+03 0.  0.
          2    1    1    2  501    0 -0.41622678734E+02 -0.20859244674E+01 -0.19509150654E+03  0.19949309359E+03  0.00000000000E+00 0. -1.
          1    1    1    2  502    0 -0.62926466169E+02 -0.29408508366E+03  0.33065203149E+03  0.44696369260E+03  0.00000000000E+00 0. -1.
         22    1    3    3    0    0 -0.40913916432E+01  0.16859018703E+03  0.37178452698E+03  0.40824395299E+03  0.00000000000E+00 0. -1.
         22    1    3    3    0    0  0.10864053655E+03  0.12758082110E+03  0.29220659476E+03  0.33684466170E+03  0.00000000000E+00 0. -1.
</event>
<event>
 7    1  0.5970484E-006  0.6300373E+02  0.7818608E-02  0.1531244E+00
          2   -1    0    0  502    0  0.00000000000E+00  0.00000000000E+00  0.82180617541E+02  0.82180617541E+02  0.00000000000E+00 0. -1.
          1   -1    0    0  501    0 -0.00000000000E+00 -0.00000000000E+00 -0.15614435272E+04  0.15614435272E+04  0.00000000000E+00 0. -1.
         25    2    1    2    0    0 -0.58401356095E+02  0.60661791449E+02 -0.50250032196E+03  0.52461644779E+03  0.12500108952E+03 0.  0.
          2    1    1    2  501    0  0.15208097867E+02 -0.15575939763E+02 -0.10340453961E+04  0.10342745174E+04  0.00000000000E+00 0. -1.
          1    1    1    2  502    0  0.43193258228E+02 -0.45085851685E+02  0.57282808406E+02  0.84733179554E+02  0.00000000000E+00 0. -1.
         22    1    3    3    0    0 -0.26625950745E+02 -0.35350272412E+02 -0.22380445169E+03  0.22813815027E+03  0.00000000000E+00 0. -1.
         22    1    3    3    0    0 -0.31775405350E+02  0.96012063860E+02 -0.27869587027E+03  0.29647829752E+03  0.00000000000E+00 0. -1.
</event>
<event>
 7    1  0.5970484E-006  0.1436458E+03  0.7818608E-02  0.1350820E+00
          2   -1    0    0  502    0  0.00000000000E+00  0.00000000000E+00  0.41697978154E+03  0.41697978154E+03  0.00000000000E+00 0. -1.
          1   -1    0    0  501    0 -0.00000000000E+00 -0.00000000000E+00 -0.35078011678E+04  0.35078011678E+04  0.00000000000E+00 0. -1.
         25    2    1    2    0    0  0.15092156812E+02 -0.10649384967E+03 -0.21186987772E+02  0.16626177656E+03  0.12500150670E+03 0.  0.
          2    1    1    2  501    0 -0.18104132342E+02  0.14326658556E+03 -0.34115568977E+04  0.34146117701E+04  0.00000000000E+00 0. -1.
          1    1    1    2  502    0  0.30119755302E+01 -0.36772735888E+02  0.34192249926E+03  0.34390740265E+03  0.00000000000E+00 0. -1.
         22    1    3    3    0    0  0.59010463843E+02 -0.19377152097E+02 -0.28682329333E+02  0.68413338483E+02  0.00000000000E+00 0.  1.
         22    1    3    3    0    0 -0.43918307031E+02 -0.87116697573E+02  0.74953415615E+01  0.97848438075E+02  0.00000000000E+00 0.  1.
</event>
<event>
 7    1  0.5970484E-006  0.1840971E+03  0.7818608E-02  0.1198145E+00
          2   -1    0    0  502    0  0.00000000000E+00  0.00000000000E+00  0.51688851971E+03  0.51688851971E+03  0.00000000000E+00 0. -1.
          1   -1    0    0  501    0 -0.00000000000E+00 -0.00000000000E+00 -0.27510337910E+04  0.27510337910E+04  0.00000000000E+00 0. -1.
         25    2    1    2    0    0 -0.19846898590E+03 -0.95151098610E+01 -0.22742086101E+03  0.32684905260E+03  0.12501831659E+03 0.  0.
          2    1    1    2  501    0  0.46545823901E+02  0.11638930312E+03 -0.24537720084E+04  0.24569717241E+04  0.00000000000E+00 0. -1.
          1    1    1    2  502    0  0.15192316200E+03 -0.10687419326E+03  0.44704759810E+03  0.48410153408E+03  0.00000000000E+00 0. -1.
         22    1    3    3    0    0 -0.18475957664E+03  0.31828114800E+02 -0.15943520223E+03  0.24610711847E+03  0.00000000000E+00 0. -1.
         22    1    3    3    0    0 -0.13709409262E+02 -0.41343224661E+02 -0.67985658778E+02  0.80741934130E+02  0.00000000000E+00 0. -1.
</event>
<event>
 7    1  0.5970484E-006  0.2447330E+03  0.7818608E-02  0.1241975E+00
          2   -1    0    0  502    0  0.00000000000E+00  0.00000000000E+00  0.12039452878E+04  0.12039452878E+04  0.00000000000E+00 0. -1.
          1   -1    0    0  501    0 -0.00000000000E+00 -0.00000000000E+00 -0.57483767060E+03  0.57483767060E+03  0.00000000000E+00 0. -1.
         25    2    1    2    0    0 -0.18828695742E+03  0.41327939500E+02  0.15222778964E+03  0.27560621340E+03  0.12500203201E+03 0.  0.
          2    1    1    2  501    0  0.24629646236E+03 -0.54612901149E+02 -0.48116241119E+03  0.54328793681E+03  0.00000000000E+00 0. -1.
          1    1    1    2  502    0 -0.58009504942E+02  0.13284961648E+02  0.95804223876E+03  0.95988880821E+03  0.00000000000E+00 0. -1.
         22    1    3    3    0    0 -0.56281052675E+02  0.73480631689E+02  0.47320653228E+02  0.10395289484E+03  0.00000000000E+00 0. -1.
         22    1    3    3    0    0 -0.13200590474E+03 -0.32152692189E+02  0.10490713641E+03  0.17165331856E+03  0.00000000000E+00 0. -1.
</event>
<event>
 7    1  0.5970484E-006  0.7898483E+02  0.7818608E-02  0.1469122E+00
          2   -1    0    0  502    0  0.00000000000E+00  0.00000000000E+00  0.15105884272E+04  0.15105884272E+04  0.00000000000E+00 0. -1.
          1   -1    0    0  501    0 -0.00000000000E+00 -0.00000000000E+00 -0.54327164261E+03  0.54327164261E+03  0.00000000000E+00 0. -1.
         25    2    1    2    0    0  0.49393665200E+02  0.79460044956E+02  0.36879081552E+03  0.40048506657E+03  0.12501195954E+03 0.  0.
          2    1    1    2  501    0  0.70479079685E+01 -0.25661798196E+02 -0.52573761462E+03  0.52641071448E+03  0.00000000000E+00 0. -1.
          1    1    1    2  502    0 -0.56441573169E+02 -0.53798246760E+02  0.11242635837E+04  0.11269642888E+04  0.00000000000E+00 0. -1.
         22    1    3    3    0    0  0.64173691019E+02 -0.37629162507E+01  0.22176364144E+03  0.23089290769E+03  0.00000000000E+00 0.  1.
         22    1    3    3    0    0 -0.14780025818E+02  0.83222961207E+02  0.14702717408E+03  0.16959215888E+03  0.00000000000E+00 0.  1.
</event>
<event>
 7    1  0.5970484E-006  0.6913815E+02  0.7818608E-02  0.1419197E+00
          2   -1    0    0  502    0  0.00000000000E+00  0.00000000000E+00  0.45614829266E+03  0.45614829266E+03  0.00000000000E+00 0. -1.
          1   -1    0    0  501    0 -0.00000000000E+00 -0.00000000000E+00 -0.13772823734E+04  0.13772823734E+04  0.00000000000E+00 0. -1.
         25    2    1    2    0    0  0.58221187963E+02 -0.19795626576E+02 -0.76339827794E+03  0.77600802227E+03  0.12501978365E+03 0.  0.
          2    1    1    2  501    0 -0.43679784476E+02  0.61384495217E+02 -0.60415516121E+03  0.60883449199E+03  0.00000000000E+00 0. -1.
          1    1    1    2  502    0 -0.14541403486E+02 -0.41588868641E+02  0.44641935839E+03  0.44858815182E+03  0.00000000000E+00 0. -1.
         22    1    3    3    0    0  0.80834080509E+02 -0.51253997720E+02 -0.62511485036E+03  0.63239995019E+03  0.00000000000E+00 0. -1.
         22    1    3    3    0    0 -0.22612892546E+02  0.31458371143E+02 -0.13828342758E+03  0.14360807208E+03  0.00000000000E+00 0. -1.
</event>
<event>
 7    1  0.5970484E-006  0.1173672E+03  0.7818608E-02  0.1380698E+00
          2   -1    0    0  502    0  0.00000000000E+00  0.00000000000E+00  0.91975191437E+03  0.91975191437E+03  0.00000000000E+00 0. -1.
          1   -1    0    0  501    0 -0.00000000000E+00 -0.00000000000E+00 -0.13409612546E+04  0.13409612546E+04  0.00000000000E+00 0. -1.
         25    2    1    2    0    0 -0.13742389736E+03  0.52559307899E+02 -0.21667711819E+03  0.29021118572E+03  0.12500300140E+03 0.  0.
          2    1    1    2  501    0  0.34994900297E+02  0.38475022562E+01 -0.10833585394E+04  0.10839304273E+04  0.00000000000E+00 0. -1.
          1    1    1    2  502    0  0.10242899707E+03 -0.56406810155E+02  0.87882631738E+03  0.88657155593E+03  0.00000000000E+00 0. -1.
         22    1    3    3    0    0 -0.56859496577E+02  0.34206431795E+01 -0.34868599874E+01  0.57068917489E+02  0.00000000000E+00 0. -1.
         22    1    3    3    0    0 -0.80564400786E+02  0.49138664719E+02 -0.21319025821E+03  0.23314226824E+03  0.00000000000E+00 0. -1.
</event>
<event>
 7    1  0.5970484E-006  0.5620143E+02  0.7818608E-02  0.1521901E+00
          2   -1    0    0  502    0  0.00000000000E+00  0.00000000000E+00  0.17515586932E+04  0.17515586932E+04  0.00000000000E+00 0. -1.
          1   -1    0    0  501    0 -0.00000000000E+00 -0.00000000000E+00 -0.53342790771E+03  0.53342790771E+03  0.00000000000E+00 0. -1.
         25    2    1    2    0    0 -0.66854477368E+02  0.18896650060E+02  0.81595171177E+03  0.82838922605E+03  0.12499963747E+03 0.  0.
          2    1    1    2  501    0  0.22314384795E+02  0.13271426366E+02 -0.52607675331E+03  0.52671701406E+03  0.00000000000E+00 0. -1.
          1    1    1    2  502    0  0.44540092573E+02 -0.32168076425E+02  0.92825582708E+03  0.92988036085E+03  0.00000000000E+00 0. -1.
         22    1    3    3    0    0 -0.10006384352E+03  0.22657096435E+02  0.48372039781E+03  0.49448108159E+03  0.00000000000E+00 0.  1.
         22    1    3    3    0    0  0.33209366152E+02 -0.37604463754E+01  0.33223131396E+03  0.33390814445E+03  0.00000000000E+00 0.  1.
</event>
<event>
 7    1  0.5970484E-006  0.3892573E+02  0.7818608E-02  0.1620349E+00
          2   -1    0    0  502    0  0.00000000000E+00  0.00000000000E+00  0.25700506803E+04  0.25700506803E+04  0.00000000000E+00 0. -1.
          1   -1    0    0  501    0 -0.00000000000E+00 -0.00000000000E+00 -0.81035194618E+02  0.81035194618E+02  0.00000000000E+00 0. -1.
         25    2    1    2    0    0 -0.12761555200E+02  0.15791007905E+02  0.21084008192E+02  0.12837996075E+03  0.12499866279E+03 0.  0.
          2    1    1    2  501    0 -0.19151238957E+02  0.65938773848E+01 -0.23468891154E+02  0.31000613293E+02  0.00000000000E+00 0. -1.
          1    1    1    2  502    0  0.31912794157E+02 -0.22384885290E+02  0.24914003687E+04  0.24917053009E+04  0.00000000000E+00 0. -1.
         22    1    3    3    0    0 -0.40911824770E+02  0.59354671221E+02 -0.77969312885E+00  0.72092734191E+02  0.00000000000E+00 0. -1.
         22    1    3    3    0    0  0.28150269570E+02 -0.43563663316E+02  0.21863701321E+02  0.56287226560E+02  0.00000000000E+00 0. -1.
</event>
<event>
 7    1  0.5970484E-006  0.6194763E+02  0.7818608E-02  0.1439069E+00
          2   -1    0    0  502    0  0.00000000000E+00  0.00000000000E+00  0.42554803171E+03  0.42554803171E+03  0.00000000000E+00 0. -1.
          1   -1    0    0  501    0 -0.00000000000E+00 -0.00000000000E+00 -0.48285475569E+02  0.48285475569E+02  0.00000000000E+00 0. -1.
         25    2    1    2    0    0  0.36466578634E+02 -0.12282313586E+01  0.25506065081E+03  0.28638171414E+03  0.12500892244E+03 0.  0.
          2    1    1    2  501    0 -0.55490026806E+02 -0.36538352513E+02  0.95471730850E+01  0.67121850341E+02  0.00000000000E+00 0. -1.
          1    1    1    2  502    0  0.19023448172E+02  0.37766583871E+02  0.11265473224E+03  0.12032994280E+03  0.00000000000E+00 0. -1.
         22    1    3    3    0    0  0.28789442583E+02 -0.58803010855E+02  0.89234439598E+02  0.11067705860E+03  0.00000000000E+00 0. -1.
         22    1    3    3    0    0  0.76771360509E+01  0.57574779496E+02  0.16582621122E+03  0.17570465554E+03  0.00000000000E+00 0. -1.
</event>
<event>
 7    1  0.8898757E-006  0.9470157E+02  0.7818608E-02  0.1394955E+00
          2   -1    0    0  502    0  0.00000000000E+00  0.00000000000E+00  0.26690179274E+04  0.26690179274E+04  0.00000000000E+00 0. -1.
          1   -1    0    0  501    0 -0.00000000000E+00 -0.00000000000E+00 -0.22200971828E+04  0.22200971828E+04  0.00000000000E+00 0. -1.
         25    2    1    2    0    0  0.12565982111E+03 -0.28493473235E+02 -0.40826231549E+03  0.44598790608E+03  0.12499930185E+03 0.  0.
          2    1    1    2  501    0 -0.92192072553E+02  0.86766639686E+01 -0.17916336107E+04  0.17940249880E+04  0.00000000000E+00 0. -1.
          1    1    1    2  502    0 -0.33467748561E+02  0.19816809267E+02  0.26488166708E+04  0.26491022161E+04  0.00000000000E+00 0. -1.
         22    1    3    3    0    0  0.53751345147E+02 -0.36919658389E+02 -0.54774129000E+02  0.85161455415E+02  0.00000000000E+00 0.  1.
         22    1    3    3    0    0  0.71908475967E+02  0.84261851539E+01 -0.35348818649E+03  0.36082645067E+03  0.00000000000E+00 0.  1.
</event>
<event>
 7    1  0.5970484E-006  0.7218707E+02  0.7818608E-02  0.1374924E+00
          2   -1    0    0  502    0  0.00000000000E+00  0.00000000000E+00  0.78779660371E+02  0.78779660371E+02  0.00000000000E+00 0. -1.
          1   -1    0    0  501    0 -0.00000000000E+00 -0.00000000000E+00 -0.66219068774E+03  0.66219068774E+03  0.00000000000E+00 0. -1.
         25    2    1    2    0    0  0.36453878898E+02 -0.12170697022E+03 -0.94545574263E+02  0.20175667418E+03  0.12500167229E+03 0.  0.
          2    1    1    2  501    0 -0.72412347063E+01  0.69288420969E+02 -0.47167352823E+03  0.47679055988E+03  0.00000000000E+00 0. -1.
          1    1    1    2  502    0 -0.29212644192E+02  0.52418549251E+02 -0.17191924872E+02  0.62423114045E+02  0.00000000000E+00 0. -1.
         22    1    3    3    0    0 -0.72497478189E+01  0.12037895082E+02  0.17104297310E+02  0.22136547786E+02  0.00000000000E+00 0. -1.
         22    1    3    3    0    0  0.43703626717E+02 -0.13374486530E+03 -0.11164987157E+03  0.17962012639E+03  0.00000000000E+00 0. -1.
</event>
<event>
 7    1  0.5970484E-006  0.1164455E+03  0.7818608E-02  0.1377939E+00
          2   -1    0    0  502    0  0.00000000000E+00  0.00000000000E+00  0.11513869412E+04  0.11513869412E+04  0.00000000000E+00 0. -1.
          1   -1    0    0  501    0 -0.00000000000E+00 -0.00000000000E+00 -0.10720953680E+03  0.10720953680E+03  0.00000000000E+00 0. -1.
         25    2    1    2    0    0  0.11056987051E+03 -0.23280817875E+02  0.68735662056E+02  0.18198161154E+03  0.12500009182E+03 0.  0.
          2    1    1    2  501    0  0.57162380181E+01  0.35839756942E+02 -0.40258469204E+02  0.54202471322E+02  0.00000000000E+00 0. -1.
          1    1    1    2  502    0 -0.11628610853E+03 -0.12558939067E+02  0.10157002115E+04  0.10224123951E+04  0.00000000000E+00 0. -1.
         22    1    3    3    0    0  0.52655463449E+02 -0.61353432793E+02  0.77653491726E+02  0.11210221373E+03  0.00000000000E+00 0. -1.
         22    1    3    3    0    0  0.57914407066E+02  0.38072614918E+02 -0.89178296705E+01  0.69879397811E+02  0.00000000000E+00 0. -1.
</event>
<event>
 7    1  0.5970484E-006  0.9962218E+02  0.7818608E-02  0.1433202E+00
          2   -1    0    0  502    0  0.00000000000E+00  0.00000000000E+00  0.77095190446E+03  0.77095190446E+03  0.00000000000E+00 0. -1.
          1   -1    0    0  501    0 -0.00000000000E+00 -0.00000000000E+00 -0.17634225225E+03  0.17634225225E+03  0.00000000000E+00 0. -1.
         25    2    1    2    0    0  0.18118600373E+02  0.12342064769E+03  0.13442971863E+03  0.22194481821E+03  0.12500885218E+03 0.  0.
          2    1    1    2  501    0 -0.23819810162E+01 -0.27376881092E+02 -0.12711163870E+03  0.13004820700E+03  0.00000000000E+00 0. -1.
          1    1    1    2  502    0 -0.15736619357E+02 -0.96043766600E+02  0.58729157228E+03  0.59530113149E+03  0.00000000000E+00 0. -1.
         22    1    3    3    0    0  0.58283597630E+01 -0.18172779670E+02  0.56969601995E+02  0.60081238752E+02  0.00000000000E+00 0. -1.
         22    1    3    3    0    0  0.12290240610E+02  0.14159342736E+03  0.77460116634E+02  0.16186357946E+03  0.00000000000E+00 0. -1.
</event>
<event>
 7    1  0.5970484E-006  0.1078589E+03  0.7818608E-02  0.1339975E+00
          2   -1    0    0  502    0  0.00000000000E+00  0.00000000000E+00  0.20415102254E+04  0.20415102254E+04  0.00000000000E+00 0. -1.
          1   -1    0    0  501    0 -0.00000000000E+00 -0.00000000000E+00 -0.38530524792E+03  0.38530524792E+03  0.00000000000E+00 0. -1.
         25    2    1    2    0    0 -0.82432927437E+02  0.69442022511E+02  0.85118661922E+03  0.86704042194E+03  0.12499220181E+03 0.  0.
          2    1    1    2  501    0 -0.26459126599E+02 -0.47000595617E+02 -0.37281981468E+03  0.37670114891E+03  0.00000000000E+00 0. -1.
          1    1    1    2  502    0  0.10889205404E+03 -0.22441426894E+02  0.11778381729E+04  0.11830739025E+04  0.00000000000E+00 0. -1.
         22    1    3    3    0    0 -0.68799499107E+00  0.24565412521E+02  0.57520232940E+03  0.57572706430E+03  0.00000000000E+00 0.  1.
         22    1    3    3    0    0 -0.81744932446E+02  0.44876609990E+02  0.27598428982E+03  0.29131335763E+03  0.00000000000E+00 0.  1.
</event>
<event>
 7    1  0.5970484E-006  0.4664518E+02  0.7818608E-02  0.1478095E+00
          2   -1    0    0  502    0  0.00000000000E+00  0.00000000000E+00  0.61673423405E+03  0.61673423405E+03  0.00000000000E+00 0. -1.
          1   -1    0    0  501    0 -0.00000000000E+00 -0.00000000000E+00 -0.26798048602E+03  0.26798048602E+03  0.00000000000E+00 0. -1.
         25    2    1    2    0    0  0.68761750563E+02 -0.21527972680E+02  0.21713683704E+03  0.26070012836E+03  0.12499807590E+03 0.  0.
          2    1    1    2  501    0 -0.24833052685E+02  0.34207594270E+02 -0.24298411503E+03  0.24663357470E+03  0.00000000000E+00 0. -1.
          1    1    1    2  502    0 -0.43928697879E+02 -0.12679621590E+02  0.37460102603E+03  0.37738101701E+03  0.00000000000E+00 0. -1.
         22    1    3    3    0    0  0.75712271703E+02 -0.58704245507E+02  0.19399269135E+03  0.21636011837E+03  0.00000000000E+00 0.  1.
         22    1    3    3    0    0 -0.69505211397E+01  0.37176272828E+02  0.23144145694E+02  0.44340009984E+02  0.00000000000E+00 0.  1.
</event>
<event>
 7    1  0.5970484E-006  0.4206563E+02  0.7818608E-02  0.1584380E+00
          2   -1    0    0  502    0  0.00000000000E+00  0.00000000000E+00  0.16134845264E+03  0.16134845264E+03  0.00000000000E+00 0. -1.
          1   -1    0    0  501    0 -0.00000000000E+00 -0.00000000000E+00 -0.14406099752E+04  0.14406099752E+04  0.00000000000E+00 0. -1.
         25    2    1    2    0    0 -0.25692358300E+02 -0.76835199799E+01  0.23686579531E+02  0.13000465250E+03  0.12498408646E+03 0.  0.
          2    1    1    2  501    0  0.28846450663E+02  0.30724981936E+02 -0.13855243249E+04  0.13861651407E+04  0.00000000000E+00 0. -1.
          1    1    1    2  502    0 -0.31540923629E+01 -0.23041461956E+02  0.82576222813E+02  0.85788634689E+02  0.00000000000E+00 0. -1.
         22    1    3    3    0    0 -0.76087361467E+02 -0.11834223435E+02  0.10227276260E+02  0.77678392098E+02  0.00000000000E+00 0. -1.
         22    1    3    3    0    0  0.50395003167E+02  0.41507034551E+01  0.13459303271E+02  0.52326260404E+02  0.00000000000E+00 0. -1.
</event>
<event>
 7    1  0.5970484E-006  0.1422610E+03  0.7818608E-02  0.1283480E+00
          2   -1    0    0  502    0  0.00000000000E+00  0.00000000000E+00  0.59242626585E+03  0.59242626585E+03  0.00000000000E+00 0. -1.
          1   -1    0    0  501    0 -0.00000000000E+00 -0.00000000000E+00 -0.33728273453E+03  0.33728273453E+03  0.00000000000E+00 0. -1.
         25    2    1    2    0    0 -0.16909093054E+02 -0.19419511757E+03 -0.73769602539E+02  0.24303295091E+03  0.12500159940E+03 0.  0.
          2    1    1    2  501    0 -0.27891035454E+02  0.62237981839E+02 -0.16231627279E+03  0.17606262708E+03  0.00000000000E+00 0. -1.
          1    1    1    2  502    0  0.44800128508E+02  0.13195713573E+03  0.49122940664E+03  0.51061342240E+03  0.00000000000E+00 0. -1.
         22    1    3    3    0    0  0.45548904749E+02 -0.90006123643E+02 -0.67539375107E+02  0.12139757908E+03  0.00000000000E+00 0. -1.
         22    1    3    3    0    0 -0.62457997803E+02 -0.10418899393E+03 -0.62302274328E+01  0.12163537182E+03  0.00000000000E+00 0. -1.
</event>
<event>
 7    1  0.5970484E-006  0.5327010E+02  0.7818608E-02  0.1509871E+00
          2   -1    0    0  502    0  0.00000000000E+00  0.00000000000E+00  0.38712187507E+04  0.38712187507E+04  0.00000000000E+00 0. -1.
          1   -1    0    0  501    0 -0.00000000000E+00 -0.00000000000E+00 -0.45943839171E+01  0.45943839171E+01  0.00000000000E+00 0. -1.
         25    2    1    2    0    0  0.19335755352E+02  0.22088254303E+02  0.30108941368E+04  0.30136306861E+04  0.12499858599E+03 0.  0.
          2    1    1    2  501    0 -0.20183289474E+02 -0.51775476317E+02  0.26791690382E+03  0.27361932036E+03  0.00000000000E+00 0. -1.
          1    1    1    2  502    0  0.84753412193E+00  0.29687222014E+02  0.58781332617E+03  0.58856312821E+03  0.00000000000E+00 0. -1.
         22    1    3    3    0    0 -0.13413353142E+02  0.46317539610E+02  0.26509580215E+04  0.26513965498E+04  0.00000000000E+00 0. -1.
         22    1    3    3    0    0  0.32749108494E+02 -0.24229285306E+02  0.35993611537E+03  0.36223413632E+03  0.00000000000E+00 0. -1.
</event>
<event>
 7    1  0.5970484E-006  0.6038681E+02  0.7818608E-02  0.1547685E+00
          2   -1    0    0  502    0  0.00000000000E+00  0.00000000000E+00  0.26795473348E+04  0.26795473348E+04  0.00000000000E+00 0. -1.
          1   -1    0    0  501    0 -0.00000000000E+00 -0.00000000000E+00 -0.25800514659E+03  0.25800514659E+03  0.00000000000E+00 0. -1.
         25    2    1    2    0    0  0.33410526654E+02  0.36293101359E+02 -0.10842034616E+03  0.17266250310E+03  0.12499566400E+03 0.  0.
          2    1    1    2  501    0 -0.82777815854E+01  0.18651489914E+02 -0.11623003871E+03  0.11800771857E+03  0.00000000000E+00 0. -1.
          1    1    1    2  502    0 -0.25132745068E+02 -0.54944591272E+02  0.26461925731E+04  0.26468822597E+04  0.00000000000E+00 0. -1.
         22    1    3    3    0    0 -0.19361789011E+02  0.48867128013E+02 -0.12893244658E+01  0.52578868678E+02  0.00000000000E+00 0.  1.
         22    1    3    3    0    0  0.52772315664E+02 -0.12574026654E+02 -0.10713102169E+03  0.12008363442E+03  0.00000000000E+00 0.  1.
</event>
<event>
 7    1  0.5970484E-006  0.2018403E+03  0.7818608E-02  0.1266514E+00
          2   -1    0    0  502    0  0.00000000000E+00  0.00000000000E+00  0.90865399338E+03  0.90865399338E+03  0.00000000000E+00 0. -1.
          1   -1    0    0  501    0 -0.00000000000E+00 -0.00000000000E+00 -0.79454911303E+03  0.79454911303E+03  0.00000000000E+00 0. -1.
         25    2    1    2    0    0 -0.43840095896E+02  0.16157915672E+03  0.35596118607E+03  0.41275055164E+03  0.12499949596E+03 0.  0.
          2    1    1    2  501    0  0.97957464846E+02 -0.17804184796E+03 -0.75108616835E+03  0.77809060965E+03  0.00000000000E+00 0. -1.
          1    1    1    2  502    0 -0.54117368950E+02  0.16462691242E+02  0.50922986262E+03  0.51236194512E+03  0.00000000000E+00 0. -1.
         22    1    3    3    0    0  0.91568357494E+01  0.10192642556E+03  0.94179336153E+02  0.13907764460E+03  0.00000000000E+00 0. -1.
         22    1    3    3    0    0 -0.52996931645E+02  0.59652731156E+02  0.26178184992E+03  0.27367290704E+03  0.00000000000E+00 0. -1.
</event>
<event>
 7    1  0.5970484E-006  0.6726008E+02  0.7818608E-02  0.1491055E+00
          2   -1    0    0  502    0  0.00000000000E+00  0.00000000000E+00  0.17654572034E+04  0.17654572034E+04  0.00000000000E+00 0. -1.
          1   -1    0    0  501    0 -0.00000000000E+00 -0.00000000000E+00 -0.28865727771E+03  0.28865727771E+03  0.00000000000E+00 0. -1.
         25    2    1    2    0    0  0.46408069111E+02 -0.81162996929E+02  0.12961383185E+03  0.20289596668E+03  0.12500354771E+03 0.  0.
          2    1    1    2  501    0 -0.14255392775E+02  0.22654290284E+02 -0.25060646348E+03  0.25203180877E+03  0.00000000000E+00 0. -1.
          1    1    1    2  502    0 -0.32152676336E+02  0.58508706645E+02  0.15977925574E+04  0.15991867057E+04  0.00000000000E+00 0. -1.
         22    1    3    3    0    0  0.37564029823E+02  0.11985793819E+02  0.95472032390E+02  0.10329387474E+03  0.00000000000E+00 0. -1.
         22    1    3    3    0    0  0.88440392876E+01 -0.93148790748E+02  0.34141799464E+02  0.99602091942E+02  0.00000000000E+00 0. -1.
</event>
<event>
 7    1  0.5970484E-006  0.6664037E+02  0.7818608E-02  0.1388117E+00
          2   -1    0    0  502    0  0.00000000000E+00  0.00000000000E+00  0.57735432665E+03  0.57735432665E+03  0.00000000000E+00 0. -1.
          1   -1    0    0  501    0 -0.00000000000E+00 -0.00000000000E+00 -0.37079759402E+03  0.37079759402E+03  0.00000000000E+00 0. -1.
         25    2    1    2    0    0 -0.28980819642E+02 -0.73411924300E+02  0.33106056677E+03  0.36256817828E+03  0.12500154596E+03 0.  0.
          2    1    1    2  501    0  0.57337035471E+02  0.11024989739E+02 -0.34746101312E+03  0.35233257254E+03  0.00000000000E+00 0. -1.
          1    1    1    2  502    0 -0.28356215829E+02  0.62386934562E+02  0.22295717897E+03  0.23325116985E+03  0.00000000000E+00 0. -1.
         22    1    3    3    0    0 -0.37172607079E+02  0.27507772533E+02  0.92712010067E+02  0.10360500508E+03  0.00000000000E+00 0.  1.
         22    1    3    3    0    0  0.81917874378E+01 -0.10091969683E+03  0.23834855671E+03  0.25896317320E+03  0.00000000000E+00 0.  1.
</event>
<event>
 7    1  0.5970484E-006  0.5035288E+02  0.7818608E-02  0.1475691E+00
          2   -1    0    0  502    0  0.00000000000E+00  0.00000000000E+00  0.23803954544E+04  0.23803954544E+04  0.00000000000E+00 0. -1.
          1   -1    0    0  501    0 -0.00000000000E+00 -0.00000000000E+00 -0.95993330694E+03  0.95993330694E+03  0.00000000000E+00 0. -1.
         25    2    1    2    0    0  0.45421947216E+02  0.53607100135E+01  0.16545998119E+04  0.16599443893E+04  0.12499179032E+03 0.  0.
          2    1    1    2  501    0 -0.28587490082E+02 -0.41460580809E+02 -0.95604924688E+03  0.95737473688E+03  0.00000000000E+00 0. -1.
          1    1    1    2  502    0 -0.16834457134E+02  0.36099870796E+02  0.72191158250E+03  0.72300963518E+03  0.00000000000E+00 0. -1.
         22    1    3    3    0    0  0.34788499649E+02 -0.29070686630E+02  0.15178284995E+04  0.15185054160E+04  0.00000000000E+00 0. -1.
         22    1    3    3    0    0  0.10633447567E+02  0.34431396644E+02  0.13677131234E+03  0.14143897328E+03  0.00000000000E+00 0. -1.
</event>
<event>
 7    1  0.5970484E-006  0.5428770E+02  0.7818608E-02  0.1434836E+00
          2   -1    0    0  502    0  0.00000000000E+00  0.00000000000E+00  0.18977582921E+04  0.18977582921E+04  0.00000000000E+00 0. -1.
          1   -1    0    0  501    0 -0.00000000000E+00 -0.00000000000E+00 -0.20204979917E+04  0.20204979917E+04  0.00000000000E+00 0. -1.
         25    2    1    2    0    0  0.66698243355E+02  0.64166609435E+02  0.36519142794E+03  0.39693270610E+03  0.12499913878E+03 0.  0.
          2    1    1    2  501    0 -0.51629436704E+02 -0.16689194791E+02 -0.20038510354E+04  0.20045855183E+04  0.00000000000E+00 0. -1.
          1    1    1    2  502    0 -0.15068806650E+02 -0.47477414644E+02  0.15159199079E+04  0.15167380594E+04  0.00000000000E+00 0. -1.
         22    1    3    3    0    0 -0.20652931857E+00 -0.35491600027E+02  0.81625162145E+02  0.89007659345E+02  0.00000000000E+00 0.  1.
         22    1    3    3    0    0  0.66904772673E+02  0.99658209462E+02  0.28356626580E+03  0.30792504675E+03  0.00000000000E+00 0.  1.
</event>
<event>
 7    1  0.5970484E-006  0.1265752E+03  0.7818608E-02  0.1373502E+00
          2   -1    0    0  502    0  0.00000000000E+00  0.00000000000E+00  0.23826916722E+04  0.23826916722E+04  0.00000000000E+00 0. -1.
          1   -1    0    0  501    0 -0.00000000000E+00 -0.00000000000E+00 -0.38855601215E+03  0.38855601215E+03  0.00000000000E+00 0. -1.
         25    2    1    2    0    0  0.25439942014E+02  0.15087521581E+03  0.11537173750E+03  0.22879224021E+03  0.12499891988E+03 0.  0.
          2    1    1    2  501    0 -0.38477752349E+02 -0.11879711939E+03 -0.31995721850E+03  0.34346166405E+03  0.00000000000E+00 0. -1.
          1    1    1    2  502    0  0.13037810335E+02 -0.32078096419E+02  0.21987211411E+04  0.21989937801E+04  0.00000000000E+00 0. -1.
         22    1    3    3    0    0 -0.35177727315E+02  0.10725968177E+03  0.10355437275E+03  0.15318492076E+03  0.00000000000E+00 0.  1.
         22    1    3    3    0    0  0.60617669329E+02  0.43615534033E+02  0.11817364749E+02  0.75607319444E+02  0.00000000000E+00 0.  1.
</event>
<event>
 7    1  0.5970484E-006  0.6975745E+02  0.7818608E-02  0.1443734E+00
          2   -1    0    0  502    0  0.00000000000E+00  0.00000000000E+00  0.15734066231E+04  0.15734066231E+04  0.00000000000E+00 0. -1.
          1   -1    0    0  501    0 -0.00000000000E+00 -0.00000000000E+00 -0.12479245435E+03  0.12479245435E+03  0.00000000000E+00 0. -1.
         25    2    1    2    0    0  0.50992508019E+02  0.67579700350E+02  0.52307368762E+02  0.15977513791E+03  0.12499912837E+03 0.  0.
          2    1    1    2  501    0 -0.36265520804E+02  0.49158732684E+00 -0.65546903785E+02  0.74912123539E+02  0.00000000000E+00 0. -1.
          1    1    1    2  502    0 -0.14726987215E+02 -0.68071287677E+02  0.14618537038E+04  0.14635118160E+04  0.00000000000E+00 0. -1.
         22    1    3    3    0    0 -0.20994467365E+02  0.32603698871E+02  0.67940688803E+02  0.78228549999E+02  0.00000000000E+00 0.  1.
         22    1    3    3    0    0  0.71986975384E+02  0.34976001478E+02 -0.15633320041E+02  0.81546587911E+02  0.00000000000E+00 0.  1.
</event>
<event>
 7    1  0.5970484E-006  0.3690764E+02  0.7818608E-02  0.1537935E+00
          2   -1    0    0  502    0  0.00000000000E+00  0.00000000000E+00  0.10723938245E+04  0.10723938245E+04  0.00000000000E+00 0. -1.
          1   -1    0    0  501    0 -0.00000000000E+00 -0.00000000000E+00 -0.12592156574E+02  0.12592156574E+02  0.00000000000E+00 0. -1.
         25    2    1    2    0    0 -0.14488424578E+02 -0.10554311713E+02  0.41445290649E+03  0.43326500497E+03  0.12500417948E+03 0.  0.
          2    1    1    2  501    0  0.22053302198E+02 -0.27903520611E+02  0.12681513549E+03  0.13170813639E+03  0.00000000000E+00 0. -1.
          1    1    1    2  502    0 -0.75648776195E+01  0.38457832324E+02  0.51853362596E+03  0.52001283973E+03  0.00000000000E+00 0. -1.
         22    1    3    3    0    0  0.51987897475E+02  0.26288897546E+01  0.25061065741E+03  0.25595967290E+03  0.00000000000E+00 0.  1.
         22    1    3    3    0    0 -0.66476322053E+02 -0.13183201468E+02  0.16384224908E+03  0.17730533206E+03  0.00000000000E+00 0.  1.
</event>
<event>
 7    1  0.5970484E-006  0.4033991E+02  0.7818608E-02  0.1612887E+00
          2   -1    0    0  502    0  0.00000000000E+00  0.00000000000E+00  0.49350003493E+03  0.49350003493E+03  0.00000000000E+00 0. -1.
          1   -1    0    0  501    0 -0.00000000000E+00 -0.00000000000E+00 -0.14610412053E+03  0.14610412053E+03  0.00000000000E+00 0. -1.
         25    2    1    2    0    0  0.24008501042E+02 -0.16298174931E+02  0.31738407869E+02  0.13218991441E+03  0.12499923323E+03 0.  0.
          2    1    1    2  501    0  0.16414548317E+02  0.12151060244E+02 -0.93773528626E+02  0.95971664217E+02  0.00000000000E+00 0. -1.
          1    1    1    2  502    0 -0.40423049360E+02  0.41471146873E+01  0.40943103516E+03  0.41144257683E+03  0.00000000000E+00 0. -1.
         22    1    3    3    0    0 -0.45418220583E+02  0.85048693652E+01  0.35650680787E+02  0.58361961966E+02  0.00000000000E+00 0. -1.
         22    1    3    3    0    0  0.69426721626E+02 -0.24803044297E+02 -0.39122729183E+01  0.73827952440E+02  0.00000000000E+00 0. -1.
</event>
<event>
 7    1  0.5970484E-006  0.1399282E+03  0.7818608E-02  0.1409814E+00
          2   -1    0    0  502    0  0.00000000000E+00  0.00000000000E+00  0.58730850344E+03  0.58730850344E+03  0.00000000000E+00 0. -1.
          1   -1    0    0  501    0 -0.00000000000E+00 -0.00000000000E+00 -0.13273291140E+04  0.13273291140E+04  0.00000000000E+00 0. -1.
         25    2    1    2    0    0 -0.14757610467E+03  0.68430388834E+02 -0.61884308218E+03  0.65196116704E+03  0.12500071269E+03 0.  0.
          2    1    1    2  501    0  0.19350954928E+02 -0.13176738982E+02 -0.68318442481E+03  0.68358543300E+03  0.00000000000E+00 0. -1.
          1    1    1    2  502    0  0.12822514974E+03 -0.55253649852E+02  0.56200689641E+03  0.57909101743E+03  0.00000000000E+00 0. -1.
         22    1    3    3    0    0 -0.97668526176E+01  0.38497171154E+02 -0.40701147233E+02  0.56868330228E+02  0.00000000000E+00 0. -1.
         22    1    3    3    0    0 -0.13780925205E+03  0.29933217681E+02 -0.57814193495E+03  0.59509283681E+03  0.00000000000E+00 0. -1.
</event>
<event>
 7    1  0.5970484E-006  0.4495107E+02  0.7818608E-02  0.1484869E+00
          2   -1    0    0  502    0  0.00000000000E+00  0.00000000000E+00  0.53780215178E+03  0.53780215178E+03  0.00000000000E+00 0. -1.
          1   -1    0    0  501    0 -0.00000000000E+00 -0.00000000000E+00 -0.74720830027E+03  0.74720830027E+03  0.00000000000E+00 0. -1.
         25    2    1    2    0    0 -0.78474989624E+02  0.22729203328E+02  0.34498200696E+03  0.37591446447E+03  0.12499663513E+03 0.  0.
          2    1    1    2  501    0  0.44838977834E+02  0.21190182425E+01 -0.72857651330E+03  0.72995805353E+03  0.00000000000E+00 0. -1.
          1    1    1    2  502    0  0.33636011790E+02 -0.24848221570E+02  0.17418835785E+03  0.17913793405E+03  0.00000000000E+00 0. -1.
         22    1    3    3    0    0  0.44226109509E+01 -0.41206575079E+02  0.13604014929E+03  0.14221274042E+03  0.00000000000E+00 0. -1.
         22    1    3    3    0    0 -0.82897600575E+02  0.63935778407E+02  0.20894185766E+03  0.23370172405E+03  0.00000000000E+00 0. -1.
</event>
<event>
 7    1  0.5970484E-006  0.7724505E+02  0.7818608E-02  0.1405856E+00
          2   -1    0    0  502    0  0.00000000000E+00  0.00000000000E+00  0.20768527194E+04  0.20768527194E+04  0.00000000000E+00 0. -1.
          1   -1    0    0  501    0 -0.00000000000E+00 -0.00000000000E+00 -0.11923287739E+03  0.11923287739E+03  0.00000000000E+00 0. -1.
         25    2    1    2    0    0  0.70683703085E+02 -0.56791591279E+02  0.32914182660E+02  0.15789197486E+03  0.12500024633E+03 0.  0.
          2    1    1    2  501    0 -0.74780996768E+02  0.13240438831E+02 -0.30979196064E+02  0.82019615257E+02  0.00000000000E+00 0. -1.
          1    1    1    2  502    0  0.40972936830E+01  0.43551152448E+02  0.19556848554E+04  0.19561740067E+04  0.00000000000E+00 0. -1.
         22    1    3    3    0    0 -0.18597610104E+02 -0.49332487329E+02  0.42594721664E+02  0.67778136012E+02  0.00000000000E+00 0. -1.
         22    1    3    3    0    0  0.89281313189E+02 -0.74591039503E+01 -0.96805390039E+01  0.90113838848E+02  0.00000000000E+00 0. -1.
</event>
<event>
 7    1  0.5970484E-006  0.1010999E+03  0.7818608E-02  0.1368583E+00
          2   -1    0    0  502    0  0.00000000000E+00  0.00000000000E+00  0.65652290377E+03  0.65652290377E+03  0.00000000000E+00 0. -1.
          1   -1    0    0  501    0 -0.00000000000E+00 -0.00000000000E+00 -0.84026889631E+03  0.84026889631E+03  0.00000000000E+00 0. -1.
         25    2    1    2    0    0  0.82962447129E+02 -0.18672676939E+01 -0.38681006402E+03  0.41489336693E+03  0.12501290320E+03 0.  0.
          2    1    1    2  501    0  0.71320124927E+01 -0.44583522023E+02 -0.43424135854E+03  0.43658231011E+03  0.00000000000E+00 0. -1.
          1    1    1    2  502    0 -0.90094459622E+02  0.46450789717E+02  0.63730543002E+03  0.64531612304E+03  0.00000000000E+00 0. -1.
         22    1    3    3    0    0 -0.29493292321E+02  0.19550168139E+02 -0.82794404897E+02  0.90038751926E+02  0.00000000000E+00 0.  1.
         22    1    3    3    0    0  0.11245573945E+03 -0.21417435833E+02 -0.30401565913E+03  0.32485461500E+03  0.00000000000E+00 0.  1.
</event>
<event>
 7    1  0.5970484E-006  0.2205543E+03  0.7818608E-02  0.1188309E+00
          2   -1    0    0  502    0  0.00000000000E+00  0.00000000000E+00  0.39134322906E+04  0.39134322906E+04  0.00000000000E+00 0. -1.
          1   -1    0    0  501    0 -0.00000000000E+00 -0.00000000000E+00 -0.51167450397E+03  0.51167450397E+03  0.00000000000E+00 0. -1.
         25    2    1    2    0    0  0.10961486903E+03  0.92587691767E+02  0.87055897393E+02  0.20926437480E+03  0.12499979644E+03 0.  0.
          2    1    1    2  501    0 -0.11560000970E+03 -0.20900419311E+03 -0.41794414344E+03  0.48137659064E+03  0.00000000000E+00 0. -1.
          1    1    1    2  502    0  0.59851406680E+01  0.11641650135E+03  0.37326460327E+04  0.37344658292E+04  0.00000000000E+00 0. -1.
         22    1    3    3    0    0  0.73005522722E+02  0.11643806917E+03  0.36008596789E+02  0.14207128261E+03  0.00000000000E+00 0.  1.
         22    1    3    3    0    0  0.36609346313E+02 -0.23850377399E+02  0.51047300604E+02  0.67193092193E+02  0.00000000000E+00 0.  1.
</event>
<event>
 7    1  0.5970484E-006  0.1216826E+03  0.7818608E-02  0.1290393E+00
          2   -1    0    0  502    0  0.00000000000E+00  0.00000000000E+00  0.73187612778E+03  0.73187612778E+03  0.00000000000E+00 0. -1.
          1   -1    0    0  501    0 -0.00000000000E+00 -0.00000000000E+00 -0.43238048376E+03  0.43238048376E+03  0.00000000000E+00 0. -1.
         25    2    1    2    0    0  0.10034957587E+03 -0.15055534672E+03  0.16958177579E+03  0.27770547193E+03  0.12500160262E+03 0.  0.
          2    1    1    2  501    0 -0.61642522207E+02  0.42217743697E+02 -0.36800588790E+03  0.37551361088E+03  0.00000000000E+00 0. -1.
          1    1    1    2  502    0 -0.38707053667E+02  0.10833760302E+03  0.49791975613E+03  0.51103752873E+03  0.00000000000E+00 0. -1.
         22    1    3    3    0    0  0.31729928355E+02 -0.12723194779E+03  0.15630466501E+03  0.20402427600E+03  0.00000000000E+00 0.  1.
         22    1    3    3    0    0  0.68619647518E+02 -0.23323398923E+02  0.13277110776E+02  0.73681195928E+02  0.00000000000E+00 0.  1.
</event>
<event>
 7    1  0.5970484E-006  0.5487502E+02  0.7818608E-02  0.1481590E+00
          2   -1    0    0  502    0  0.00000000000E+00  0.00000000000E+00  0.26861564927E+03  0.26861564927E+03  0.00000000000E+00 0. -1.
          1   -1    0    0  501    0 -0.00000000000E+00 -0.00000000000E+00 -0.19842840271E+04  0.19842840271E+04  0.00000000000E+00 0. -1.
         25    2    1    2    0    0 -0.12000147483E+02 -0.81567530279E+02 -0.65569327796E+02  0.16346557090E+03  0.12499756233E+03 0.  0.
          2    1    1    2  501    0  0.24580578359E+02  0.48847502594E+02 -0.18679653516E+04  0.18687655921E+04  0.00000000000E+00 0. -1.
          1    1    1    2  502    0 -0.12580430876E+02  0.32720027685E+02  0.21786630156E+03  0.22066851340E+03  0.00000000000E+00 0. -1.
         22    1    3    3    0    0 -0.45814549790E+02 -0.21360815991E+02 -0.78348679031E+02  0.93240404001E+02  0.00000000000E+00 0. -1.
         22    1    3    3    0    0  0.33814402307E+02 -0.60206714287E+02  0.12779351235E+02  0.70225166904E+02  0.00000000000E+00 0. -1.
</event>
<event>
 7    1  0.5970484E-006  0.6854475E+02  0.7818608E-02  0.1502452E+00
          2   -1    0    0  502    0  0.00000000000E+00  0.00000000000E+00  0.49840830827E+03  0.49840830827E+03  0.00000000000E+00 0. -1.
          1   -1    0    0  501    0 -0.00000000000E+00 -0.00000000000E+00 -0.14210022002E+04  0.14210022002E+04  0.00000000000E+00 0. -1.
         25    2    1    2    0    0  0.10116479881E+02  0.73849831114E+02 -0.59252471452E+02  0.15713849490E+03  0.12500204192E+03 0.  0.
          2    1    1    2  501    0  0.20703186630E+02 -0.12680218011E+02 -0.13100840676E+04  0.13103089995E+04  0.00000000000E+00 0. -1.
          1    1    1    2  502    0 -0.30819666511E+02 -0.61169613103E+02  0.44674264710E+03  0.45196301414E+03  0.00000000000E+00 0. -1.
         22    1    3    3    0    0  0.21965062322E+02 -0.31135230681E+02 -0.26908602250E+02  0.46646965897E+02  0.00000000000E+00 0. -1.
         22    1    3    3    0    0 -0.11848582441E+02  0.10498506179E+03 -0.32343869202E+02  0.11049152900E+03  0.00000000000E+00 0. -1.
</event>
<event>
 7    1  0.5970484E-006  0.1137112E+03  0.7818608E-02  0.1296575E+00
          2   -1    0    0  502    0  0.00000000000E+00  0.00000000000E+00  0.17818404647E+03  0.17818404647E+03  0.00000000000E+00 0. -1.
          1   -1    0    0  501    0 -0.00000000000E+00 -0.00000000000E+00 -0.95592055536E+03  0.95592055536E+03  0.00000000000E+00 0. -1.
         25    2    1    2    0    0  0.78632426971E+02  0.10953340299E+03 -0.22426223672E+03  0.28999820652E+03  0.12499913610E+03 0.  0.
          2    1    1    2  501    0 -0.10649610494E+03 -0.39386512135E+02 -0.68398281504E+03  0.69334349998E+03  0.00000000000E+00 0. -1.
          1    1    1    2  502    0  0.27863677968E+02 -0.70146890850E+02  0.13050854287E+03  0.15076289533E+03  0.00000000000E+00 0. -1.
         22    1    3    3    0    0  0.74160648717E+02  0.10774057606E+01 -0.75416994170E+02  0.10577658357E+03  0.00000000000E+00 0.  1.
         22    1    3    3    0    0  0.44717782536E+01  0.10845599722E+03 -0.14884524255E+03  0.18422162295E+03  0.00000000000E+00 0.  1.
</event>
<event>
 7    1  0.5970484E-006  0.1113618E+03  0.7818608E-02  0.1344062E+00
          2   -1    0    0  502    0  0.00000000000E+00  0.00000000000E+00  0.29277872220E+04  0.29277872220E+04  0.00000000000E+00 0. -1.
          1   -1    0    0  501    0 -0.00000000000E+00 -0.00000000000E+00 -0.77285163995E+03  0.77285163995E+03  0.00000000000E+00 0. -1.
         25    2    1    2    0    0 -0.49145090136E+01  0.62607343481E+02  0.27688907398E+03  0.31021921780E+03  0.12499828778E+03 0.  0.
          2    1    1    2  501    0  0.23061305206E+02 -0.10965735823E+03 -0.75179223989E+03  0.76009744899E+03  0.00000000000E+00 0. -1.
          1    1    1    2  502    0 -0.18146796192E+02  0.47050014753E+02  0.26298387480E+04  0.26303221952E+04  0.00000000000E+00 0. -1.
         22    1    3    3    0    0 -0.56238610830E+02  0.67917495947E+02  0.18055216667E+03  0.20093444825E+03  0.00000000000E+00 0.  1.
         22    1    3    3    0    0  0.51324101816E+02 -0.53101524655E+01  0.96336907307E+02  0.10928476955E+03  0.00000000000E+00 0.  1.
</event>
<event>
 7    1  0.5970484E-006  0.7284164E+02  0.7818608E-02  0.1368351E+00
          2   -1    0    0  502    0  0.00000000000E+00  0.00000000000E+00  0.59409485201E+03  0.59409485201E+03  0.00000000000E+00 0. -1.
          1   -1    0    0  501    0 -0.00000000000E+00 -0.00000000000E+00 -0.92082793482E+02  0.92082793482E+02  0.00000000000E+00 0. -1.
         25    2    1    2    0    0 -0.56955956157E+02  0.51542413057E+02  0.71206857922E+02  0.16308272567E+03  0.12499983004E+03 0.  0.
          2    1    1    2  501    0  0.77216249622E+02  0.78859677497E+01 -0.96244847364E+01  0.78212328948E+02  0.00000000000E+00 0. -1.
          1    1    1    2  502    0 -0.20260293464E+02 -0.59428380807E+02  0.44042968534E+03  0.44488259088E+03  0.00000000000E+00 0. -1.
         22    1    3    3    0    0 -0.19614882518E+02 -0.15413135364E+02 -0.28133152526E+02  0.37600300916E+02  0.00000000000E+00 0.  1.
         22    1    3    3    0    0 -0.37341073639E+02  0.66955548421E+02  0.99340010448E+02  0.12548242475E+03  0.00000000000E+00 0.  1.
</event>
<event>
 7    1  0.5970484E-006  0.6678822E+02  0.7818608E-02  0.1431123E+00
          2   -1    0    0  502    0  0.00000000000E+00  0.00000000000E+00  0.32740633673E+03  0.32740633673E+03  0.00000000000E+00 0. -1.
          1   -1    0    0  501    0 -0.00000000000E+00 -0.00000000000E+00 -0.18510668875E+04  0.18510668875E+04  0.00000000000E+00 0. -1.
         25    2    1    2    0    0  0.72693798396E+02 -0.71852168343E+02 -0.18795257491E+03  0.24778684874E+03  0.12500011828E+03 0.  0.
          2    1    1    2  501    0 -0.15336443778E+02  0.38712063692E+02 -0.16292402296E+04  0.16297722406E+04  0.00000000000E+00 0. -1.
          1    1    1    2  502    0 -0.57357354619E+02  0.33140104651E+02  0.29353225369E+03  0.30091413497E+03  0.00000000000E+00 0. -1.
         22    1    3    3    0    0 -0.17847970701E+02 -0.65115973341E+02 -0.56562966479E+02  0.88079561870E+02  0.00000000000E+00 0. -1.
         22    1    3    3    0    0  0.90541769098E+02 -0.67361950019E+01 -0.13138960843E+03  0.15970728687E+03  0.00000000000E+00 0. -1.
</event>
<event>
 7    1  0.5970484E-006  0.2618515E+02  0.7818608E-02  0.1654561E+00
          2   -1    0    0  502    0  0.00000000000E+00  0.00000000000E+00  0.11749146853E+04  0.11749146853E+04  0.00000000000E+00 0. -1.
          1   -1    0    0  501    0 -0.00000000000E+00 -0.00000000000E+00 -0.92209145203E+03  0.92209145203E+03  0.00000000000E+00 0. -1.
         25    2    1    2    0    0  0.34958899184E+01  0.33742324162E+01 -0.34529324293E+03  0.36727039226E+03  0.12504603444E+03 0.  0.
          2    1    1    2  501    0 -0.25925350747E+02  0.70744908325E+01 -0.56535892943E+03  0.56599725381E+03  0.00000000000E+00 0. -1.
          1    1    1    2  502    0  0.22429460829E+02 -0.10448723249E+02  0.11634754057E+04  0.11637384913E+04  0.00000000000E+00 0. -1.
         22    1    3    3    0    0  0.18561789219E+02  0.53062232281E+02 -0.85400011982E+02  0.10224139358E+03  0.00000000000E+00 0.  1.
         22    1    3    3    0    0 -0.15065899301E+02 -0.49687999865E+02 -0.25989323094E+03  0.26502899868E+03  0.00000000000E+00 0.  1.
</event>
<event>
 7    1  0.5970484E-006  0.9229518E+02  0.7818608E-02  0.1329546E+00
          2   -1    0    0  502    0  0.00000000000E+00  0.00000000000E+00  0.11308263252E+04  0.11308263252E+04  0.00000000000E+00 0. -1.
          1   -1    0    0  501    0 -0.00000000000E+00 -0.00000000000E+00 -0.26089230427E+03  0.26089230427E+03  0.00000000000E+00 0. -1.
         25    2    1    2    0    0  0.21013975878E+01 -0.14847839181E+03  0.56544749919E+02  0.20217048029E+03  0.12500138260E+03 0.  0.
          2    1    1    2  501    0  0.28514024210E+02  0.62878332600E+02 -0.17959621998E+03  0.19240981399E+03  0.00000000000E+00 0. -1.
          1    1    1    2  502    0 -0.30615421798E+02  0.85600059209E+02  0.99298549095E+03  0.99713833515E+03  0.00000000000E+00 0. -1.
         22    1    3    3    0    0 -0.25634129146E+02  0.14043164254E+02  0.88495849410E+01  0.30539060119E+02  0.00000000000E+00 0.  1.
         22    1    3    3    0    0  0.27735526733E+02 -0.16252155606E+03  0.47695164978E+02  0.17163142017E+03  0.00000000000E+00 0.  1.
</event>
<event>
 7    1  0.5970484E-006  0.3022041E+03  0.7818608E-02  0.1320633E+00
          2   -1    0    0  502    0  0.00000000000E+00  0.00000000000E+00  0.15057197992E+04  0.15057197992E+04  0.00000000000E+00 0. -1.
          1   -1    0    0  501    0 -0.00000000000E+00 -0.00000000000E+00 -0.11745512560E+04  0.11745512560E+04  0.00000000000E+00 0. -1.
         25    2    1    2    0    0 -0.29766017668E+03 -0.95630843971E+02  0.70189155352E+03  0.77847505365E+03  0.12499926865E+03 0.  0.
          2    1    1    2  501    0  0.21617202388E+02 -0.73083232106E+01 -0.11077927638E+04  0.11080277625E+04  0.00000000000E+00 0. -1.
          1    1    1    2  502    0  0.27604297429E+03  0.10293916718E+03  0.73706975343E+03  0.79376823899E+03  0.00000000000E+00 0. -1.
         22    1    3    3    0    0 -0.21921291079E+03 -0.10975552117E+03  0.60644646507E+03  0.65412375715E+03  0.00000000000E+00 0. -1.
         22    1    3    3    0    0 -0.78447265893E+02  0.14124677194E+02  0.95445088449E+02  0.12435129650E+03  0.00000000000E+00 0. -1.
</event>
<event>
 7    1  0.5970484E-006  0.1455701E+03  0.7818608E-02  0.1353482E+00
          2   -1    0    0  502    0  0.00000000000E+00  0.00000000000E+00  0.80031773075E+02  0.80031773075E+02  0.00000000000E+00 0. -1.
          1   -1    0    0  501    0 -0.00000000000E+00 -0.00000000000E+00 -0.22216068480E+04  0.22216068480E+04  0.00000000000E+00 0. -1.
         25    2    1    2    0    0 -0.87981718174E+02  0.13028748589E+03 -0.37192678016E+03  0.42269415680E+03  0.12500083472E+03 0.  0.
          2    1    1    2  501    0 -0.16266949724E+02 -0.31658637425E+02 -0.17295780699E+04  0.17299442716E+04  0.00000000000E+00 0. -1.
          1    1    1    2  502    0  0.10424866790E+03 -0.98628848469E+02 -0.40070224932E+02  0.14900019273E+03  0.00000000000E+00 0. -1.
         22    1    3    3    0    0 -0.17171075544E+02 -0.24794870519E+02 -0.49319469942E+02  0.57810393138E+02  0.00000000000E+00 0.  1.
         22    1    3    3    0    0 -0.70810642630E+02  0.15508235641E+03 -0.32260731022E+03  0.36488376366E+03  0.00000000000E+00 0.  1.
</event>
<event>
 7    1  0.5970484E-006  0.5216883E+02  0.7818608E-02  0.1467928E+00
          2   -1    0    0  502    0  0.00000000000E+00  0.00000000000E+00  0.11528116927E+04  0.11528116927E+04  0.00000000000E+00 0. -1.
          1   -1    0    0  501    0 -0.00000000000E+00 -0.00000000000E+00 -0.30062172263E+02  0.30062172263E+02  0.00000000000E+00 0. -1.
         25    2    1    2    0    0  0.14382916128E+02 -0.11099473684E+02  0.28757878056E+03  0.31409913672E+03  0.12500658410E+03 0.  0.
          2    1    1    2  501    0 -0.52922594692E+02  0.23989433538E+02  0.35542135875E+02  0.68114149580E+02  0.00000000000E+00 0. -1.
          1    1    1    2  502    0  0.38539678564E+02 -0.12889959854E+02  0.79962860402E+03  0.80066057868E+03  0.00000000000E+00 0. -1.
         22    1    3    3    0    0 -0.39324551289E+01  0.56217079749E+02  0.13737251659E+03  0.14848243186E+03  0.00000000000E+00 0. -1.
         22    1    3    3    0    0  0.18315371257E+02 -0.67316553433E+02  0.15020626397E+03  0.16561670485E+03  0.00000000000E+00 0. -1.
</event>
<event>
 7    1  0.5970484E-006  0.6951434E+02  0.7818608E-02  0.1420760E+00
          2   -1    0    0  502    0  0.00000000000E+00  0.00000000000E+00  0.11937828368E+04  0.11937828368E+04  0.00000000000E+00 0. -1.
          1   -1    0    0  501    0 -0.00000000000E+00 -0.00000000000E+00 -0.23633990675E+03  0.23633990675E+03  0.00000000000E+00 0. -1.
         25    2    1    2    0    0  0.49241146560E+02  0.18004720948E+01  0.19693394805E+02  0.13580165848E+03  0.12500531362E+03 0.  0.
          2    1    1    2  501    0 -0.60099196461E+02  0.40111495196E+02 -0.17052479940E+03  0.18520138410E+03  0.00000000000E+00 0. -1.
          1    1    1    2  502    0  0.10858049901E+02 -0.41911967290E+02  0.11082743346E+04  0.11091197010E+04  0.00000000000E+00 0. -1.
         22    1    3    3    0    0  0.11065181757E+02 -0.52789659427E+01  0.70668293637E+02  0.71723869488E+02  0.00000000000E+00 0.  1.
         22    1    3    3    0    0  0.38175964803E+02  0.70794380375E+01 -0.50974898832E+02  0.64077788995E+02  0.00000000000E+00 0.  1.
</event>
<event>
 7    1  0.5970484E-006  0.8170579E+02  0.7818608E-02  0.1424342E+00
          2   -1    0    0  502    0  0.00000000000E+00  0.00000000000E+00  0.19325574365E+03  0.19325574365E+03  0.00000000000E+00 0. -1.
          1   -1    0    0  501    0 -0.00000000000E+00 -0.00000000000E+00 -0.13627616076E+04  0.13627616076E+04  0.00000000000E+00 0. -1.
         25    2    1    2    0    0  0.87153794100E+02 -0.11490517799E+02 -0.50483536656E+03  0.52745893146E+03  0.12500544476E+03 0.  0.
          2    1    1    2  501    0 -0.69667174772E+02  0.42773075041E+02 -0.84285263204E+03  0.84680789470E+03  0.00000000000E+00 0. -1.
          1    1    1    2  502    0 -0.17486619329E+02 -0.31282557242E+02  0.17818213468E+03  0.18175052507E+03  0.00000000000E+00 0. -1.
         22    1    3    3    0    0  0.11426145591E+03 -0.28059335707E+02 -0.34540781029E+03  0.36489664569E+03  0.00000000000E+00 0. -1.
         22    1    3    3    0    0 -0.27107661807E+02  0.16568817908E+02 -0.15942755627E+03  0.16256228577E+03  0.00000000000E+00 0. -1.
</event>
<event>
 7    1  0.5970484E-006  0.6847982E+02  0.7818608E-02  0.1368286E+00
          2   -1    0    0  502    0  0.00000000000E+00  0.00000000000E+00  0.23369966544E+04  0.23369966544E+04  0.00000000000E+00 0. -1.
          1   -1    0    0  501    0 -0.00000000000E+00 -0.00000000000E+00 -0.20728600880E+03  0.20728600880E+03  0.00000000000E+00 0. -1.
         25    2    1    2    0    0  0.66454682000E+02 -0.62321561463E+02  0.16488691960E+03  0.22607888528E+03  0.12499505724E+03 0.  0.
          2    1    1    2  501    0 -0.68510559814E+02 -0.44693207618E+01 -0.16947791556E+03  0.18285632474E+03  0.00000000000E+00 0. -1.
          1    1    1    2  502    0  0.20558778139E+01  0.66790882225E+02  0.21343016416E+04  0.21353474532E+04  0.00000000000E+00 0. -1.
         22    1    3    3    0    0 -0.32677529467E+02 -0.31325449578E+02  0.80080378505E+02  0.91988976214E+02  0.00000000000E+00 0. -1.
         22    1    3    3    0    0  0.99132211467E+02 -0.30996111886E+02  0.84806541090E+02  0.13408990907E+03  0.00000000000E+00 0. -1.
</event>
<event>
 7    1  0.5970484E-006  0.1363491E+03  0.7818608E-02  0.1299109E+00
          2   -1    0    0  502    0  0.00000000000E+00  0.00000000000E+00  0.31123684066E+03  0.31123684066E+03  0.00000000000E+00 0. -1.
          1   -1    0    0  501    0 -0.00000000000E+00 -0.00000000000E+00 -0.12621788666E+04  0.12621788666E+04  0.00000000000E+00 0. -1.
         25    2    1    2    0    0 -0.76588294088E+02 -0.41297967027E+02 -0.76232999725E+02  0.17031324530E+03  0.12499536953E+03 0.  0.
          2    1    1    2  501    0  0.10263786837E+03  0.96995802415E+02 -0.11308759703E+04  0.11396592376E+04  0.00000000000E+00 0. -1.
          1    1    1    2  502    0 -0.26049574285E+02 -0.55697835388E+02  0.25616694411E+03  0.26344322432E+03  0.00000000000E+00 0. -1.
         22    1    3    3    0    0  0.19716401930E+02 -0.51551121082E+02 -0.22946453162E+02  0.59772855902E+02  0.00000000000E+00 0.  1.
         22    1    3    3    0    0 -0.96304696019E+02  0.10253154055E+02 -0.53286546563E+02  0.11054038940E+03  0.00000000000E+00 0.  1.
</event>
<event>
 7    1  0.5970484E-006  0.1495629E+03  0.7818608E-02  0.1294225E+00
          2   -1    0    0  502    0  0.00000000000E+00  0.00000000000E+00  0.15643763825E+04  0.15643763825E+04  0.00000000000E+00 0. -1.
          1   -1    0    0  501    0 -0.00000000000E+00 -0.00000000000E+00 -0.50529354006E+02  0.50529354006E+02  0.00000000000E+00 0. -1.
         25    2    1    2    0    0 -0.15537016780E+03  0.11750863820E+03  0.96896111434E+03  0.99622227018E+03  0.12500000567E+03 0.  0.
          2    1    1    2  501    0  0.98278573254E+02 -0.10407449987E+03  0.11176195332E+03  0.18160648032E+03  0.00000000000E+00 0. -1.
          1    1    1    2  502    0  0.57091594546E+02 -0.13434138326E+02  0.43312396087E+03  0.43707698603E+03  0.00000000000E+00 0. -1.
         22    1    3    3    0    0 -0.10422943119E+03  0.10745890767E+03  0.44145611361E+03  0.46614878677E+03  0.00000000000E+00 0. -1.
         22    1    3    3    0    0 -0.51140736606E+02  0.10049730531E+02  0.52750500073E+03  0.53007348341E+03  0.00000000000E+00 0. -1.
</event>
<event>
 7    1  0.5970484E-006  0.1195828E+03  0.7818608E-02  0.1322946E+00
          2   -1    0    0  502    0  0.00000000000E+00  0.00000000000E+00  0.57001137551E+03  0.57001137551E+03  0.00000000000E+00 0. -1.
          1   -1    0    0  501    0 -0.00000000000E+00 -0.00000000000E+00 -0.63967403662E+03  0.63967403662E+03  0.00000000000E+00 0. -1.
         25    2    1    2    0    0 -0.60586215941E+02  0.45434381033E+02 -0.13247412560E+03  0.19724988622E+03  0.12499260427E+03 0.  0.
          2    1    1    2  501    0  0.10234339497E+03 -0.83481935982E+02 -0.46408850868E+03  0.48251585261E+03  0.00000000000E+00 0. -1.
          1    1    1    2  502    0 -0.41757179028E+02  0.38047554948E+02  0.52689997316E+03  0.52991967330E+03  0.00000000000E+00 0. -1.
         22    1    3    3    0    0  0.22463134196E+02 -0.19652214415E+02 -0.26634850195E+01  0.29964914179E+02  0.00000000000E+00 0.  1.
         22    1    3    3    0    0 -0.83049350137E+02  0.65086595448E+02 -0.12981064058E+03  0.16728497205E+03  0.00000000000E+00 0.  1.
</event>
<event>
 7    1  0.5970484E-006  0.5219372E+02  0.7818608E-02  0.1491548E+00
          2   -1    0    0  502    0  0.00000000000E+00  0.00000000000E+00  0.17339467493E+04  0.17339467493E+04  0.00000000000E+00 0. -1.
          1   -1    0    0  501    0 -0.00000000000E+00 -0.00000000000E+00 -0.16098134614E+03  0.16098134614E+03  0.00000000000E+00 0. -1.
         25    2    1    2    0    0 -0.27630275103E+02 -0.18740935439E+01  0.11624244308E+02  0.12855733817E+03  0.12499968725E+03 0.  0.
          2    1    1    2  501    0 -0.16482344322E+02  0.30165340696E+02 -0.99208197809E+02  0.10499467589E+03  0.00000000000E+00 0. -1.
          1    1    1    2  502    0  0.44112619426E+02 -0.28291247152E+02  0.16605493567E+04  0.16613760814E+04  0.00000000000E+00 0. -1.
         22    1    3    3    0    0 -0.72641979785E+02 -0.11366740458E+02 -0.15517258200E+02  0.75145494327E+02  0.00000000000E+00 0. -1.
         22    1    3    3    0    0  0.45011704681E+02  0.94926469142E+01  0.27141502508E+02  0.53411843838E+02  0.00000000000E+00 0. -1.
</event>
<event>
 7    1  0.5970484E-006  0.1637979E+03  0.7818608E-02  0.1297048E+00
          2   -1    0    0  502    0  0.00000000000E+00  0.00000000000E+00  0.17621961907E+04  0.17621961907E+04  0.00000000000E+00 0. -1.
          1   -1    0    0  501    0 -0.00000000000E+00 -0.00000000000E+00 -0.54842725371E+02  0.54842725371E+02  0.00000000000E+00 0. -1.
         25    2    1    2    0    0  0.64573944999E+02 -0.19911520972E+03  0.10536548515E+04  0.10814930911E+04  0.12498839545E+03 0.  0.
          2    1    1    2  501    0 -0.47985739742E+02  0.14965382109E+03  0.11602598414E+03  0.19534821827E+03  0.00000000000E+00 0. -1.
          1    1    1    2  502    0 -0.16588205256E+02  0.49461388633E+02  0.53767262970E+03  0.54019760666E+03  0.00000000000E+00 0. -1.
         22    1    3    3    0    0  0.95291878581E+01 -0.99706007429E+02  0.24178788560E+03  0.26171258083E+03  0.00000000000E+00 0.  1.
         22    1    3    3    0    0  0.55044757141E+02 -0.99409202292E+02  0.81186696587E+03  0.81978051030E+03  0.00000000000E+00 0.  1.
</event>
<event>
 7    1  0.5970484E-006  0.1224827E+03  0.7818608E-02  0.1316597E+00
          2   -1    0    0  502    0  0.00000000000E+00  0.00000000000E+00  0.17219258471E+04  0.17219258471E+04  0.00000000000E+00 0. -1.
          1   -1    0    0  501    0 -0.00000000000E+00 -0.00000000000E+00 -0.18092077669E+03  0.18092077669E+03  0.00000000000E+00 0. -1.
         25    2    1    2    0    0  0.55274705631E+02 -0.91951828161E+02  0.12174993207E+03  0.20483887039E+03  0.12500194031E+03 0.  0.
          2    1    1    2  501    0 -0.48829128003E+02 -0.31987335141E+02 -0.13067314837E+03  0.14311863979E+03  0.00000000000E+00 0. -1.
          1    1    1    2  502    0 -0.64455776285E+01  0.12393916330E+03  0.15499282867E+04  0.15548891136E+04  0.00000000000E+00 0. -1.
         22    1    3    3    0    0 -0.25186829400E+02 -0.29065992521E+01 -0.94229761692E+01  0.27048422770E+02  0.00000000000E+00 0. -1.
         22    1    3    3    0    0  0.80461535031E+02 -0.89045228909E+02  0.13117290824E+03  0.17779044762E+03  0.00000000000E+00 0. -1.
</event>
<event>
 7    1  0.5970484E-006  0.1323849E+03  0.7818608E-02  0.1295676E+00
          2   -1    0    0  502    0  0.00000000000E+00  0.00000000000E+00  0.63824164172E+03  0.63824164172E+03  0.00000000000E+00 0. -1.
          1   -1    0    0  501    0 -0.00000000000E+00 -0.00000000000E+00 -0.28917696760E+03  0.28917696760E+03  0.00000000000E+00 0. -1.
         25    2    1    2    0    0 -0.79007599354E+02  0.70582139095E+02  0.82388784878E+01  0.16406486505E+03  0.12500144683E+03 0.  0.
          2    1    1    2  501    0  0.13659652963E+03 -0.39642269997E+02 -0.18506916043E+03  0.23341104434E+03  0.00000000000E+00 0. -1.
          1    1    1    2  502    0 -0.57588930278E+02 -0.30939869098E+02  0.52589495606E+03  0.52994269993E+03  0.00000000000E+00 0. -1.
         22    1    3    3    0    0 -0.10443780552E+03  0.80564743827E+02  0.21591865569E+02  0.13365680614E+03  0.00000000000E+00 0. -1.
         22    1    3    3    0    0  0.25430206162E+02 -0.99826047326E+01 -0.13352987081E+02  0.30408058910E+02  0.00000000000E+00 0. -1.
</event>
<event>
 7    1  0.5970484E-006  0.5433560E+02  0.7818608E-02  0.1534015E+00
          2   -1    0    0  502    0  0.00000000000E+00  0.00000000000E+00  0.20159242881E+03  0.20159242881E+03  0.00000000000E+00 0. -1.
          1   -1    0    0  501    0 -0.00000000000E+00 -0.00000000000E+00 -0.13732797253E+03  0.13732797253E+03  0.00000000000E+00 0. -1.
         25    2    1    2    0    0 -0.35767315647E+02  0.33150970001E+01 -0.28357611420E+01  0.13012194460E+03  0.12503354825E+03 0.  0.
          2    1    1    2  501    0 -0.15576381590E+02  0.19280380689E+02 -0.62685918204E+02  0.67408316134E+02  0.00000000000E+00 0. -1.
          1    1    1    2  502    0  0.51343697238E+02 -0.22595477689E+02  0.12978613563E+03  0.14139014060E+03  0.00000000000E+00 0. -1.
         22    1    3    3    0    0 -0.31918263828E+02 -0.57742863773E+02  0.12262587801E+02  0.67107264451E+02  0.00000000000E+00 0.  1.
         22    1    3    3    0    0 -0.38490518192E+01  0.61057960773E+02 -0.15098348943E+02  0.63014680150E+02  0.00000000000E+00 0.  1.
</event>
<event>
 7    1  0.5970484E-006  0.1044971E+03  0.7818608E-02  0.1298008E+00
          2   -1    0    0  502    0  0.00000000000E+00  0.00000000000E+00  0.17804021427E+04  0.17804021427E+04  0.00000000000E+00 0. -1.
          1   -1    0    0  501    0 -0.00000000000E+00 -0.00000000000E+00 -0.10131399287E+03  0.10131399287E+03  0.00000000000E+00 0. -1.
         25    2    1    2    0    0  0.38530335073E+02  0.54925126663E+02  0.91300948474E+03  0.92396709749E+03  0.12501008664E+03 0.  0.
          2    1    1    2  501    0  0.26650124013E+02 -0.10310008749E+03 -0.63656539294E+02  0.12406454830E+03  0.00000000000E+00 0. -1.
          1    1    1    2  502    0 -0.65180459086E+02  0.48174960822E+02  0.82973520441E+03  0.83368448980E+03  0.00000000000E+00 0. -1.
         22    1    3    3    0    0  0.36948026759E+02  0.59484600656E+02  0.91574571121E+03  0.91841917554E+03  0.00000000000E+00 0. -1.
         22    1    3    3    0    0  0.15823083133E+01 -0.45594739927E+01 -0.27362264712E+01  0.55479219524E+01  0.00000000000E+00 0. -1.
</event>
<event>
 7    1  0.5970484E-006  0.7327163E+02  0.7818608E-02  0.1357504E+00
          2   -1    0    0  502    0  0.00000000000E+00  0.00000000000E+00  0.48127666111E+03  0.48127666111E+03  0.00000000000E+00 0. -1.
          1   -1    0    0  501    0 -0.00000000000E+00 -0.00000000000E+00 -0.16112176769E+04  0.16112176769E+04  0.00000000000E+00 0. -1.
         25    2    1    2    0    0 -0.22260780403E+01  0.80868680917E+02 -0.74881304242E+03  0.76347304775E+03  0.12500169267E+03 0.  0.
          2    1    1    2  501    0  0.59032235001E+02 -0.34447917671E+02 -0.85085719543E+03  0.85359793276E+03  0.00000000000E+00 0. -1.
          1    1    1    2  502    0 -0.56806156961E+02 -0.46420763245E+02  0.46972922210E+03  0.47542335746E+03  0.00000000000E+00 0. -1.
         22    1    3    3    0    0 -0.37178087447E+02  0.86155349392E+02 -0.67655999138E+03  0.68303614571E+03  0.00000000000E+00 0.  1.
         22    1    3    3    0    0  0.34952009406E+02 -0.52866684750E+01 -0.72253051041E+02  0.80436902040E+02  0.00000000000E+00 0.  1.
</event>
<event>
 7    1  0.5970484E-006  0.1687430E+03  0.7818608E-02  0.1256583E+00
          2   -1    0    0  502    0  0.00000000000E+00  0.00000000000E+00  0.24678086478E+04  0.24678086478E+04  0.00000000000E+00 0. -1.
          1   -1    0    0  501    0 -0.00000000000E+00 -0.00000000000E+00 -0.99561237288E+02  0.99561237288E+02  0.00000000000E+00 0. -1.
         25    2    1    2    0    0  0.56037975416E+02 -0.11834148065E+03  0.44591453715E+03  0.48125880291E+03  0.12500120082E+03 0.  0.
          2    1    1    2  501    0  0.74446856070E+02 -0.44295168175E+01 -0.59987861396E+02  0.95710493222E+02  0.00000000000E+00 0. -1.
          1    1    1    2  502    0 -0.13048483149E+03  0.12277099746E+03  0.19823207347E+04  0.19904005889E+04  0.00000000000E+00 0. -1.
         22    1    3    3    0    0  0.18901696920E+02 -0.91362211805E+02  0.11937168936E+03  0.15150553823E+03  0.00000000000E+00 0.  1.
         22    1    3    3    0    0  0.37136278496E+02 -0.26979268840E+02  0.32654284778E+03  0.32975326468E+03  0.00000000000E+00 0.  1.
</event>
<event>
 7    1  0.5970484E-006  0.1290385E+03  0.7818608E-02  0.1288320E+00
          2   -1    0    0  502    0  0.00000000000E+00  0.00000000000E+00  0.32847818483E+03  0.32847818483E+03  0.00000000000E+00 0. -1.
          1   -1    0    0  501    0 -0.00000000000E+00 -0.00000000000E+00 -0.19405627564E+04  0.19405627564E+04  0.00000000000E+00 0. -1.
         25    2    1    2    0    0 -0.13724122203E+03 -0.10913517195E+02  0.10804209875E+03  0.21505310114E+03  0.12498193200E+03 0.  0.
          2    1    1    2  501    0  0.11563609762E+03 -0.57598020201E+02 -0.18770041662E+04  0.18814446255E+04  0.00000000000E+00 0. -1.
          1    1    1    2  502    0  0.21605124411E+02  0.68511537397E+02  0.15687749591E+03  0.17254321453E+03  0.00000000000E+00 0. -1.
         22    1    3    3    0    0  0.21108500500E+02  0.79588111334E+01  0.29930534707E+02  0.37479972998E+02  0.00000000000E+00 0. -1.
         22    1    3    3    0    0 -0.15834972253E+03 -0.18872328329E+02  0.78111564041E+02  0.17757312815E+03  0.00000000000E+00 0. -1.
</event>
<event>
 7    1  0.5970484E-006  0.1901636E+03  0.7818608E-02  0.1345926E+00
          2   -1    0    0  502    0  0.00000000000E+00  0.00000000000E+00  0.20328590261E+04  0.20328590261E+04  0.00000000000E+00 0. -1.
          1   -1    0    0  501    0 -0.00000000000E+00 -0.00000000000E+00 -0.39927552441E+03  0.39927552441E+03  0.00000000000E+00 0. -1.
         25    2    1    2    0    0  0.14492707151E+03 -0.85218230502E+02  0.13374324374E+04  0.13537409159E+04  0.12499175987E+03 0.  0.
          2    1    1    2  501    0 -0.15343501868E+03  0.11300678361E+03 -0.36757370030E+03  0.41403292532E+03  0.00000000000E+00 0. -1.
          1    1    1    2  502    0  0.85079471706E+01 -0.27788553111E+02  0.66372476460E+03  0.66436070925E+03  0.00000000000E+00 0. -1.
         22    1    3    3    0    0 -0.75042420285E+00 -0.14396521211E+02  0.53130943401E+03  0.53150497422E+03  0.00000000000E+00 0.  1.
         22    1    3    3    0    0  0.14567749571E+03 -0.70821709291E+02  0.80612300337E+03  0.82223594170E+03  0.00000000000E+00 0.  1.
</event>
<event>
 7    1  0.5970484E-006  0.6510900E+02  0.7818608E-02  0.1379701E+00
          2   -1    0    0  502    0  0.00000000000E+00  0.00000000000E+00  0.17051591388E+04  0.17051591388E+04  0.00000000000E+00 0. -1.
          1   -1    0    0  501    0 -0.00000000000E+00 -0.00000000000E+00 -0.85134198124E+03  0.85134198124E+03  0.00000000000E+00 0. -1.
         25    2    1    2    0    0  0.11581886107E+03  0.30133782535E+02  0.25135363799E+03  0.30516479075E+03  0.12499937901E+03 0.  0.
          2    1    1    2  501    0 -0.64407798073E+02  0.79510479473E+01 -0.82244032819E+03  0.82499677397E+03  0.00000000000E+00 0. -1.
          1    1    1    2  502    0 -0.51411062996E+02 -0.38084830482E+02  0.14249038477E+04  0.14263395553E+04  0.00000000000E+00 0. -1.
         22    1    3    3    0    0  0.77173202878E+02 -0.12170271391E+02  0.23181544935E+03  0.24462669786E+03  0.00000000000E+00 0. -1.
         22    1    3    3    0    0  0.38645658191E+02  0.42304053926E+02  0.19538188646E+02  0.60538092894E+02  0.00000000000E+00 0. -1.
</event>
<event>
 7    1  0.5970484E-006  0.1832187E+03  0.7818608E-02  0.1223775E+00
          2   -1    0    0  502    0  0.00000000000E+00  0.00000000000E+00  0.24440514037E+04  0.24440514037E+04  0.00000000000E+00 0. -1.
          1   -1    0    0  501    0 -0.00000000000E+00 -0.00000000000E+00 -0.33246858410E+03  0.33246858410E+03  0.00000000000E+00 0. -1.
         25    2    1    2    0    0 -0.12216144826E+03 -0.19970973755E+03 -0.17946781689E+02  0.26598990761E+03  0.12498458010E+03 0.  0.
          2    1    1    2  501    0  0.13487259223E+03  0.10471730930E+03 -0.15102771016E+03  0.22795986541E+03  0.00000000000E+00 0. -1.
          1    1    1    2  502    0 -0.12711143971E+02  0.94992428247E+02  0.22805573114E+04  0.22825702147E+04  0.00000000000E+00 0. -1.
         22    1    3    3    0    0 -0.13010950642E+03 -0.10620490587E+03 -0.32378015517E+02  0.17104473561E+03  0.00000000000E+00 0. -1.
         22    1    3    3    0    0  0.79480581601E+01 -0.93504831678E+02  0.14431233828E+02  0.94945171996E+02  0.00000000000E+00 0. -1.
</event>
<event>
 7    1  0.5970484E-006  0.1033925E+03  0.7818608E-02  0.1324878E+00
          2   -1    0    0  502    0  0.00000000000E+00  0.00000000000E+00  0.17568677969E+04  0.17568677969E+04  0.00000000000E+00 0. -1.
          1   -1    0    0  501    0 -0.00000000000E+00 -0.00000000000E+00 -0.15360298375E+04  0.15360298375E+04  0.00000000000E+00 0. -1.
         25    2    1    2    0    0 -0.11136183047E+03  0.62710981184E+02  0.26826715316E+03  0.32237857776E+03  0.12500622978E+03 0.  0.
          2    1    1    2  501    0  0.58863062986E+02  0.25691637110E+02 -0.15064808459E+04  0.15078492828E+04  0.00000000000E+00 0. -1.
          1    1    1    2  502    0  0.52498767482E+02 -0.88402618294E+02  0.14590516522E+04  0.14626697738E+04  0.00000000000E+00 0. -1.
         22    1    3    3    0    0 -0.66137304265E+02  0.82947367649E+02  0.24631166090E+03  0.26818620977E+03  0.00000000000E+00 0.  1.
         22    1    3    3    0    0 -0.45224526203E+02 -0.20236386464E+02  0.21955492259E+02  0.54192367984E+02  0.00000000000E+00 0.  1.
</event>
<event>
 7    1  0.5970484E-006  0.2849599E+02  0.7818608E-02  0.1648709E+00
          2   -1    0    0  502    0  0.00000000000E+00  0.00000000000E+00  0.38030870272E+03  0.38030870272E+03  0.00000000000E+00 0. -1.
          1   -1    0    0  501    0 -0.00000000000E+00 -0.00000000000E+00 -0.37551666650E+03  0.37551666650E+03  0.00000000000E+00 0. -1.
         25    2    1    2    0    0  0.45269461561E+02  0.95713642333E-01 -0.61686923022E+02  0.14655743591E+03  0.12499788894E+03 0.  0.
          2    1    1    2  501    0 -0.25344297916E+02 -0.12554268735E+02 -0.27024699135E+03  0.27172298290E+03  0.00000000000E+00 0. -1.
          1    1    1    2  502    0 -0.19925163645E+02  0.12458555093E+02  0.33672595059E+03  0.33754495041E+03  0.00000000000E+00 0. -1.
         22    1    3    3    0    0 -0.22990870959E+02  0.28384221074E+01 -0.73645761381E+02  0.77203205613E+02  0.00000000000E+00 0. -1.
         22    1    3    3    0    0  0.68260332521E+02 -0.27427084651E+01  0.11958838359E+02  0.69354230300E+02  0.00000000000E+00 0. -1.
</event>
<event>
 7    1  0.5970484E-006  0.1104354E+03  0.7818608E-02  0.1362329E+00
          2   -1    0    0  502    0  0.00000000000E+00  0.00000000000E+00  0.16931742319E+04  0.16931742319E+04  0.00000000000E+00 0. -1.
          1   -1    0    0  501    0 -0.00000000000E+00 -0.00000000000E+00 -0.31489993414E+02  0.31489993414E+02  0.00000000000E+00 0. -1.
         25    2    1    2    0    0 -0.35350045296E+02  0.12950359850E+03  0.87074735278E+03  0.88985755561E+03  0.12499883665E+03 0.  0.
          2    1    1    2  501    0  0.56483627942E+02 -0.91430413118E+02  0.11474566259E+03  0.15721478223E+03  0.00000000000E+00 0. -1.
          1    1    1    2  502    0 -0.21133582645E+02 -0.38073185386E+02  0.67619122315E+03  0.67759188751E+03  0.00000000000E+00 0. -1.
         22    1    3    3    0    0 -0.79128372753E+02  0.83479802451E+02  0.45646638645E+03  0.47073531708E+03  0.00000000000E+00 0. -1.
         22    1    3    3    0    0  0.43778327457E+02  0.46023796053E+02  0.41428096633E+03  0.41912223852E+03  0.00000000000E+00 0. -1.
</event>
<event>
 7    1  0.5970484E-006  0.2206533E+03  0.7818608E-02  0.1262319E+00
          2   -1    0    0  502    0  0.00000000000E+00  0.00000000000E+00  0.47190643948E+03  0.47190643948E+03  0.00000000000E+00 0. -1.
          1   -1    0    0  501    0 -0.00000000000E+00 -0.00000000000E+00 -0.45086155321E+03  0.45086155321E+03  0.00000000000E+00 0. -1.
         25    2    1    2    0    0 -0.22182797336E+03 -0.39426822359E+02  0.80423371788E+02  0.26991686252E+03  0.12500027941E+03 0.  0.
          2    1    1    2  501    0  0.16988913017E+01  0.53877915454E+02 -0.31248506421E+03  0.31710034903E+03  0.00000000000E+00 0. -1.
          1    1    1    2  502    0  0.22012908206E+03 -0.14451093094E+02  0.25310657868E+03  0.33575078114E+03  0.00000000000E+00 0. -1.
         22    1    3    3    0    0 -0.14868434808E+03  0.34978249531E+02  0.56618178224E+02  0.16289914491E+03  0.00000000000E+00 0.  1.
         22    1    3    3    0    0 -0.73143625280E+02 -0.74405071890E+02  0.23805193564E+02  0.10701771761E+03  0.00000000000E+00 0.  1.
</event>
<event>
 7    1  0.5970484E-006  0.7229825E+02  0.7818608E-02  0.1459437E+00
          2   -1    0    0  502    0  0.00000000000E+00  0.00000000000E+00  0.61970385947E+03  0.61970385947E+03  0.00000000000E+00 0. -1.
          1   -1    0    0  501    0 -0.00000000000E+00 -0.00000000000E+00 -0.40233016136E+03  0.40233016136E+03  0.00000000000E+00 0. -1.
         25    2    1    2    0    0 -0.84821367810E+00 -0.96571467425E+02  0.11258724442E+03  0.19398003929E+03  0.12500240097E+03 0.  0.
          2    1    1    2  501    0  0.15209091694E+02  0.27218129524E+02 -0.35826413737E+03  0.35961831874E+03  0.00000000000E+00 0. -1.
          1    1    1    2  502    0 -0.14360878016E+02  0.69353337901E+02  0.46305059106E+03  0.46843566280E+03  0.00000000000E+00 0. -1.
         22    1    3    3    0    0  0.42257211848E+02 -0.72518667242E+01  0.77886488676E+02  0.88907629833E+02  0.00000000000E+00 0. -1.
         22    1    3    3    0    0 -0.43105425526E+02 -0.89319600701E+02  0.34700755744E+02  0.10507240945E+03  0.00000000000E+00 0. -1.
</event>
<event>
 7    1  0.5970484E-006  0.7051466E+02  0.7818608E-02  0.1464537E+00
          2   -1    0    0  502    0  0.00000000000E+00  0.00000000000E+00  0.52306025756E+03  0.52306025756E+03  0.00000000000E+00 0. -1.
          1   -1    0    0  501    0 -0.00000000000E+00 -0.00000000000E+00 -0.17070929226E+03  0.17070929226E+03  0.00000000000E+00 0. -1.
         25    2    1    2    0    0 -0.51978414873E+02 -0.30605363960E+02  0.49129022975E+02  0.14724860482E+03  0.12502018560E+03 0.  0.
          2    1    1    2  501    0 -0.19204807966E+02  0.24090143894E+02 -0.11662850996E+03  0.12062905544E+03  0.00000000000E+00 0. -1.
          1    1    1    2  502    0  0.71183222840E+02  0.65152200652E+01  0.41985045228E+03  0.42589188955E+03  0.00000000000E+00 0. -1.
         22    1    3    3    0    0 -0.17148282349E+02  0.28098620632E+02  0.68750953258E+02  0.76225255938E+02  0.00000000000E+00 0. -1.
         22    1    3    3    0    0 -0.34830132524E+02 -0.58703984592E+02 -0.19621930283E+02  0.71023348884E+02  0.00000000000E+00 0. -1.
</event>
<event>
 7    1  0.5970484E-006  0.2861542E+03  0.7818608E-02  0.1330184E+00
          2   -1    0    0  502    0  0.00000000000E+00  0.00000000000E+00  0.13611642462E+04  0.13611642462E+04  0.00000000000E+00 0. -1.
          1   -1    0    0  501    0 -0.00000000000E+00 -0.00000000000E+00 -0.93064470801E+03  0.93064470801E+03  0.00000000000E+00 0. -1.
         25    2    1    2    0    0 -0.22257279798E+03  0.15505200095E+03  0.31101493468E+03  0.43120172235E+03  0.12499944945E+03 0.  0.
          2    1    1    2  501    0  0.22616095261E+03 -0.17690311064E+03 -0.84674535811E+03  0.89410356700E+03  0.00000000000E+00 0. -1.
          1    1    1    2  502    0 -0.35881546298E+01  0.21851109696E+02  0.96624996161E+03  0.96650366484E+03  0.00000000000E+00 0. -1.
         22    1    3    3    0    0 -0.22944685846E+03  0.12851377218E+03  0.30574004802E+03  0.40328479696E+03  0.00000000000E+00 0. -1.
         22    1    3    3    0    0  0.68740604778E+01  0.26538228769E+02  0.52748866553E+01  0.27916925384E+02  0.00000000000E+00 0. -1.
</event>
<event>
 7    1  0.5970484E-006  0.1396566E+03  0.7818608E-02  0.1221509E+00
          2   -1    0    0  502    0  0.00000000000E+00  0.00000000000E+00  0.14673291815E+03  0.14673291815E+03  0.00000000000E+00 0. -1.
          1   -1    0    0  501    0 -0.00000000000E+00 -0.00000000000E+00 -0.16935434687E+04  0.16935434687E+04  0.00000000000E+00 0. -1.
         25    2    1    2    0    0  0.39177610377E+02 -0.13384648867E+03 -0.53035408680E+02  0.19464426257E+03  0.12499546669E+03 0.  0.
          2    1    1    2  501    0 -0.12872569954E+03 -0.23012520255E+01 -0.14761169749E+04  0.14817209336E+04  0.00000000000E+00 0. -1.
          1    1    1    2  502    0  0.89548089162E+02  0.13614774069E+03 -0.17658166971E+02  0.16391119068E+03  0.00000000000E+00 0. -1.
         22    1    3    3    0    0  0.77510486643E+02 -0.83872186867E+02 -0.30625488543E+01  0.11424446803E+03  0.00000000000E+00 0. -1.
         22    1    3    3    0    0 -0.38332876266E+02 -0.49974301802E+02 -0.49972859825E+02  0.80399794543E+02  0.00000000000E+00 0. -1.
</event>
<event>
 7    1  0.5970484E-006  0.4993887E+02  0.7818608E-02  0.1541793E+00
          2   -1    0    0  502    0  0.00000000000E+00  0.00000000000E+00  0.16407978206E+04  0.16407978206E+04  0.00000000000E+00 0. -1.
          1   -1    0    0  501    0 -0.00000000000E+00 -0.00000000000E+00 -0.42471094948E+03  0.42471094948E+03  0.00000000000E+00 0. -1.
         25    2    1    2    0    0  0.13481161209E+02 -0.25650962183E+02 -0.24543266506E+02  0.13064142836E+03  0.12500038921E+03 0.  0.
          2    1    1    2  501    0 -0.37754898270E+02  0.33889112750E+02 -0.34516070225E+03  0.34886933755E+03  0.00000000000E+00 0. -1.
          1    1    1    2  502    0  0.24273737061E+02 -0.82381505670E+01  0.15857908398E+04  0.15859980041E+04  0.00000000000E+00 0. -1.
         22    1    3    3    0    0  0.15811737574E+02  0.46172821525E+02  0.11655409598E+02  0.50177575327E+02  0.00000000000E+00 0.  1.
         22    1    3    3    0    0 -0.23305763654E+01 -0.71823783709E+02 -0.36198676105E+02  0.80463853029E+02  0.00000000000E+00 0.  1.
</event>
<event>
 7    1  0.5970484E-006  0.1919324E+03  0.7818608E-02  0.1210428E+00
          2   -1    0    0  502    0  0.00000000000E+00  0.00000000000E+00  0.13368592428E+04  0.13368592428E+04  0.00000000000E+00 0. -1.
          1   -1    0    0  501    0 -0.00000000000E+00 -0.00000000000E+00 -0.16046136047E+04  0.16046136047E+04  0.00000000000E+00 0. -1.
         25    2    1    2    0    0  0.44092069424E+02 -0.15067713532E+03 -0.14571113781E+03  0.24800539484E+03  0.12500892165E+03 0.  0.
          2    1    1    2  501    0  0.52493273144E+02  0.19267592796E+03 -0.13984934239E+04  0.14126795156E+04  0.00000000000E+00 0. -1.
          1    1    1    2  502    0 -0.96585342568E+02 -0.41998792633E+02  0.12764501998E+04  0.12807879370E+04  0.00000000000E+00 0. -1.
         22    1    3    3    0    0 -0.50392026364E+00 -0.27980227419E+02  0.21911248423E+02  0.35542226569E+02  0.00000000000E+00 0. -1.
         22    1    3    3    0    0  0.44595989688E+02 -0.12269690790E+03 -0.16762238624E+03  0.21246316827E+03  0.00000000000E+00 0. -1.
</event>
<event>
 7    1  0.5970484E-006  0.1545259E+03  0.7818608E-02  0.1206400E+00
          2   -1    0    0  502    0  0.00000000000E+00  0.00000000000E+00  0.89696844719E+03  0.89696844719E+03  0.00000000000E+00 0. -1.
          1   -1    0    0  501    0 -0.00000000000E+00 -0.00000000000E+00 -0.25834914497E+03  0.25834914497E+03  0.00000000000E+00 0. -1.
         25    2    1    2    0    0  0.20431293679E+01  0.31827649722E+02  0.26036302968E+03  0.29055603569E+03  0.12496691157E+03 0.  0.
          2    1    1    2  501    0  0.17791279965E+02 -0.16696105388E+03 -0.20542410342E+03  0.26531412593E+03  0.00000000000E+00 0. -1.
          1    1    1    2  502    0 -0.19834409333E+02  0.13513340416E+03  0.58368037595E+03  0.59944743054E+03  0.00000000000E+00 0. -1.
         22    1    3    3    0    0 -0.47848046315E+02 -0.19407987052E+02  0.68372766970E+02  0.85679290150E+02  0.00000000000E+00 0.  1.
         22    1    3    3    0    0  0.49891175683E+02  0.51235636775E+02  0.19199026271E+03  0.20487674554E+03  0.00000000000E+00 0.  1.
</event>
<event>
 7    1  0.5970484E-006  0.7883933E+02  0.7818608E-02  0.1491297E+00
          2   -1    0    0  502    0  0.00000000000E+00  0.00000000000E+00  0.12277458773E+04  0.12277458773E+04  0.00000000000E+00 0. -1.
          1   -1    0    0  501    0 -0.00000000000E+00 -0.00000000000E+00 -0.16112136284E+04  0.16112136284E+04  0.00000000000E+00 0. -1.
         25    2    1    2    0    0 -0.63856945928E+02  0.35945223101E+00  0.53419156575E+03  0.55232480455E+03  0.12499688816E+03 0.  0.
          2    1    1    2  501    0  0.76670100068E+02  0.18495480212E+02 -0.16009861831E+04  0.16029276794E+04  0.00000000000E+00 0. -1.
          1    1    1    2  502    0 -0.12813154141E+02 -0.18854932443E+02  0.68332686629E+03  0.68370702175E+03  0.00000000000E+00 0. -1.
         22    1    3    3    0    0 -0.40762353799E+02 -0.60884255081E+02  0.23975835946E+03  0.25070407442E+03  0.00000000000E+00 0.  1.
         22    1    3    3    0    0 -0.23094592129E+02  0.61243707312E+02  0.29443320629E+03  0.30162073012E+03  0.00000000000E+00 0.  1.
</event>
<event>
 7    1  0.5970484E-006  0.2028981E+03  0.7818608E-02  0.1336909E+00
          2   -1    0    0  502    0  0.00000000000E+00  0.00000000000E+00  0.64271507224E+03  0.64271507224E+03  0.00000000000E+00 0. -1.
          1   -1    0    0  501    0 -0.00000000000E+00 -0.00000000000E+00 -0.18735084914E+04  0.18735084914E+04  0.00000000000E+00 0. -1.
         25    2    1    2    0    0  0.12253020340E+03  0.18368509835E+03  0.16635536848E+03  0.30339822585E+03  0.12499003451E+03 0.  0.
          2    1    1    2  501    0 -0.17941289572E+00 -0.29445184278E+02 -0.17810990640E+04  0.17813424508E+04  0.00000000000E+00 0. -1.
          1    1    1    2  502    0 -0.12235079050E+03 -0.15423991407E+03  0.38395027639E+03  0.43148288700E+03  0.00000000000E+00 0. -1.
         22    1    3    3    0    0  0.78621597777E+02  0.90121772101E+02  0.15590251293E+02  0.12060823098E+03  0.00000000000E+00 0. -1.
         22    1    3    3    0    0  0.43908605622E+02  0.93563326247E+02  0.15076511719E+03  0.18278999488E+03  0.00000000000E+00 0. -1.
</event>
<event>
 7    1  0.5970484E-006  0.1072139E+03  0.7818608E-02  0.1419251E+00
          2   -1    0    0  502    0  0.00000000000E+00  0.00000000000E+00  0.51271868167E+03  0.51271868167E+03  0.00000000000E+00 0. -1.
          1   -1    0    0  501    0 -0.00000000000E+00 -0.00000000000E+00 -0.64184077072E+03  0.64184077072E+03  0.00000000000E+00 0. -1.
         25    2    1    2    0    0 -0.52201004254E+02  0.11468469176E+03  0.12514304527E+03  0.21716902297E+03  0.12499631750E+03 0.  0.
          2    1    1    2  501    0  0.26094852434E+02 -0.10350490575E+03 -0.59044343864E+03  0.60001471738E+03  0.00000000000E+00 0. -1.
          1    1    1    2  502    0  0.26106151820E+02 -0.11179786012E+02  0.33617830432E+03  0.33737571203E+03  0.00000000000E+00 0. -1.
         22    1    3    3    0    0 -0.43482970292E+01 -0.49789355290E+01  0.80511860336E+02  0.80782777501E+02  0.00000000000E+00 0. -1.
         22    1    3    3    0    0 -0.47852707224E+02  0.11966362729E+03  0.44631184934E+02  0.13638624547E+03  0.00000000000E+00 0. -1.
</event>
<event>
 7    1  0.5970484E-006  0.1330520E+03  0.7818608E-02  0.1313252E+00
          2   -1    0    0  502    0  0.00000000000E+00  0.00000000000E+00  0.25576807468E+03  0.25576807468E+03  0.00000000000E+00 0. -1.
          1   -1    0    0  501    0 -0.00000000000E+00 -0.00000000000E+00 -0.38727281061E+03  0.38727281061E+03  0.00000000000E+00 0. -1.
         25    2    1    2    0    0 -0.48965324975E+02 -0.77907633149E+02  0.62469196903E+02  0.16731479434E+03  0.12499854995E+03 0.  0.
          2    1    1    2  501    0  0.10197208608E+03  0.93945399939E+02 -0.31415945447E+03  0.34339511840E+03  0.00000000000E+00 0. -1.
          1    1    1    2  502    0 -0.53006761109E+02 -0.16037766790E+02  0.12018552163E+03  0.13233097255E+03  0.00000000000E+00 0. -1.
         22    1    3    3    0    0  0.38060351226E+01  0.27770310039E+02  0.37102817886E+02  0.46500485138E+02  0.00000000000E+00 0. -1.
         22    1    3    3    0    0 -0.52771360098E+02 -0.10567794319E+03  0.25366379017E+02  0.12081430920E+03  0.00000000000E+00 0. -1.
</event>
<event>
 7    1  0.5970484E-006  0.1673559E+03  0.7818608E-02  0.1205860E+00
          2   -1    0    0  502    0  0.00000000000E+00  0.00000000000E+00  0.97065295712E+03  0.97065295712E+03  0.00000000000E+00 0. -1.
          1   -1    0    0  501    0 -0.00000000000E+00 -0.00000000000E+00 -0.49405060820E+03  0.49405060820E+03  0.00000000000E+00 0. -1.
         25    2    1    2    0    0 -0.45356481263E+02 -0.27542850070E+03  0.17432567871E+03  0.35204126901E+03  0.12500217373E+03 0.  0.
          2    1    1    2  501    0  0.59608973278E+02  0.14938670246E+03 -0.38318012601E+03  0.41556783506E+03  0.00000000000E+00 0. -1.
          1    1    1    2  502    0 -0.14252492014E+02  0.12604179824E+03  0.68545679621E+03  0.69709446125E+03  0.00000000000E+00 0. -1.
         22    1    3    3    0    0 -0.55873973618E+02 -0.40864594339E+02  0.56407370440E+02  0.89295058308E+02  0.00000000000E+00 0.  1.
         22    1    3    3    0    0  0.10517492354E+02 -0.23456390636E+03  0.11791830827E+03  0.26274621070E+03  0.00000000000E+00 0.  1.
</event>
<event>
 7    1  0.5970484E-006  0.1190199E+03  0.7818608E-02  0.1247836E+00
          2   -1    0    0  502    0  0.00000000000E+00  0.00000000000E+00  0.24644255203E+04  0.24644255203E+04  0.00000000000E+00 0. -1.
          1   -1    0    0  501    0 -0.00000000000E+00 -0.00000000000E+00 -0.26812197226E+03  0.26812197226E+03  0.00000000000E+00 0. -1.
         25    2    1    2    0    0  0.16729801501E+03 -0.91029029261E+02  0.35058988596E+03  0.41810751686E+03  0.12500287008E+03 0.  0.
          2    1    1    2  501    0 -0.50907021822E+02  0.10351350510E+03 -0.21840931415E+03  0.24700040307E+03  0.00000000000E+00 0. -1.
          1    1    1    2  502    0 -0.11639099319E+03 -0.12484475835E+02  0.20641229762E+04  0.20674395726E+04  0.00000000000E+00 0. -1.
         22    1    3    3    0    0 -0.99076298783E+01 -0.19133565529E+02  0.35097193387E+01  0.21830542584E+02  0.00000000000E+00 0. -1.
         22    1    3    3    0    0  0.17720564488E+03 -0.71895463731E+02  0.34708016662E+03  0.39627697428E+03  0.00000000000E+00 0. -1.
</event>
<event>
 7    1  0.5970484E-006  0.8898071E+02  0.7818608E-02  0.1323552E+00
          2   -1    0    0  502    0  0.00000000000E+00  0.00000000000E+00  0.17125627028E+04  0.17125627028E+04  0.00000000000E+00 0. -1.
          1   -1    0    0  501    0 -0.00000000000E+00 -0.00000000000E+00 -0.46608597271E+02  0.46608597271E+02  0.00000000000E+00 0. -1.
         25    2    1    2    0    0  0.10730270350E+03  0.54278347765E+02  0.30148266651E+03  0.34781719760E+03  0.12499998211E+03 0.  0.
          2    1    1    2  501    0 -0.20670145122E+02 -0.72627261153E+02  0.42955191030E+02  0.86874175670E+02  0.00000000000E+00 0. -1.
          1    1    1    2  502    0 -0.86632558373E+02  0.18348913388E+02  0.13215162480E+04  0.13244799268E+04  0.00000000000E+00 0. -1.
         22    1    3    3    0    0  0.31583428380E+02  0.66677429642E+02  0.23494585904E+03  0.24625789176E+03  0.00000000000E+00 0. -1.
         22    1    3    3    0    0  0.75719275115E+02 -0.12399081876E+02  0.66536807467E+02  0.10155930584E+03  0.00000000000E+00 0. -1.
</event>
<event>
 7    1  0.5970484E-006  0.6324261E+02  0.7818608E-02  0.1455613E+00
          2   -1    0    0  502    0  0.00000000000E+00  0.00000000000E+00  0.24249673710E+04  0.24249673710E+04  0.00000000000E+00 0. -1.
          1   -1    0    0  501    0 -0.00000000000E+00 -0.00000000000E+00 -0.42429172682E+02  0.42429172682E+02  0.00000000000E+00 0. -1.
         25    2    1    2    0    0 -0.24222244680E+02 -0.92359933299E+02  0.36793693986E+03  0.40015113751E+03  0.12500506678E+03 0.  0.
          2    1    1    2  501    0  0.23283272483E+02  0.55720723548E+02  0.87044055729E+01  0.61013740146E+02  0.00000000000E+00 0. -1.
          1    1    1    2  502    0  0.93897219707E+00  0.36639209751E+02  0.20058968529E+04  0.20062316661E+04  0.00000000000E+00 0. -1.
         22    1    3    3    0    0  0.43307193439E+02 -0.23543764509E+02  0.60998830720E+02  0.78426266009E+02  0.00000000000E+00 0. -1.
         22    1    3    3    0    0 -0.67529438118E+02 -0.68816168790E+02  0.30693810914E+03  0.32172487150E+03  0.00000000000E+00 0. -1.
</event>
<event>
 7    1  0.5970484E-006  0.7919941E+02  0.7818608E-02  0.1433754E+00
          2   -1    0    0  502    0  0.00000000000E+00  0.00000000000E+00  0.17644947683E+04  0.17644947683E+04  0.00000000000E+00 0. -1.
          1   -1    0    0  501    0 -0.00000000000E+00 -0.00000000000E+00 -0.46521908290E+03  0.46521908290E+03  0.00000000000E+00 0. -1.
         25    2    1    2    0    0  0.54059514250E+02  0.26637309684E+02 -0.42986879813E+02  0.14527810776E+03  0.12500351759E+03 0.  0.
          2    1    1    2  501    0 -0.30850770263E+01  0.34284571288E+02 -0.36936518298E+03  0.37096575035E+03  0.00000000000E+00 0. -1.
          1    1    1    2  502    0 -0.50974437224E+02 -0.60921880971E+02  0.17116277482E+04  0.17134699931E+04  0.00000000000E+00 0. -1.
         22    1    3    3    0    0  0.93251825567E+02  0.38716813687E+01 -0.31708919563E+02  0.98571539848E+02  0.00000000000E+00 0.  1.
         22    1    3    3    0    0 -0.39192311317E+02  0.22765628315E+02 -0.11277960250E+02  0.46706567914E+02  0.00000000000E+00 0.  1.
</event>
<event>
 7    1  0.5970484E-006  0.6809732E+02  0.7818608E-02  0.1453664E+00
          2   -1    0    0  502    0  0.00000000000E+00  0.00000000000E+00  0.60106232708E+02  0.60106232708E+02  0.00000000000E+00 0. -1.
          1   -1    0    0  501    0 -0.00000000000E+00 -0.00000000000E+00 -0.37365629339E+03  0.37365629339E+03  0.00000000000E+00 0. -1.
         25    2    1    2    0    0  0.72776208682E+02 -0.37157319779E+02 -0.10012347602E+03  0.17979439975E+03  0.12499709105E+03 0.  0.
          2    1    1    2  501    0 -0.67060073437E+02  0.31065549190E+01 -0.20856187550E+03  0.21909988600E+03  0.00000000000E+00 0. -1.
          1    1    1    2  502    0 -0.57161352452E+01  0.34050764860E+02 -0.48647091702E+01  0.34868240349E+02  0.00000000000E+00 0. -1.
         22    1    3    3    0    0  0.10777099375E+03 -0.18363218519E+02 -0.68396552714E+02  0.12895690486E+03  0.00000000000E+00 0. -1.
         22    1    3    3    0    0 -0.34994785072E+02 -0.18794101260E+02 -0.31726923302E+02  0.50837494889E+02  0.00000000000E+00 0. -1.
</event>
<event>
 7    1  0.5970484E-006  0.1366407E+03  0.7818608E-02  0.1290101E+00
          2   -1    0    0  502    0  0.00000000000E+00  0.00000000000E+00  0.10992248362E+04  0.10992248362E+04  0.00000000000E+00 0. -1.
          1   -1    0    0  501    0 -0.00000000000E+00 -0.00000000000E+00 -0.47852890885E+02  0.47852890885E+02  0.00000000000E+00 0. -1.
         25    2    1    2    0    0 -0.11517814796E+03  0.50892764910E+02  0.40298120582E+03  0.44031127810E+03  0.12499636031E+03 0.  0.
          2    1    1    2  501    0  0.23080555196E+02  0.62597159180E+02  0.33330730462E+02  0.74579179123E+02  0.00000000000E+00 0. -1.
          1    1    1    2  502    0  0.92097592763E+02 -0.11348992409E+03  0.61506000900E+03  0.63218726983E+03  0.00000000000E+00 0. -1.
         22    1    3    3    0    0  0.22770619858E+02 -0.97948700989E-01  0.11180731357E+03  0.11410252447E+03  0.00000000000E+00 0.  1.
         22    1    3    3    0    0 -0.13794876782E+03  0.50990713611E+02  0.29117389225E+03  0.32620875363E+03  0.00000000000E+00 0.  1.
</event>
<event>
 7    1  0.5970484E-006  0.5624036E+02  0.7818608E-02  0.1447380E+00
          2   -1    0    0  502    0  0.00000000000E+00  0.00000000000E+00  0.58226180488E+02  0.58226180488E+02  0.00000000000E+00 0. -1.
          1   -1    0    0  501    0 -0.00000000000E+00 -0.00000000000E+00 -0.79004682830E+03  0.79004682830E+03  0.00000000000E+00 0. -1.
         25    2    1    2    0    0  0.56241979267E+01  0.28815308135E+02 -0.13010824978E+03  0.18279854140E+03  0.12500078597E+03 0.  0.
          2    1    1    2  501    0  0.42055642400E+02  0.12188361979E+02 -0.60099123210E+03  0.60258418025E+03  0.00000000000E+00 0. -1.
          1    1    1    2  502    0 -0.47679840327E+02 -0.41003670114E+02 -0.72116593830E+00  0.62890287141E+02  0.00000000000E+00 0. -1.
         22    1    3    3    0    0 -0.83215755926E+01  0.74875335946E+02 -0.53769646023E+02  0.92556682021E+02  0.00000000000E+00 0. -1.
         22    1    3    3    0    0  0.13945773519E+02 -0.46060027812E+02 -0.76338603753E+02  0.90241859378E+02  0.00000000000E+00 0. -1.
</event>
<event>
 7    1  0.5970484E-006  0.6954528E+02  0.7818608E-02  0.1369027E+00
          2   -1    0    0  502    0  0.00000000000E+00  0.00000000000E+00  0.15706211814E+03  0.15706211814E+03  0.00000000000E+00 0. -1.
          1   -1    0    0  501    0 -0.00000000000E+00 -0.00000000000E+00 -0.18804765837E+04  0.18804765837E+04  0.00000000000E+00 0. -1.
         25    2    1    2    0    0 -0.13135649113E+02  0.12486062406E+03 -0.10066749079E+03  0.20377098024E+03  0.12500379182E+03 0.  0.
          2    1    1    2  501    0 -0.16926534381E+02 -0.66784636522E+02 -0.17173668495E+04  0.17187482628E+04  0.00000000000E+00 0. -1.
          1    1    1    2  502    0  0.30062183494E+02 -0.58075987536E+02  0.94619874721E+02  0.11501945878E+03  0.00000000000E+00 0. -1.
         22    1    3    3    0    0 -0.39771782565E+02 -0.67779215087E+01 -0.95105724561E+01  0.41451005980E+02  0.00000000000E+00 0. -1.
         22    1    3    3    0    0  0.26636133452E+02  0.13163854557E+03 -0.91156918335E+02  0.16231997426E+03  0.00000000000E+00 0. -1.
</event>
<event>
 7    1  0.5970484E-006  0.6654752E+02  0.7818608E-02  0.1505513E+00
          2   -1    0    0  502    0  0.00000000000E+00  0.00000000000E+00  0.39941084233E+03  0.39941084233E+03  0.00000000000E+00 0. -1.
          1   -1    0    0  501    0 -0.00000000000E+00 -0.00000000000E+00 -0.95198040564E+03  0.95198040564E+03  0.00000000000E+00 0. -1.
         25    2    1    2    0    0  0.47901967919E+02 -0.61728998329E+02 -0.43714652899E+01  0.14747240039E+03  0.12499572554E+03 0.  0.
          2    1    1    2  501    0 -0.23416627652E+02  0.62137784861E+02 -0.87434044946E+03  0.87685840608E+03  0.00000000000E+00 0. -1.
          1    1    1    2  502    0 -0.24485340267E+02 -0.40878653189E+00  0.32614235143E+03  0.32706044150E+03  0.00000000000E+00 0. -1.
         22    1    3    3    0    0 -0.84016734223E+01 -0.82871109770E+02 -0.19305237727E+02  0.85503807836E+02  0.00000000000E+00 0. -1.
         22    1    3    3    0    0  0.56303641341E+02  0.21142111441E+02  0.14933772437E+02  0.61968592558E+02  0.00000000000E+00 0. -1.
</event>
<event>
 7    1  0.5970484E-006  0.6723695E+02  0.7818608E-02  0.1387146E+00
          2   -1    0    0  502    0  0.00000000000E+00  0.00000000000E+00  0.69155838964E+03  0.69155838964E+03  0.00000000000E+00 0. -1.
          1   -1    0    0  501    0 -0.00000000000E+00 -0.00000000000E+00 -0.86191114663E+02  0.86191114663E+02  0.00000000000E+00 0. -1.
         25    2    1    2    0    0  0.11829520435E+02  0.59565799033E+01  0.10063938201E+03  0.16102690753E+03  0.12500384530E+03 0.  0.
          2    1    1    2  501    0  0.55592550108E+02  0.17639576752E+02 -0.37806764222E+02  0.69505666794E+02  0.00000000000E+00 0. -1.
          1    1    1    2  502    0 -0.67422070543E+02 -0.23596156655E+02  0.54253465719E+03  0.54721692998E+03  0.00000000000E+00 0. -1.
         22    1    3    3    0    0  0.30881828354E+01  0.77164424096E+01 -0.29466284933E+02  0.30616046518E+02  0.00000000000E+00 0.  1.
         22    1    3    3    0    0  0.87413375992E+01 -0.17598625064E+01  0.13010566694E+03  0.13041086101E+03  0.00000000000E+00 0.  1.
</event>
<event>
 7    1  0.5970484E-006  0.5522091E+02  0.7818608E-02  0.1421665E+00
          2   -1    0    0  502    0  0.00000000000E+00  0.00000000000E+00  0.19595072928E+04  0.19595072928E+04  0.00000000000E+00 0. -1.
          1   -1    0    0  501    0 -0.00000000000E+00 -0.00000000000E+00 -0.19148157928E+02  0.19148157928E+02  0.00000000000E+00 0. -1.
         25    2    1    2    0    0  0.64533310837E+01 -0.66975984673E+01  0.73595497428E+03  0.74655279364E+03  0.12499938482E+03 0.  0.
          2    1    1    2  501    0  0.58640227797E+01  0.59402472007E+02  0.54203291765E+02  0.80629010175E+02  0.00000000000E+00 0. -1.
          1    1    1    2  502    0 -0.12317353863E+02 -0.52704873539E+02  0.11502008688E+04  0.11514736469E+04  0.00000000000E+00 0. -1.
         22    1    3    3    0    0  0.19231175629E+02 -0.60307682642E+02  0.26852062095E+03  0.27588073252E+03  0.00000000000E+00 0.  1.
         22    1    3    3    0    0 -0.12777844545E+02  0.53610084174E+02  0.46743435333E+03  0.47067206111E+03  0.00000000000E+00 0.  1.
</event>
<event>
 7    1  0.5970484E-006  0.6034113E+02  0.7818608E-02  0.1433317E+00
          2   -1    0    0  502    0  0.00000000000E+00  0.00000000000E+00  0.87411776775E+03  0.87411776775E+03  0.00000000000E+00 0. -1.
          1   -1    0    0  501    0 -0.00000000000E+00 -0.00000000000E+00 -0.85156217838E+03  0.85156217838E+03  0.00000000000E+00 0. -1.
         25    2    1    2    0    0 -0.77784177049E+02 -0.64588437013E+02  0.33211834287E+03  0.36898451215E+03  0.12499972856E+03 0.  0.
          2    1    1    2  501    0  0.35292431288E+02  0.48799667876E+02 -0.83105623421E+03  0.83323551755E+03  0.00000000000E+00 0. -1.
          1    1    1    2  502    0  0.42491745761E+02  0.15788769138E+02  0.52149348070E+03  0.52345991643E+03  0.00000000000E+00 0. -1.
         22    1    3    3    0    0 -0.29768921639E+02  0.94084186528E+01  0.23781753399E+03  0.23985805492E+03  0.00000000000E+00 0.  1.
         22    1    3    3    0    0 -0.48015255410E+02 -0.73996855666E+02  0.94300808878E+02  0.12912645723E+03  0.00000000000E+00 0.  1.
</event>
<event>
 7    1  0.5970484E-006  0.1661856E+03  0.7818608E-02  0.1398566E+00
          2   -1    0    0  502    0  0.00000000000E+00  0.00000000000E+00  0.24321200999E+04  0.24321200999E+04  0.00000000000E+00 0. -1.
          1   -1    0    0  501    0 -0.00000000000E+00 -0.00000000000E+00 -0.34544846833E+03  0.34544846833E+03  0.00000000000E+00 0. -1.
         25    2    1    2    0    0 -0.10728600290E+03 -0.10755494735E+03  0.80489676134E+03  0.82859042400E+03  0.12499976480E+03 0.  0.
          2    1    1    2  501    0 -0.75144713388E+01 -0.20183190559E+02 -0.32868331790E+03  0.32938814783E+03  0.00000000000E+00 0. -1.
          1    1    1    2  502    0  0.11480047424E+03  0.12773813791E+03  0.16104581881E+04  0.16195899964E+04  0.00000000000E+00 0. -1.
         22    1    3    3    0    0 -0.98155852491E+01  0.24488838187E+02  0.20343125221E+03  0.20513489046E+03  0.00000000000E+00 0. -1.
         22    1    3    3    0    0 -0.97470417655E+02 -0.13204378553E+03  0.60146550914E+03  0.62345553354E+03  0.00000000000E+00 0. -1.
</event>
<event>
 7    1  0.5970484E-006  0.1268543E+03  0.7818608E-02  0.1355025E+00
          2   -1    0    0  502    0  0.00000000000E+00  0.00000000000E+00  0.19603596362E+04  0.19603596362E+04  0.00000000000E+00 0. -1.
          1   -1    0    0  501    0 -0.00000000000E+00 -0.00000000000E+00 -0.18940828350E+02  0.18940828350E+02  0.00000000000E+00 0. -1.
         25    2    1    2    0    0  0.12774138761E+03  0.38055713636E+02  0.10697823623E+04  0.10852765872E+04  0.12499947445E+03 0.  0.
          2    1    1    2  501    0 -0.10437769945E+03 -0.70909000321E+02  0.37311564027E+03  0.39387570563E+03  0.00000000000E+00 0. -1.
          1    1    1    2  502    0 -0.23363688165E+02  0.32853286685E+02  0.49852080534E+03  0.50014817177E+03  0.00000000000E+00 0. -1.
         22    1    3    3    0    0  0.70846061375E+02 -0.17511360167E+02  0.22015846166E+03  0.23193869964E+03  0.00000000000E+00 0.  1.
         22    1    3    3    0    0  0.56895326236E+02  0.55567073803E+02  0.84962390062E+03  0.85333788756E+03  0.00000000000E+00 0.  1.
</event>
<event>
 7    1  0.5970484E-006  0.1211574E+03  0.7818608E-02  0.1282310E+00
          2   -1    0    0  502    0  0.00000000000E+00  0.00000000000E+00  0.20003991720E+04  0.20003991720E+04  0.00000000000E+00 0. -1.
          1   -1    0    0  501    0 -0.00000000000E+00 -0.00000000000E+00 -0.57996697948E+03  0.57996697948E+03  0.00000000000E+00 0. -1.
         25    2    1    2    0    0  0.10828933394E+02 -0.45105503778E+02 -0.28436320953E+02  0.13632779238E+03  0.12499948142E+03 0.  0.
          2    1    1    2  501    0  0.57074403308E+02 -0.57439613632E+02 -0.49233155974E+03  0.49894605063E+03  0.00000000000E+00 0. -1.
          1    1    1    2  502    0 -0.67903336702E+02  0.10254511741E+03  0.19412000733E+04  0.19450923085E+04  0.00000000000E+00 0. -1.
         22    1    3    3    0    0  0.34784264402E+02  0.12544027455E+02 -0.56785856405E+02  0.67763789463E+02  0.00000000000E+00 0. -1.
         22    1    3    3    0    0 -0.23955331008E+02 -0.57649531233E+02  0.28349535452E+02  0.68564002913E+02  0.00000000000E+00 0. -1.
</event>
<event>
 7    1  0.5970484E-006  0.5448270E+02  0.7818608E-02  0.1485960E+00
          2   -1    0    0  502    0  0.00000000000E+00  0.00000000000E+00  0.17069769030E+04  0.17069769030E+04  0.00000000000E+00 0. -1.
          1   -1    0    0  501    0 -0.00000000000E+00 -0.00000000000E+00 -0.17271068517E+04  0.17271068517E+04  0.00000000000E+00 0. -1.
         25    2    1    2    0    0 -0.85010307817E+01  0.50902061400E+02  0.21569480471E+02  0.13694281350E+03  0.12499921721E+03 0.  0.
          2    1    1    2  501    0 -0.31401701837E+02 -0.13649056073E+02 -0.16687868257E+04  0.16691380510E+04  0.00000000000E+00 0. -1.
          1    1    1    2  502    0  0.39902732618E+02 -0.37253005328E+02  0.16270873965E+04  0.16280028902E+04  0.00000000000E+00 0. -1.
         22    1    3    3    0    0  0.56239819686E+02  0.15560019109E+02 -0.49469280273E+01  0.58561963850E+02  0.00000000000E+00 0. -1.
         22    1    3    3    0    0 -0.64740850468E+02  0.35342042292E+02  0.26516408499E+02  0.78380849653E+02  0.00000000000E+00 0. -1.
</event>
<event>
 7    1  0.5970484E-006  0.1251252E+03  0.7818608E-02  0.1269559E+00
          2   -1    0    0  502    0  0.00000000000E+00  0.00000000000E+00  0.10227367500E+04  0.10227367500E+04  0.00000000000E+00 0. -1.
          1   -1    0    0  501    0 -0.00000000000E+00 -0.00000000000E+00 -0.58038596159E+03  0.58038596159E+03  0.00000000000E+00 0. -1.
         25    2    1    2    0    0 -0.28914000386E+02 -0.29331593566E+02 -0.30254281239E+02  0.13504517513E+03  0.12500206396E+03 0.  0.
          2    1    1    2  501    0 -0.69806583949E+02 -0.54546395153E+02 -0.48941822635E+03  0.49737155997E+03  0.00000000000E+00 0. -1.
          1    1    1    2  502    0  0.98720584335E+02  0.83877988720E+02  0.96202329597E+03  0.97070597647E+03  0.00000000000E+00 0. -1.
         22    1    3    3    0    0  0.16614807590E+01 -0.16801045263E+02  0.47580350872E+02  0.50486883736E+02  0.00000000000E+00 0.  1.
         22    1    3    3    0    0 -0.30575481145E+02 -0.12530548303E+02 -0.77834632110E+02  0.84558291396E+02  0.00000000000E+00 0.  1.
</event>
<event>
 7    1  0.5970484E-006  0.1165871E+03  0.7818608E-02  0.1268457E+00
          2   -1    0    0  502    0  0.00000000000E+00  0.00000000000E+00  0.77792219839E+03  0.77792219839E+03  0.00000000000E+00 0. -1.
          1   -1    0    0  501    0 -0.00000000000E+00 -0.00000000000E+00 -0.29096903612E+03  0.29096903612E+03  0.00000000000E+00 0. -1.
         25    2    1    2    0    0 -0.65192508687E+01 -0.71956539041E+02  0.12692314279E+03  0.19223604927E+03  0.12499988127E+03 0.  0.
          2    1    1    2  501    0 -0.95669398606E+02 -0.90742351255E+01 -0.24214620817E+03  0.26051825599E+03  0.00000000000E+00 0. -1.
          1    1    1    2  502    0  0.10218864947E+03  0.81030774167E+02  0.60217622765E+03  0.61613692926E+03  0.00000000000E+00 0. -1.
         22    1    3    3    0    0 -0.41908256968E+02 -0.73105245252E+02  0.30664133574E+02  0.89671444581E+02  0.00000000000E+00 0.  1.
         22    1    3    3    0    0  0.35389006099E+02  0.11487062107E+01  0.96259009217E+02  0.10256460468E+03  0.00000000000E+00 0.  1.
</event>
<event>
 7    1  0.5970484E-006  0.1128114E+03  0.7818608E-02  0.1396564E+00
          2   -1    0    0  502    0  0.00000000000E+00  0.00000000000E+00  0.39526527720E+03  0.39526527720E+03  0.00000000000E+00 0. -1.
          1   -1    0    0  501    0 -0.00000000000E+00 -0.00000000000E+00 -0.10636007510E+04  0.10636007510E+04  0.00000000000E+00 0. -1.
         25    2    1    2    0    0  0.87640441477E+02  0.97287689074E+02 -0.12319543942E+03  0.21896834112E+03  0.12499710672E+03 0.  0.
          2    1    1    2  501    0  0.34075510434E+01 -0.32054411396E+02 -0.88318876547E+03  0.88377683390E+03  0.00000000000E+00 0. -1.
          1    1    1    2  502    0 -0.91047992520E+02 -0.65233277677E+02  0.33804873110E+03  0.35612085316E+03  0.00000000000E+00 0. -1.
         22    1    3    3    0    0  0.11867120639E+03  0.61991048677E+02 -0.87358948736E+02  0.15986660460E+03  0.00000000000E+00 0. -1.
         22    1    3    3    0    0 -0.31030764914E+02  0.35296640397E+02 -0.35836490685E+02  0.59101736515E+02  0.00000000000E+00 0. -1.
</event>
<event>
 7    1  0.5970484E-006  0.1249353E+03  0.7818608E-02  0.1390389E+00
          2   -1    0    0  502    0  0.00000000000E+00  0.00000000000E+00  0.48470848288E+03  0.48470848288E+03  0.00000000000E+00 0. -1.
          1   -1    0    0  501    0 -0.00000000000E+00 -0.00000000000E+00 -0.13361875036E+04  0.13361875036E+04  0.00000000000E+00 0. -1.
         25    2    1    2    0    0 -0.53031665853E+02  0.95839706232E+02  0.10403802955E+03  0.19607721039E+03  0.12499901586E+03 0.  0.
          2    1    1    2  501    0  0.13329634939E+02  0.27521700413E+02 -0.12774319409E+04  0.12777979053E+04  0.00000000000E+00 0. -1.
          1    1    1    2  502    0  0.39702030914E+02 -0.12336140665E+03  0.32191489067E+03  0.34702087076E+03  0.00000000000E+00 0. -1.
         22    1    3    3    0    0 -0.79665727067E+02  0.23660910275E+02  0.80301033252E+02  0.11556263533E+03  0.00000000000E+00 0.  1.
         22    1    3    3    0    0  0.26634061214E+02  0.72178795957E+02  0.23736996299E+02  0.80514575052E+02  0.00000000000E+00 0.  1.
</event>
<event>
 7    1  0.5970484E-006  0.1889073E+03  0.7818608E-02  0.1235867E+00
          2   -1    0    0  502    0  0.00000000000E+00  0.00000000000E+00  0.29891446929E+03  0.29891446929E+03  0.00000000000E+00 0. -1.
          1   -1    0    0  501    0 -0.00000000000E+00 -0.00000000000E+00 -0.70751426246E+03  0.70751426246E+03  0.00000000000E+00 0. -1.
         25    2    1    2    0    0  0.17941812612E+03  0.47799823397E+02 -0.42498026716E+03  0.48032176754E+03  0.12500034321E+03 0.  0.
          2    1    1    2  501    0 -0.33727749834E+02  0.74786164418E+02 -0.21285062532E+03  0.22811383167E+03  0.00000000000E+00 0. -1.
          1    1    1    2  502    0 -0.14569037628E+03 -0.12258598781E+03  0.22923109931E+03  0.29799313254E+03  0.00000000000E+00 0. -1.
         22    1    3    3    0    0  0.42409265246E+02  0.49028905899E+02 -0.52427550107E+02  0.83372821726E+02  0.00000000000E+00 0. -1.
         22    1    3    3    0    0  0.13700886087E+03 -0.12290825022E+01 -0.37255271706E+03  0.39694894582E+03  0.00000000000E+00 0. -1.
</event>
<event>
 7    1  0.5970484E-006  0.8791964E+02  0.7818608E-02  0.1407726E+00
          2   -1    0    0  502    0  0.00000000000E+00  0.00000000000E+00  0.49023991525E+03  0.49023991525E+03  0.00000000000E+00 0. -1.
          1   -1    0    0  501    0 -0.00000000000E+00 -0.00000000000E+00 -0.41119223096E+03  0.41119223096E+03  0.00000000000E+00 0. -1.
         25    2    1    2    0    0 -0.10949826769E+03  0.59715867119E+02 -0.14651630685E+03  0.22945536154E+03  0.12500751719E+03 0.  0.
          2    1    1    2  501    0  0.31393722077E+02 -0.21184894384E+02 -0.21732784915E+03  0.22060317213E+03  0.00000000000E+00 0. -1.
          1    1    1    2  502    0  0.78104545613E+02 -0.38530972735E+02  0.44289184029E+03  0.45137361254E+03  0.00000000000E+00 0. -1.
         22    1    3    3    0    0 -0.32787145863E+02 -0.24654728579E+02 -0.96654568465E+02  0.10499980086E+03  0.00000000000E+00 0.  1.
         22    1    3    3    0    0 -0.76711121827E+02  0.84370595698E+02 -0.49861738382E+02  0.12445556068E+03  0.00000000000E+00 0.  1.
</event>
<event>
 7    1  0.5970484E-006  0.7921114E+02  0.7818608E-02  0.1377128E+00
          2   -1    0    0  502    0  0.00000000000E+00  0.00000000000E+00  0.73844704313E+03  0.73844704313E+03  0.00000000000E+00 0. -1.
          1   -1    0    0  501    0 -0.00000000000E+00 -0.00000000000E+00 -0.28526640785E+03  0.28526640785E+03  0.00000000000E+00 0. -1.
         25    2    1    2    0    0 -0.99095687952E+02 -0.48532082908E+02  0.60931116723E+03  0.63171296549E+03  0.12500341522E+03 0.  0.
          2    1    1    2  501    0  0.52104459949E+02  0.13026548283E+02 -0.26383404252E+03  0.26924518138E+03  0.00000000000E+00 0. -1.
          1    1    1    2  502    0  0.46991228003E+02  0.35505534626E+02  0.10770351056E+03  0.12275530410E+03  0.00000000000E+00 0. -1.
         22    1    3    3    0    0 -0.29553362362E+02 -0.49067765280E+02  0.83116618105E+02  0.10094265214E+03  0.00000000000E+00 0.  1.
         22    1    3    3    0    0 -0.69542325590E+02  0.53568237146E+00  0.52619454913E+03  0.53077031335E+03  0.00000000000E+00 0.  1.
</event>
<event>
 7    1  0.5970484E-006  0.1134256E+03  0.7818608E-02  0.1258719E+00
          2   -1    0    0  502    0  0.00000000000E+00  0.00000000000E+00  0.18120401862E+04  0.18120401862E+04  0.00000000000E+00 0. -1.
          1   -1    0    0  501    0 -0.00000000000E+00 -0.00000000000E+00 -0.54401663752E+02  0.54401663752E+02  0.00000000000E+00 0. -1.
         25    2    1    2    0    0 -0.45813014071E+02  0.18920129021E+02  0.46634526217E+03  0.48534523167E+03  0.12500114725E+03 0.  0.
          2    1    1    2  501    0  0.92875162154E+02  0.84281188322E+02  0.50614771593E+02  0.13524411098E+03  0.00000000000E+00 0. -1.
          1    1    1    2  502    0 -0.47062148084E+02 -0.10320131734E+03  0.12406784887E+04  0.12458525073E+04  0.00000000000E+00 0. -1.
         22    1    3    3    0    0  0.44556576696E+01  0.57065191786E+02  0.33224831771E+03  0.33714274962E+03  0.00000000000E+00 0.  1.
         22    1    3    3    0    0 -0.50268671740E+02 -0.38145062765E+02  0.13409694446E+03  0.14820248205E+03  0.00000000000E+00 0.  1.
</event>
<event>
 7    1  0.5970484E-006  0.6898485E+02  0.7818608E-02  0.1388376E+00
          2   -1    0    0  502    0  0.00000000000E+00  0.00000000000E+00  0.20529672675E+04  0.20529672675E+04  0.00000000000E+00 0. -1.
          1   -1    0    0  501    0 -0.00000000000E+00 -0.00000000000E+00 -0.42218649617E+03  0.42218649617E+03  0.00000000000E+00 0. -1.
         25    2    1    2    0    0 -0.48658149270E+02 -0.69640247344E+02  0.28917093972E+03  0.32629398196E+03  0.12502220101E+03 0.  0.
          2    1    1    2  501    0  0.67045261145E+02  0.16442840944E+02 -0.40021541586E+03  0.40612536630E+03  0.00000000000E+00 0. -1.
          1    1    1    2  502    0 -0.18387111875E+02  0.53197406400E+02  0.17418252475E+04  0.17427344154E+04  0.00000000000E+00 0. -1.
         22    1    3    3    0    0  0.14818604607E+02  0.26470492947E+02  0.10299074071E+03  0.10736559370E+03  0.00000000000E+00 0. -1.
         22    1    3    3    0    0 -0.63476753876E+02 -0.96110740291E+02  0.18618019902E+03  0.21892838826E+03  0.00000000000E+00 0. -1.
</event>
<event>
 7    1  0.5970484E-006  0.4642563E+02  0.7818608E-02  0.1564073E+00
          2   -1    0    0  502    0  0.00000000000E+00  0.00000000000E+00  0.81737891948E+03  0.81737891948E+03  0.00000000000E+00 0. -1.
          1   -1    0    0  501    0 -0.00000000000E+00 -0.00000000000E+00 -0.34569698813E+03  0.34569698813E+03  0.00000000000E+00 0. -1.
         25    2    1    2    0    0  0.26920484407E+02  0.32796283578E+02  0.13090065978E+02  0.13265137117E+03  0.12499891099E+03 0.  0.
          2    1    1    2  501    0  0.16850116812E+02 -0.16963546707E+02 -0.28468718820E+03  0.28568948787E+03  0.00000000000E+00 0. -1.
          1    1    1    2  502    0 -0.43770601219E+02 -0.15832736872E+02  0.74327905357E+03  0.74473504857E+03  0.00000000000E+00 0. -1.
         22    1    3    3    0    0 -0.41119723475E+02 -0.20025554264E+02  0.73447981022E+01  0.46322786417E+02  0.00000000000E+00 0.  1.
         22    1    3    3    0    0  0.68040207882E+02  0.52821837842E+02  0.57452678755E+01  0.86328584748E+02  0.00000000000E+00 0.  1.
</event>
<event>
 7    1  0.5970484E-006  0.1046947E+03  0.7818608E-02  0.1378892E+00
          2   -1    0    0  502    0  0.00000000000E+00  0.00000000000E+00  0.32993652722E+03  0.32993652722E+03  0.00000000000E+00 0. -1.
          1   -1    0    0  501    0 -0.00000000000E+00 -0.00000000000E+00 -0.28181922275E+03  0.28181922275E+03  0.00000000000E+00 0. -1.
         25    2    1    2    0    0 -0.11169049847E+03 -0.38975221530E+02  0.96606790928E+02  0.19738056099E+03  0.12502951036E+03 0.  0.
          2    1    1    2  501    0  0.81278750660E+02  0.65040033948E+02 -0.21726294841E+03  0.24091415500E+03  0.00000000000E+00 0. -1.
          1    1    1    2  502    0  0.30411747811E+02 -0.26064812418E+02  0.16877346196E+03  0.17346103399E+03  0.00000000000E+00 0. -1.
         22    1    3    3    0    0 -0.63159176315E+02  0.43268534875E+02  0.40219580251E+02  0.86480415694E+02  0.00000000000E+00 0.  1.
         22    1    3    3    0    0 -0.48531322156E+02 -0.82243756405E+02  0.56387210677E+02  0.11090014529E+03  0.00000000000E+00 0.  1.
</event>
<event>
 7    1  0.5970484E-006  0.1029243E+03  0.7818608E-02  0.1358965E+00
          2   -1    0    0  502    0  0.00000000000E+00  0.00000000000E+00  0.18800849588E+04  0.18800849588E+04  0.00000000000E+00 0. -1.
          1   -1    0    0  501    0 -0.00000000000E+00 -0.00000000000E+00 -0.93696909839E+02  0.93696909839E+02  0.00000000000E+00 0. -1.
         25    2    1    2    0    0 -0.10525926305E+03  0.83355093587E+02  0.31837121255E+03  0.36744072428E+03  0.12499949116E+03 0.  0.
          2    1    1    2  501    0  0.10931911051E+02 -0.46801793162E+02 -0.58931756408E+02  0.76045160502E+02  0.00000000000E+00 0. -1.
          1    1    1    2  502    0  0.94327352000E+02 -0.36553300425E+02  0.15269485928E+04  0.15302959838E+04  0.00000000000E+00 0. -1.
         22    1    3    3    0    0 -0.11143268164E+03  0.15732593660E+02  0.16516289387E+03  0.19985879654E+03  0.00000000000E+00 0.  1.
         22    1    3    3    0    0  0.61734185870E+01  0.67622499927E+02  0.15320831868E+03  0.16758192774E+03  0.00000000000E+00 0.  1.
</event>
<event>
 7    1  0.5970484E-006  0.5702240E+02  0.7818608E-02  0.1419901E+00
          2   -1    0    0  502    0  0.00000000000E+00  0.00000000000E+00  0.39123834863E+02  0.39123834863E+02  0.00000000000E+00 0. -1.
          1   -1    0    0  501    0 -0.00000000000E+00 -0.00000000000E+00 -0.39351953677E+04  0.39351953677E+04  0.00000000000E+00 0. -1.
         25    2    1    2    0    0  0.98943427055E+01  0.46444301541E+02 -0.78155236207E+03  0.79290832372E+03  0.12499817602E+03 0.  0.
          2    1    1    2  501    0 -0.55393051233E+02 -0.19009181564E+02 -0.31264164486E+04  0.31269649101E+04  0.00000000000E+00 0. -1.
          1    1    1    2  502    0  0.45498708527E+02 -0.27435119977E+02  0.11897277857E+02  0.54445968686E+02  0.00000000000E+00 0. -1.
         22    1    3    3    0    0 -0.56014446025E+02  0.31331843930E+02 -0.31406903343E+03  0.32055991697E+03  0.00000000000E+00 0. -1.
         22    1    3    3    0    0  0.65908788731E+02  0.15112457611E+02 -0.46748332863E+03  0.47234840675E+03  0.00000000000E+00 0. -1.
</event>
<event>
 7    1  0.5970484E-006  0.1435319E+03  0.7818608E-02  0.1314139E+00
          2   -1    0    0  502    0  0.00000000000E+00  0.00000000000E+00  0.15651715620E+04  0.15651715620E+04  0.00000000000E+00 0. -1.
          1   -1    0    0  501    0 -0.00000000000E+00 -0.00000000000E+00 -0.16118841698E+04  0.16118841698E+04  0.00000000000E+00 0. -1.
         25    2    1    2    0    0  0.12189860419E+03 -0.75070888832E+01  0.25004642018E+03  0.30505736749E+03  0.12498463558E+03 0.  0.
          2    1    1    2  501    0  0.20567019364E+02  0.46589392349E+02 -0.15797297533E+04  0.15805504317E+04  0.00000000000E+00 0. -1.
          1    1    1    2  502    0 -0.14246562355E+03 -0.39082303466E+02  0.12829707254E+04  0.12914479326E+04  0.00000000000E+00 0. -1.
         22    1    3    3    0    0  0.10756120022E+02 -0.36002798506E+02  0.14398987542E+03  0.14881189415E+03  0.00000000000E+00 0.  1.
         22    1    3    3    0    0  0.11114248417E+03  0.28495709623E+02  0.10605654476E+03  0.15624547334E+03  0.00000000000E+00 0.  1.
</event>
<event>
 7    1  0.5970484E-006  0.1359430E+03  0.7818608E-02  0.1253875E+00
          2   -1    0    0  502    0  0.00000000000E+00  0.00000000000E+00  0.10584425891E+04  0.10584425891E+04  0.00000000000E+00 0. -1.
          1   -1    0    0  501    0 -0.00000000000E+00 -0.00000000000E+00 -0.32188439537E+03  0.32188439537E+03  0.00000000000E+00 0. -1.
         25    2    1    2    0    0  0.41558499041E+02 -0.20008850797E+02  0.29174871745E+03  0.32073327826E+03  0.12500023481E+03 0.  0.
          2    1    1    2  501    0 -0.13313916932E+03  0.45600984033E+02 -0.28805025046E+03  0.32059075929E+03  0.00000000000E+00 0. -1.
          1    1    1    2  502    0  0.91580670282E+02 -0.25592133236E+02  0.73285972680E+03  0.73900294696E+03  0.00000000000E+00 0. -1.
         22    1    3    3    0    0 -0.43066754138E+02  0.37857582395E+01  0.71022763413E+02  0.83146318020E+02  0.00000000000E+00 0. -1.
         22    1    3    3    0    0  0.84625253179E+02 -0.23794609036E+02  0.22072595403E+03  0.23758696024E+03  0.00000000000E+00 0. -1.
</event>
<event>
 7    1  0.5970484E-006  0.9871200E+02  0.7818608E-02  0.1415000E+00
          2   -1    0    0  502    0  0.00000000000E+00  0.00000000000E+00  0.21347855019E+04  0.21347855019E+04  0.00000000000E+00 0. -1.
          1   -1    0    0  501    0 -0.00000000000E+00 -0.00000000000E+00 -0.17425292240E+03  0.17425292240E+03  0.00000000000E+00 0. -1.
         25    2    1    2    0    0  0.11439686344E+03  0.45429177011E+02  0.14086044274E+03  0.22498228300E+03  0.12499964339E+03 0.  0.
          2    1    1    2  501    0 -0.82792871457E+02 -0.49574914687E+02 -0.11443179689E+03  0.14968957168E+03  0.00000000000E+00 0. -1.
          1    1    1    2  502    0 -0.31603991983E+02  0.41457376765E+01  0.19341039337E+04  0.19343665696E+04  0.00000000000E+00 0. -1.
         22    1    3    3    0    0  0.39695046528E+02  0.84265277272E+01  0.13550019592E+03  0.14144612466E+03  0.00000000000E+00 0. -1.
         22    1    3    3    0    0  0.74701816912E+02  0.37002649283E+02  0.53602468206E+01  0.83536158338E+02  0.00000000000E+00 0. -1.
</event>
<event>
 7    1  0.5970484E-006  0.1653586E+03  0.7818608E-02  0.1246538E+00
          2   -1    0    0  502    0  0.00000000000E+00  0.00000000000E+00  0.35294632320E+03  0.35294632320E+03  0.00000000000E+00 0. -1.
          1   -1    0    0  501    0 -0.00000000000E+00 -0.00000000000E+00 -0.24161470483E+03  0.24161470483E+03  0.00000000000E+00 0. -1.
         25    2    1    2    0    0  0.14756858911E+02  0.19869515060E+03  0.92040436446E+02  0.25257681840E+03  0.12500431792E+03 0.  0.
          2    1    1    2  501    0 -0.65766896490E+02 -0.52443741169E+02 -0.11121413903E+03  0.13944251641E+03  0.00000000000E+00 0. -1.
          1    1    1    2  502    0  0.51010037579E+02 -0.14625140943E+03  0.13050532096E+03  0.20254169322E+03  0.00000000000E+00 0. -1.
         22    1    3    3    0    0  0.21720095680E+02 -0.79002448774E+01  0.27713916658E+02  0.36086529370E+02  0.00000000000E+00 0.  1.
         22    1    3    3    0    0 -0.69632367697E+01  0.20659539548E+03  0.64326519788E+02  0.21649028903E+03  0.00000000000E+00 0.  1.
</event>
<event>
 7    1  0.5970484E-006  0.4282676E+02  0.7818608E-02  0.1497793E+00
          2   -1    0    0  502    0  0.00000000000E+00  0.00000000000E+00  0.86716618671E+03  0.86716618671E+03  0.00000000000E+00 0. -1.
          1   -1    0    0  501    0 -0.00000000000E+00 -0.00000000000E+00 -0.20140101520E+04  0.20140101520E+04  0.00000000000E+00 0. -1.
         25    2    1    2    0    0  0.14777733365E+02 -0.49571116318E+02 -0.57558973923E+02  0.14701575145E+03  0.12499967488E+03 0.  0.
          2    1    1    2  501    0  0.24298218811E+02  0.31925975172E+02 -0.19109532943E+04  0.19113744176E+04  0.00000000000E+00 0. -1.
          1    1    1    2  502    0 -0.39075952176E+02  0.17645141147E+02  0.82166830290E+03  0.82278616969E+03  0.00000000000E+00 0. -1.
         22    1    3    3    0    0 -0.13934844043E+02  0.39150308564E+02 -0.12153202873E+02  0.43296961547E+02  0.00000000000E+00 0.  1.
         22    1    3    3    0    0  0.28712577408E+02 -0.88721424882E+02 -0.45405771050E+02  0.10371878990E+03  0.00000000000E+00 0.  1.
</event>
<event>
 7    1  0.5970484E-006  0.7363004E+02  0.7818608E-02  0.1457688E+00
          2   -1    0    0  502    0  0.00000000000E+00  0.00000000000E+00  0.11609974125E+04  0.11609974125E+04  0.00000000000E+00 0. -1.
          1   -1    0    0  501    0 -0.00000000000E+00 -0.00000000000E+00 -0.14108191836E+03  0.14108191836E+03  0.00000000000E+00 0. -1.
         25    2    1    2    0    0  0.46542494780E+02 -0.46447688128E+01  0.30254403457E+03  0.33067491408E+03  0.12500091301E+03 0.  0.
          2    1    1    2  501    0 -0.73949912082E+02 -0.98567627698E+01 -0.11574836492E+03  0.13770776757E+03  0.00000000000E+00 0. -1.
          1    1    1    2  502    0  0.27407417303E+02  0.14501531583E+02  0.83311982451E+03  0.83369664923E+03  0.00000000000E+00 0. -1.
         22    1    3    3    0    0 -0.59543575175E+01  0.36246032385E+01 -0.10801015833E+02  0.12855118246E+02  0.00000000000E+00 0.  1.
         22    1    3    3    0    0  0.52496852297E+02 -0.82693720513E+01  0.31334505040E+03  0.31781979584E+03  0.00000000000E+00 0.  1.
</event>
<event>
 7    1  0.5970484E-006  0.6447958E+02  0.7818608E-02  0.1472910E+00
          2   -1    0    0  502    0  0.00000000000E+00  0.00000000000E+00  0.10131497876E+04  0.10131497876E+04  0.00000000000E+00 0. -1.
          1   -1    0    0  501    0 -0.00000000000E+00 -0.00000000000E+00 -0.40118103982E+03  0.40118103982E+03  0.00000000000E+00 0. -1.
         25    2    1    2    0    0 -0.36574592741E+02 -0.74910799017E+02  0.85491736628E+03  0.86801942854E+03  0.12499878605E+03 0.  0.
          2    1    1    2  501    0  0.12154922224E+02  0.29306632726E+02 -0.38955557640E+03  0.39084545278E+03  0.00000000000E+00 0. -1.
          1    1    1    2  502    0  0.24419670517E+02  0.45604166291E+02  0.14660695793E+03  0.15546594613E+03  0.00000000000E+00 0. -1.
         22    1    3    3    0    0  0.16549243986E+02  0.26959423089E+02  0.11653193781E+03  0.12074924637E+03  0.00000000000E+00 0. -1.
         22    1    3    3    0    0 -0.53123836726E+02 -0.10187022211E+03  0.73838542847E+03  0.74727018217E+03  0.00000000000E+00 0. -1.
</event>
<event>
 7    1  0.6778242E-006  0.8820991E+02  0.7818608E-02  0.1309396E+00
          2   -1    0    0  502    0  0.00000000000E+00  0.00000000000E+00  0.99405482767E+03  0.99405482767E+03  0.00000000000E+00 0. -1.
          1   -1    0    0  501    0 -0.00000000000E+00 -0.00000000000E+00 -0.25490194295E+04  0.25490194295E+04  0.00000000000E+00 0. -1.
         25    2    1    2    0    0 -0.15625326189E+02 -0.14394100031E+03 -0.17444573166E+04  0.17549125621E+04  0.12499443440E+03 0.  0.
          2    1    1    2  501    0  0.56271831721E+02  0.65695089732E+02 -0.79501824619E+03  0.79971018228E+03  0.00000000000E+00 0. -1.
          1    1    1    2  502    0 -0.40646505533E+02  0.78245910573E+02  0.98451096097E+03  0.98845151283E+03  0.00000000000E+00 0. -1.
         22    1    3    3    0    0  0.25865150164E+02 -0.74954143877E+02 -0.38534698819E+03  0.39342017104E+03  0.00000000000E+00 0. -1.
         22    1    3    3    0    0 -0.41490476352E+02 -0.68986856429E+02 -0.13591103285E+04  0.13614923911E+04  0.00000000000E+00 0. -1.
</event>
<event>
 7    1  0.5970484E-006  0.6814603E+02  0.7818608E-02  0.1442143E+00
          2   -1    0    0  502    0  0.00000000000E+00  0.00000000000E+00  0.68100824804E+03  0.68100824804E+03  0.00000000000E+00 0. -1.
          1   -1    0    0  501    0 -0.00000000000E+00 -0.00000000000E+00 -0.85607015450E+02  0.85607015450E+02  0.00000000000E+00 0. -1.
         25    2    1    2    0    0  0.88998884352E+02 -0.10213118577E+02  0.85653611173E+02  0.17603154095E+03  0.12500181237E+03 0.  0.
          2    1    1    2  501    0 -0.57263911384E+02  0.30319857219E+02 -0.13335279423E+02  0.66153450144E+02  0.00000000000E+00 0. -1.
          1    1    1    2  502    0 -0.31734972969E+02 -0.20106738642E+02  0.52308290084E+03  0.52443027239E+03  0.00000000000E+00 0. -1.
         22    1    3    3    0    0  0.56900765774E+02 -0.20506713006E+02 -0.21119087552E+02  0.64064329256E+02  0.00000000000E+00 0. -1.
         22    1    3    3    0    0  0.32098118579E+02  0.10293594429E+02  0.10677269872E+03  0.11196721170E+03  0.00000000000E+00 0. -1.
</event>
<event>
 7    1  0.5970484E-006  0.1067609E+03  0.7818608E-02  0.1309969E+00
          2   -1    0    0  502    0  0.00000000000E+00  0.00000000000E+00  0.15971348276E+03  0.15971348276E+03  0.00000000000E+00 0. -1.
          1   -1    0    0  501    0 -0.00000000000E+00 -0.00000000000E+00 -0.17481438823E+04  0.17481438823E+04  0.00000000000E+00 0. -1.
         25    2    1    2    0    0 -0.28979432938E+02 -0.36190739457E+02 -0.18393868081E+03  0.22717480934E+03  0.12500151416E+03 0.  0.
          2    1    1    2  501    0 -0.12234224428E+02 -0.70038960265E+02 -0.15181084052E+04  0.15197724376E+04  0.00000000000E+00 0. -1.
          1    1    1    2  502    0  0.41213657366E+02  0.10622969972E+03  0.11361668649E+03  0.16091011809E+03  0.00000000000E+00 0. -1.
         22    1    3    3    0    0 -0.81840591210E+01  0.46693538785E+02 -0.74890983848E+02  0.88633655288E+02  0.00000000000E+00 0.  1.
         22    1    3    3    0    0 -0.20795373817E+02 -0.82884278241E+02 -0.10904769696E+03  0.13854115405E+03  0.00000000000E+00 0.  1.
</event>
<event>
 7    1  0.5970484E-006  0.7458365E+02  0.7818608E-02  0.1350052E+00
          2   -1    0    0  502    0  0.00000000000E+00  0.00000000000E+00  0.14921720208E+04  0.14921720208E+04  0.00000000000E+00 0. -1.
          1   -1    0    0  501    0 -0.00000000000E+00 -0.00000000000E+00 -0.12457997601E+03  0.12457997601E+03  0.00000000000E+00 0. -1.
         25    2    1    2    0    0 -0.32295140947E+02  0.13352699516E+03  0.28499784182E+03  0.34018060461E+03  0.12500655722E+03 0.  0.
          2    1    1    2  501    0  0.36583420307E+02 -0.62128272421E+02 -0.82339223908E+02  0.10944412579E+03  0.00000000000E+00 0. -1.
          1    1    1    2  502    0 -0.42882793594E+01 -0.71398722743E+02  0.11649334269E+04  0.11671272665E+04  0.00000000000E+00 0. -1.
         22    1    3    3    0    0  0.25701752695E+02 -0.69713330699E+01  0.84392251646E+02  0.88494246787E+02  0.00000000000E+00 0.  1.
         22    1    3    3    0    0 -0.57996893643E+02  0.14049832823E+03  0.20060559017E+03  0.25168635783E+03  0.00000000000E+00 0.  1.
</event>
<event>
 7    1  0.5970484E-006  0.6124647E+02  0.7818608E-02  0.1486951E+00
          2   -1    0    0  502    0  0.00000000000E+00  0.00000000000E+00  0.43934116349E+03  0.43934116349E+03  0.00000000000E+00 0. -1.
          1   -1    0    0  501    0 -0.00000000000E+00 -0.00000000000E+00 -0.83781194429E+02  0.83781194429E+02  0.00000000000E+00 0. -1.
         25    2    1    2    0    0  0.19761435885E+02  0.36157635388E+02  0.10233945777E+03  0.16672193455E+03  0.12499979959E+03 0.  0.
          2    1    1    2  501    0 -0.49502031023E+02 -0.41675406126E+02 -0.30172314328E+02  0.71397892847E+02  0.00000000000E+00 0. -1.
          1    1    1    2  502    0  0.29740595138E+02  0.55177707378E+01  0.28339282561E+03  0.28500253052E+03  0.00000000000E+00 0. -1.
         22    1    3    3    0    0 -0.51881939235E+02  0.28180975798E+02  0.53258429777E+02  0.79513290449E+02  0.00000000000E+00 0. -1.
         22    1    3    3    0    0  0.71643375120E+02  0.79766595901E+01  0.49081027995E+02  0.87208644100E+02  0.00000000000E+00 0. -1.
</event>
<event>
 7    1  0.5970484E-006  0.6425914E+02  0.7818608E-02  0.1509579E+00
          2   -1    0    0  502    0  0.00000000000E+00  0.00000000000E+00  0.81129058722E+03  0.81129058722E+03  0.00000000000E+00 0. -1.
          1   -1    0    0  501    0 -0.00000000000E+00 -0.00000000000E+00 -0.13855451201E+04  0.13855451201E+04  0.00000000000E+00 0. -1.
         25    2    1    2    0    0  0.86842108771E+02  0.15896518051E+02  0.50532845156E+02  0.16116138747E+03  0.12500069292E+03 0.  0.
          2    1    1    2  501    0 -0.24100026931E+02 -0.52683754783E+01 -0.13286810205E+04  0.13289100125E+04  0.00000000000E+00 0. -1.
          1    1    1    2  502    0 -0.62742081840E+02 -0.10628142572E+02  0.70389364247E+03  0.70676430736E+03  0.00000000000E+00 0. -1.
         22    1    3    3    0    0  0.71311371830E+02  0.46516491506E+02  0.79313684215E+02  0.11636045822E+03  0.00000000000E+00 0. -1.
         22    1    3    3    0    0  0.15530736941E+02 -0.30619973455E+02 -0.28780839059E+02  0.44800929245E+02  0.00000000000E+00 0. -1.
</event>
<event>
 7    1  0.5970484E-006  0.1014530E+03  0.7818608E-02  0.1320810E+00
          2   -1    0    0  502    0  0.00000000000E+00  0.00000000000E+00  0.69557056110E+02  0.69557056110E+02  0.00000000000E+00 0. -1.
          1   -1    0    0  501    0 -0.00000000000E+00 -0.00000000000E+00 -0.64037639390E+03  0.64037639390E+03  0.00000000000E+00 0. -1.
         25    2    1    2    0    0  0.12633020434E+03  0.20022434194E+02 -0.35516682222E+03  0.39765354659E+03  0.12499861243E+03 0.  0.
          2    1    1    2  501    0 -0.34231959323E+02 -0.58599096785E+02 -0.20001114421E+03  0.21121112422E+03  0.00000000000E+00 0. -1.
          1    1    1    2  502    0 -0.92098245018E+02  0.38576662591E+02 -0.15641371356E+02  0.10106877920E+03  0.00000000000E+00 0. -1.
         22    1    3    3    0    0  0.14006558082E+03  0.45487954454E+02 -0.31888072155E+03  0.35124412523E+03  0.00000000000E+00 0.  1.
         22    1    3    3    0    0 -0.13735376480E+02 -0.25465520261E+02 -0.36286100671E+02  0.46409421361E+02  0.00000000000E+00 0.  1.
</event>
<event>
 7    1  0.5970484E-006  0.3800298E+02  0.7818608E-02  0.1575169E+00
          2   -1    0    0  502    0  0.00000000000E+00  0.00000000000E+00  0.19623669895E+04  0.19623669895E+04  0.00000000000E+00 0. -1.
          1   -1    0    0  501    0 -0.00000000000E+00 -0.00000000000E+00 -0.10618366980E+03  0.10618366980E+03  0.00000000000E+00 0. -1.
         25    2    1    2    0    0  0.17247312021E+02 -0.18371210994E+02  0.19592045672E+03  0.23376228149E+03  0.12500003089E+03 0.  0.
          2    1    1    2  501    0 -0.38381316519E+02  0.11697207552E+01 -0.82926818958E+02  0.91385726494E+02  0.00000000000E+00 0. -1.
          1    1    1    2  502    0  0.21134004498E+02  0.17201490239E+02  0.17431896819E+04  0.17434026513E+04  0.00000000000E+00 0. -1.
         22    1    3    3    0    0  0.34977399434E+02  0.25945875403E+02  0.17722831295E+03  0.18250063516E+03  0.00000000000E+00 0. -1.
         22    1    3    3    0    0 -0.17730087414E+02 -0.44317086397E+02  0.18692143771E+02  0.51261646337E+02  0.00000000000E+00 0. -1.
</event>
<event>
 7    1  0.5970484E-006  0.2265049E+03  0.7818608E-02  0.1223124E+00
          2   -1    0    0  502    0  0.00000000000E+00  0.00000000000E+00  0.19641326060E+03  0.19641326060E+03  0.00000000000E+00 0. -1.
          1   -1    0    0  501    0 -0.00000000000E+00 -0.00000000000E+00 -0.23989229690E+04  0.23989229690E+04  0.00000000000E+00 0. -1.
         25    2    1    2    0    0  0.64815711976E+02 -0.15472781570E+03 -0.67559852097E+03  0.70724864372E+03  0.12500203615E+03 0.  0.
          2    1    1    2  501    0  0.69054730485E+02 -0.36381593861E+02 -0.16308039004E+04  0.16326706765E+04  0.00000000000E+00 0. -1.
          1    1    1    2  502    0 -0.13387044246E+03  0.19110940956E+03  0.10389271300E+03  0.25541690939E+03  0.00000000000E+00 0. -1.
         22    1    3    3    0    0  0.52521114037E+01 -0.14899047408E+03 -0.46504272888E+03  0.48835487683E+03  0.00000000000E+00 0.  1.
         22    1    3    3    0    0  0.59563600573E+02 -0.57373416228E+01 -0.21055579209E+03  0.21889376689E+03  0.00000000000E+00 0.  1.
</event>
<event>
 7    1  0.5970484E-006  0.1668307E+03  0.7818608E-02  0.1215194E+00
          2   -1    0    0  502    0  0.00000000000E+00  0.00000000000E+00  0.50447526890E+03  0.50447526890E+03  0.00000000000E+00 0. -1.
          1   -1    0    0  501    0 -0.00000000000E+00 -0.00000000000E+00 -0.18258422919E+04  0.18258422919E+04  0.00000000000E+00 0. -1.
         25    2    1    2    0    0  0.23702903471E+03  0.51807527900E+02 -0.33821121592E+03  0.43460201708E+03  0.12500121371E+03 0.  0.
          2    1    1    2  501    0 -0.13032926194E+03 -0.95197405446E+02 -0.14275458642E+04  0.14366403366E+04  0.00000000000E+00 0. -1.
          1    1    1    2  502    0 -0.10669977278E+03  0.43389877545E+02  0.44439005705E+03  0.45907520712E+03  0.00000000000E+00 0. -1.
         22    1    3    3    0    0  0.13183228847E+03  0.32048730463E+02 -0.28372795416E+03  0.31449709916E+03  0.00000000000E+00 0. -1.
         22    1    3    3    0    0  0.10519674624E+03  0.19758797437E+02 -0.54483261761E+02  0.12010491792E+03  0.00000000000E+00 0. -1.
</event>
<event>
 7    1  0.5970484E-006  0.8770453E+02  0.7818608E-02  0.1393074E+00
          2   -1    0    0  502    0  0.00000000000E+00  0.00000000000E+00  0.83499074491E+03  0.83499074491E+03  0.00000000000E+00 0. -1.
          1   -1    0    0  501    0 -0.00000000000E+00 -0.00000000000E+00 -0.21932201465E+04  0.21932201465E+04  0.00000000000E+00 0. -1.
         25    2    1    2    0    0 -0.81424445476E+02 -0.99198025844E+02  0.82546418687E+02  0.19721566951E+03  0.12493966707E+03 0.  0.
          2    1    1    2  501    0  0.24922877816E+02  0.34589968188E+02 -0.21330222493E+04  0.21334482725E+04  0.00000000000E+00 0. -1.
          1    1    1    2  502    0  0.56501567660E+02  0.64608057656E+02  0.69224642893E+03  0.69754694941E+03  0.00000000000E+00 0. -1.
         22    1    3    3    0    0 -0.71789566986E+02  0.51312599596E+01  0.18118899816E+02  0.74218368935E+02  0.00000000000E+00 0.  1.
         22    1    3    3    0    0 -0.96348784905E+01 -0.10432928580E+03  0.64427518871E+02  0.12299730057E+03  0.00000000000E+00 0.  1.
</event>
<event>
 7    1  0.5970484E-006  0.1522941E+03  0.7818608E-02  0.1201715E+00
          2   -1    0    0  502    0  0.00000000000E+00  0.00000000000E+00  0.11799169110E+04  0.11799169110E+04  0.00000000000E+00 0. -1.
          1   -1    0    0  501    0 -0.00000000000E+00 -0.00000000000E+00 -0.10090834888E+04  0.10090834888E+04  0.00000000000E+00 0. -1.
         25    2    1    2    0    0 -0.34109350415E+02  0.11830973389E+03  0.37959788532E+03  0.41818675537E+03  0.12499986763E+03 0.  0.
          2    1    1    2  501    0  0.14050446225E+03  0.38807449530E+02 -0.97275284784E+03  0.98361355472E+03  0.00000000000E+00 0. -1.
          1    1    1    2  502    0 -0.10639511184E+03 -0.15711718342E+03  0.76398838472E+03  0.78720008964E+03  0.00000000000E+00 0. -1.
         22    1    3    3    0    0 -0.17503476430E+02  0.10954064770E+03  0.14366653728E+03  0.18150922599E+03  0.00000000000E+00 0.  1.
         22    1    3    3    0    0 -0.16605873986E+02  0.87690861912E+01  0.23593134805E+03  0.23667752938E+03  0.00000000000E+00 0.  1.
</event>
<event>
 7    1  0.5970484E-006  0.1325028E+03  0.7818608E-02  0.1284554E+00
          2   -1    0    0  502    0  0.00000000000E+00  0.00000000000E+00  0.17505770711E+04  0.17505770711E+04  0.00000000000E+00 0. -1.
          1   -1    0    0  501    0 -0.00000000000E+00 -0.00000000000E+00 -0.11519116345E+03  0.11519116345E+03  0.00000000000E+00 0. -1.
         25    2    1    2    0    0  0.76291788176E+02 -0.73659150747E+02  0.89291015161E+03  0.90783529727E+03  0.12502112094E+03 0.  0.
          2    1    1    2  501    0  0.72433367805E+02  0.27231437387E+01 -0.86433892309E+02  0.11280437059E+03  0.00000000000E+00 0. -1.
          1    1    1    2  502    0 -0.14872515598E+03  0.70936007008E+02  0.82890964837E+03  0.84512856671E+03  0.00000000000E+00 0. -1.
         22    1    3    3    0    0  0.51257977920E+02 -0.53665799811E+02  0.18684145321E+03  0.20104011293E+03  0.00000000000E+00 0.  1.
         22    1    3    3    0    0  0.25033810255E+02 -0.19993350936E+02  0.70606869840E+03  0.70679518434E+03  0.00000000000E+00 0.  1.
</event>
<event>
 7    1  0.5970484E-006  0.1090073E+03  0.7818608E-02  0.1451711E+00
          2   -1    0    0  502    0  0.00000000000E+00  0.00000000000E+00  0.15494559465E+04  0.15494559465E+04  0.00000000000E+00 0. -1.
          1   -1    0    0  501    0 -0.00000000000E+00 -0.00000000000E+00 -0.15387917875E+03  0.15387917875E+03  0.00000000000E+00 0. -1.
         25    2    1    2    0    0  0.11150640702E+03 -0.62313148638E+02  0.24345590115E+03  0.30201337125E+03  0.12499877324E+03 0.  0.
          2    1    1    2  501    0 -0.21652208659E+02  0.31542706647E+01 -0.12135402674E+03  0.12331085665E+03  0.00000000000E+00 0. -1.
          1    1    1    2  502    0 -0.89854198356E+02  0.59158877974E+02  0.12734748933E+04  0.12780108973E+04  0.00000000000E+00 0. -1.
         22    1    3    3    0    0 -0.22611845313E+02 -0.34012475374E+02  0.68558874637E+02  0.79802652344E+02  0.00000000000E+00 0.  1.
         22    1    3    3    0    0  0.13411825233E+03 -0.28300673264E+02  0.17489702651E+03  0.22221071891E+03  0.00000000000E+00 0.  1.
</event>
<event>
 7    1  0.5970484E-006  0.2640400E+02  0.7818608E-02  0.1666676E+00
          2   -1    0    0  502    0  0.00000000000E+00  0.00000000000E+00  0.24396707869E+03  0.24396707869E+03  0.00000000000E+00 0. -1.
          1   -1    0    0  501    0 -0.00000000000E+00 -0.00000000000E+00 -0.13607602593E+03  0.13607602593E+03  0.00000000000E+00 0. -1.
         25    2    1    2    0    0 -0.61180856057E+01 -0.38074212134E+02  0.84312580844E+02  0.15562992142E+03  0.12499993820E+03 0.  0.
          2    1    1    2  501    0 -0.12243765098E+02  0.19395574886E+02 -0.97690894565E+02  0.10034744137E+03  0.00000000000E+00 0. -1.
          1    1    1    2  502    0  0.18361850704E+02  0.18678637248E+02  0.12126936648E+03  0.12406574184E+03  0.00000000000E+00 0. -1.
         22    1    3    3    0    0  0.56391323404E+02 -0.30124925979E+02  0.23664847353E+02  0.68172703634E+02  0.00000000000E+00 0.  1.
         22    1    3    3    0    0 -0.62509409009E+02 -0.79492861552E+01  0.60647733491E+02  0.87457217785E+02  0.00000000000E+00 0.  1.
</event>
<event>
 7    1  0.5970484E-006  0.7392656E+02  0.7818608E-02  0.1459739E+00
          2   -1    0    0  502    0  0.00000000000E+00  0.00000000000E+00  0.40493894298E+03  0.40493894298E+03  0.00000000000E+00 0. -1.
          1   -1    0    0  501    0 -0.00000000000E+00 -0.00000000000E+00 -0.61882147731E+03  0.61882147731E+03  0.00000000000E+00 0. -1.
         25    2    1    2    0    0  0.18519062084E+02  0.40722470986E+02  0.26272362349E+03  0.29436361774E+03  0.12499984724E+03 0.  0.
          2    1    1    2  501    0 -0.21419493317E+02 -0.71009389104E+02 -0.59884894420E+03  0.60342454872E+03  0.00000000000E+00 0. -1.
          1    1    1    2  502    0  0.29004312326E+01  0.30286918118E+02  0.12224278638E+03  0.12597225382E+03  0.00000000000E+00 0. -1.
         22    1    3    3    0    0  0.42793214222E+02  0.38679148772E+02  0.39725526887E+02  0.70038940737E+02  0.00000000000E+00 0. -1.
         22    1    3    3    0    0 -0.24274152138E+02  0.20433222144E+01  0.22299809660E+03  0.22432467701E+03  0.00000000000E+00 0. -1.
</event>
<event>
 7    1  0.5970484E-006  0.6871068E+02  0.7818608E-02  0.1389264E+00
          2   -1    0    0  502    0  0.00000000000E+00  0.00000000000E+00  0.12438132558E+04  0.12438132558E+04  0.00000000000E+00 0. -1.
          1   -1    0    0  501    0 -0.00000000000E+00 -0.00000000000E+00 -0.20935874373E+03  0.20935874373E+03  0.00000000000E+00 0. -1.
         25    2    1    2    0    0 -0.45231222439E+02  0.11529698416E+03  0.61585086177E+03  0.64049723577E+03  0.12500066818E+03 0.  0.
          2    1    1    2  501    0  0.19942707801E+02 -0.65211509359E+02 -0.18980555220E+03  0.20168391158E+03  0.00000000000E+00 0. -1.
          1    1    1    2  502    0  0.25288514638E+02 -0.50085474797E+02  0.60840920245E+03  0.61099085213E+03  0.00000000000E+00 0. -1.
         22    1    3    3    0    0 -0.22119899453E+02 -0.11039710530E+02  0.22573203998E+02  0.33477077219E+02  0.00000000000E+00 0.  1.
         22    1    3    3    0    0 -0.23111322986E+02  0.12633669469E+03  0.59327765777E+03  0.60702015855E+03  0.00000000000E+00 0.  1.
</event>
<event>
 7    1  0.5970484E-006  0.4773622E+02  0.7818608E-02  0.1519360E+00
          2   -1    0    0  502    0  0.00000000000E+00  0.00000000000E+00  0.16260049227E+03  0.16260049227E+03  0.00000000000E+00 0. -1.
          1   -1    0    0  501    0 -0.00000000000E+00 -0.00000000000E+00 -0.23162563757E+03  0.23162563757E+03  0.00000000000E+00 0. -1.
         25    2    1    2    0    0 -0.14467297035E+02  0.74549066682E+02  0.19822756464E+02  0.14759692512E+03  0.12500017842E+03 0.  0.
          2    1    1    2  501    0  0.66945511165E+01 -0.30360909525E+02 -0.15973716888E+03  0.16273464587E+03  0.00000000000E+00 0. -1.
          1    1    1    2  502    0  0.77727459182E+01 -0.44188157157E+02  0.70889267121E+02  0.83894558852E+02  0.00000000000E+00 0. -1.
         22    1    3    3    0    0  0.34090423576E+02 -0.18293909365E+02  0.18331323289E+02  0.42811931899E+02  0.00000000000E+00 0.  1.
         22    1    3    3    0    0 -0.48557720610E+02  0.92842976047E+02  0.14914331752E+01  0.10478499322E+03  0.00000000000E+00 0.  1.
</event>
<event>
 7    1  0.5970484E-006  0.6441965E+02  0.7818608E-02  0.1423095E+00
          2   -1    0    0  502    0  0.00000000000E+00  0.00000000000E+00  0.77796943482E+03  0.77796943482E+03  0.00000000000E+00 0. -1.
          1   -1    0    0  501    0 -0.00000000000E+00 -0.00000000000E+00 -0.42381874391E+02  0.42381874391E+02  0.00000000000E+00 0. -1.
         25    2    1    2    0    0 -0.55615394757E+02 -0.39437519645E+02  0.61085758848E+03  0.62722733769E+03  0.12497499608E+03 0.  0.
          2    1    1    2  501    0  0.16246742053E+02  0.63018036738E+02  0.54330807770E+01  0.65305037696E+02  0.00000000000E+00 0. -1.
          1    1    1    2  502    0  0.39368652704E+02 -0.23580517093E+02  0.11929689116E+03  0.12781893382E+03  0.00000000000E+00 0. -1.
         22    1    3    3    0    0 -0.80013797427E+02 -0.30683428559E+02  0.58265010963E+03  0.58891835667E+03  0.00000000000E+00 0.  1.
         22    1    3    3    0    0  0.24398402670E+02 -0.87540910869E+01  0.28207478851E+02  0.38308981019E+02  0.00000000000E+00 0.  1.
</event>
<event>
 7    1  0.5970484E-006  0.1412308E+03  0.7818608E-02  0.1285936E+00
          2   -1    0    0  502    0  0.00000000000E+00  0.00000000000E+00  0.37861846512E+03  0.37861846512E+03  0.00000000000E+00 0. -1.
          1   -1    0    0  501    0 -0.00000000000E+00 -0.00000000000E+00 -0.23707275502E+03  0.23707275502E+03  0.00000000000E+00 0. -1.
         25    2    1    2    0    0  0.13268435885E+03 -0.86502731141E+00  0.99639720795E+02  0.20774568385E+03  0.12499723133E+03 0.  0.
          2    1    1    2  501    0 -0.12942975050E+03 -0.66179897273E+02 -0.14744124662E+03  0.20705255449E+03  0.00000000000E+00 0. -1.
          1    1    1    2  502    0 -0.32546083535E+01  0.67044924585E+02  0.18934723592E+03  0.20089298180E+03  0.00000000000E+00 0. -1.
         22    1    3    3    0    0  0.85464157736E+02  0.47960503362E+02  0.99728302237E+02  0.13982155201E+03  0.00000000000E+00 0. -1.
         22    1    3    3    0    0  0.47220201115E+02 -0.48825530673E+02 -0.88581442081E-01  0.67924131835E+02  0.00000000000E+00 0. -1.
</event>
<event>
 7    1  0.5970484E-006  0.8609443E+02  0.7818608E-02  0.1394586E+00
          2   -1    0    0  502    0  0.00000000000E+00  0.00000000000E+00  0.43566491937E+02  0.43566491937E+02  0.00000000000E+00 0. -1.
          1   -1    0    0  501    0 -0.00000000000E+00 -0.00000000000E+00 -0.14516577850E+04  0.14516577850E+04  0.00000000000E+00 0. -1.
         25    2    1    2    0    0 -0.29308346996E+02 -0.41074642849E+02 -0.43105464513E+03  0.45164026908E+03  0.12499888034E+03 0.  0.
          2    1    1    2  501    0 -0.86255757915E+01 -0.42033258144E+02 -0.94618767042E+03  0.94716012532E+03  0.00000000000E+00 0. -1.
          1    1    1    2  502    0  0.37933922788E+02  0.83107900993E+02 -0.30848977498E+02  0.96423882509E+02  0.00000000000E+00 0. -1.
         22    1    3    3    0    0  0.15858921065E+02 -0.71359284110E+02 -0.17114927600E+03  0.18610676367E+03  0.00000000000E+00 0. -1.
         22    1    3    3    0    0 -0.45167268061E+02  0.30284641261E+02 -0.25990536912E+03  0.26553350542E+03  0.00000000000E+00 0. -1.
</event>
<event>
 7    1  0.5970484E-006  0.4319510E+02  0.7818608E-02  0.1560522E+00
          2   -1    0    0  502    0  0.00000000000E+00  0.00000000000E+00  0.13298865625E+03  0.13298865625E+03  0.00000000000E+00 0. -1.
          1   -1    0    0  501    0 -0.00000000000E+00 -0.00000000000E+00 -0.23607273957E+03  0.23607273957E+03  0.00000000000E+00 0. -1.
         25    2    1    2    0    0  0.38303032323E+02 -0.11424870304E+02 -0.85331388782E+02  0.15653785528E+03  0.12500001711E+03 0.  0.
          2    1    1    2  501    0 -0.27106434136E+02  0.35201808731E+02 -0.10892573878E+03  0.11763818546E+03  0.00000000000E+00 0. -1.
          1    1    1    2  502    0 -0.11196598188E+02 -0.23776938427E+02  0.91173044244E+02  0.94885355080E+02  0.00000000000E+00 0. -1.
         22    1    3    3    0    0  0.21538336806E+02  0.13452324479E+02 -0.11294513804E+03  0.11576471480E+03  0.00000000000E+00 0. -1.
         22    1    3    3    0    0  0.16764695518E+02 -0.24877194784E+02  0.27613749260E+02  0.40773140476E+02  0.00000000000E+00 0. -1.
</event>
<event>
 7    1  0.5970484E-006  0.1026118E+03  0.7818608E-02  0.1291413E+00
          2   -1    0    0  502    0  0.00000000000E+00  0.00000000000E+00  0.12899207924E+03  0.12899207924E+03  0.00000000000E+00 0. -1.
          1   -1    0    0  501    0 -0.00000000000E+00 -0.00000000000E+00 -0.19002020747E+04  0.19002020747E+04  0.00000000000E+00 0. -1.
         25    2    1    2    0    0 -0.65385428085E+01  0.90981798508E+02 -0.27350831943E+03  0.31424900715E+03  0.12500078997E+03 0.  0.
          2    1    1    2  501    0  0.88412119324E+02 -0.59386262362E+02 -0.15865160689E+04  0.15900870001E+04  0.00000000000E+00 0. -1.
          1    1    1    2  502    0 -0.81873576516E+02 -0.31595536146E+02  0.88814392818E+02  0.12485814674E+03  0.00000000000E+00 0. -1.
         22    1    3    3    0    0  0.52722300980E+01 -0.31350411164E+02 -0.52967189636E+02  0.61775139566E+02  0.00000000000E+00 0. -1.
         22    1    3    3    0    0 -0.11810772906E+02  0.12233220967E+03 -0.22054112980E+03  0.25247386758E+03  0.00000000000E+00 0. -1.
</event>
<event>
 7    1  0.5970484E-006  0.7449913E+02  0.7818608E-02  0.1374290E+00
          2   -1    0    0  502    0  0.00000000000E+00  0.00000000000E+00  0.23382623623E+04  0.23382623623E+04  0.00000000000E+00 0. -1.
          1   -1    0    0  501    0 -0.00000000000E+00 -0.00000000000E+00 -0.25001845758E+03  0.25001845758E+03  0.00000000000E+00 0. -1.
         25    2    1    2    0    0  0.55393318673E+02  0.22055802228E+02  0.14702846955E+04  0.14767926351E+04  0.12499809189E+03 0.  0.
          2    1    1    2  501    0 -0.23300904147E+02 -0.70908031962E+02 -0.24010348232E+03  0.25143699679E+03  0.00000000000E+00 0. -1.
          1    1    1    2  502    0 -0.32092414525E+02  0.48852229734E+02  0.85806269145E+03  0.86005118794E+03  0.00000000000E+00 0. -1.
         22    1    3    3    0    0  0.58562365545E+02  0.69275376644E+02  0.10213117737E+04  0.10253323206E+04  0.00000000000E+00 0.  1.
         22    1    3    3    0    0 -0.31690468722E+01 -0.47219574416E+02  0.44897292184E+03  0.45146031454E+03  0.00000000000E+00 0.  1.
</event>
<event>
 7    1  0.5970484E-006  0.5015250E+02  0.7818608E-02  0.1574584E+00
          2   -1    0    0  502    0  0.00000000000E+00  0.00000000000E+00  0.16608392654E+04  0.16608392654E+04  0.00000000000E+00 0. -1.
          1   -1    0    0  501    0 -0.00000000000E+00 -0.00000000000E+00 -0.62354751871E+03  0.62354751871E+03  0.00000000000E+00 0. -1.
         25    2    1    2    0    0  0.34466032189E+02  0.26129043484E+01  0.10546322509E+04  0.10625773296E+04  0.12500664885E+03 0.  0.
          2    1    1    2  501    0 -0.46118046287E+02 -0.19750397702E+02 -0.61838050987E+03  0.62041228823E+03  0.00000000000E+00 0. -1.
          1    1    1    2  502    0  0.11652014098E+02  0.17137493353E+02  0.60104000571E+03  0.60139716626E+03  0.00000000000E+00 0. -1.
         22    1    3    3    0    0 -0.45259703263E+02 -0.67910860812E+01  0.51163462237E+03  0.51367747312E+03  0.00000000000E+00 0. -1.
         22    1    3    3    0    0  0.79725735452E+02  0.94039904296E+01  0.54299762850E+03  0.54889985651E+03  0.00000000000E+00 0. -1.
</event>
<event>
 7    1  0.5970484E-006  0.1451237E+03  0.7818608E-02  0.1235956E+00
          2   -1    0    0  502    0  0.00000000000E+00  0.00000000000E+00  0.15933978502E+04  0.15933978502E+04  0.00000000000E+00 0. -1.
          1   -1    0    0  501    0 -0.00000000000E+00 -0.00000000000E+00 -0.19271951780E+03  0.19271951780E+03  0.00000000000E+00 0. -1.
         25    2    1    2    0    0 -0.19531983461E+02  0.52355728068E+02  0.24906098478E+03  0.28421986231E+03  0.12500774117E+03 0.  0.
          2    1    1    2  501    0  0.10189429022E+03 -0.12018028520E+03 -0.13704666106E+03  0.20882417159E+03  0.00000000000E+00 0. -1.
          1    1    1    2  502    0 -0.82362306764E+02  0.67824557132E+02  0.12886640087E+04  0.12930733341E+04  0.00000000000E+00 0. -1.
         22    1    3    3    0    0  0.28987055855E+02  0.74307664226E+02  0.18104384916E+03  0.19783516798E+03  0.00000000000E+00 0. -1.
         22    1    3    3    0    0 -0.48519039316E+02 -0.21951936158E+02  0.68017135621E+02  0.86384694335E+02  0.00000000000E+00 0. -1.
</event>
<event>
 7    1  0.5970484E-006  0.8138695E+02  0.7818608E-02  0.1439164E+00
          2   -1    0    0  502    0  0.00000000000E+00  0.00000000000E+00  0.14581991876E+04  0.14581991876E+04  0.00000000000E+00 0. -1.
          1   -1    0    0  501    0 -0.00000000000E+00 -0.00000000000E+00 -0.14781830056E+03  0.14781830056E+03  0.00000000000E+00 0. -1.
         25    2    1    2    0    0 -0.48453121454E+02 -0.97553164315E+02  0.37323764132E+03  0.40840609636E+03  0.12499951121E+03 0.  0.
          2    1    1    2  501    0  0.23732901045E+02  0.76975749166E+02 -0.11750992095E+03  0.14246788436E+03  0.00000000000E+00 0. -1.
          1    1    1    2  502    0  0.24720220409E+02  0.20577415149E+02  0.10546531667E+04  0.10551435075E+04  0.00000000000E+00 0. -1.
         22    1    3    3    0    0  0.34750176427E+02 -0.58981959847E+02  0.10908630757E+03  0.12878768904E+03  0.00000000000E+00 0.  1.
         22    1    3    3    0    0 -0.83203297881E+02 -0.38571204468E+02  0.26415133375E+03  0.27961840733E+03  0.00000000000E+00 0.  1.
</event>
<event>
 7    1  0.5970484E-006  0.6638802E+02  0.7818608E-02  0.1405114E+00
          2   -1    0    0  502    0  0.00000000000E+00  0.00000000000E+00  0.96477793383E+03  0.96477793383E+03  0.00000000000E+00 0. -1.
          1   -1    0    0  501    0 -0.00000000000E+00 -0.00000000000E+00 -0.35044553842E+03  0.35044553842E+03  0.00000000000E+00 0. -1.
         25    2    1    2    0    0  0.17006470365E+02  0.15444422008E+02 -0.73799408413E+02  0.14696878691E+03  0.12500288572E+03 0.  0.
          2    1    1    2  501    0 -0.40165531445E+02 -0.61101594271E+02 -0.23376669952E+03  0.24493579678E+03  0.00000000000E+00 0. -1.
          1    1    1    2  502    0  0.23159061081E+02  0.45657172262E+02  0.92189850334E+03  0.92331888855E+03  0.00000000000E+00 0. -1.
         22    1    3    3    0    0 -0.96709830236E+01 -0.46348117768E+02 -0.35306673816E+00  0.47347656641E+02  0.00000000000E+00 0.  1.
         22    1    3    3    0    0  0.26677453388E+02  0.61792539776E+02 -0.73446341674E+02  0.99621130272E+02  0.00000000000E+00 0.  1.
</event>
<event>
 7    1  0.5970484E-006  0.5468207E+02  0.7818608E-02  0.1443277E+00
          2   -1    0    0  502    0  0.00000000000E+00  0.00000000000E+00  0.43027149861E+03  0.43027149861E+03  0.00000000000E+00 0. -1.
          1   -1    0    0  501    0 -0.00000000000E+00 -0.00000000000E+00 -0.25151062323E+03  0.25151062323E+03  0.00000000000E+00 0. -1.
         25    2    1    2    0    0  0.17842253968E+01 -0.23417430162E+02  0.10596242770E+03  0.16554320948E+03  0.12499983451E+03 0.  0.
          2    1    1    2  501    0  0.43066488140E+02  0.35405963028E+02 -0.21633421396E+03  0.22340276799E+03  0.00000000000E+00 0. -1.
          1    1    1    2  502    0 -0.44850713537E+02 -0.11988532865E+02  0.28913266163E+03  0.29283614437E+03  0.00000000000E+00 0. -1.
         22    1    3    3    0    0 -0.11298195486E+02  0.47575442190E+02  0.68643178056E+02  0.84279047303E+02  0.00000000000E+00 0.  1.
         22    1    3    3    0    0  0.13082420883E+02 -0.70992872352E+02  0.37319249643E+02  0.81264162180E+02  0.00000000000E+00 0.  1.
</event>
<event>
 7    1  0.5970484E-006  0.6038470E+02  0.7818608E-02  0.1396976E+00
          2   -1    0    0  502    0  0.00000000000E+00  0.00000000000E+00  0.10208484992E+04  0.10208484992E+04  0.00000000000E+00 0. -1.
          1   -1    0    0  501    0 -0.00000000000E+00 -0.00000000000E+00 -0.76507323878E+03  0.76507323878E+03  0.00000000000E+00 0. -1.
         25    2    1    2    0    0 -0.74167748411E+02 -0.51574779076E+02  0.65680265474E+02  0.16763193512E+03  0.12500302259E+03 0.  0.
          2    1    1    2  501    0  0.59630525387E+02 -0.68688051374E+01 -0.71183002514E+03  0.71435632896E+03  0.00000000000E+00 0. -1.
          1    1    1    2  502    0  0.14537223024E+02  0.58443584214E+02  0.90192502008E+03  0.90393347390E+03  0.00000000000E+00 0. -1.
         22    1    3    3    0    0 -0.10069457848E+03 -0.48380078987E+02  0.18251573236E+02  0.11319518586E+03  0.00000000000E+00 0.  1.
         22    1    3    3    0    0  0.26526830065E+02 -0.31947000892E+01  0.47428692238E+02  0.54436749254E+02  0.00000000000E+00 0.  1.
</event>
<event>
 7    1  0.5970484E-006  0.8190357E+02  0.7818608E-02  0.1366656E+00
          2   -1    0    0  502    0  0.00000000000E+00  0.00000000000E+00  0.17812934681E+04  0.17812934681E+04  0.00000000000E+00 0. -1.
          1   -1    0    0  501    0 -0.00000000000E+00 -0.00000000000E+00 -0.26466620199E+03  0.26466620199E+03  0.00000000000E+00 0. -1.
         25    2    1    2    0    0 -0.86596132629E+02  0.20390208069E+02 -0.16696907991E+03  0.22675473483E+03  0.12499754138E+03 0.  0.
          2    1    1    2  501    0  0.52916605639E+02 -0.65919184683E+02 -0.40811514121E+02  0.93867383827E+02  0.00000000000E+00 0. -1.
          1    1    1    2  502    0  0.33679526989E+02  0.45528976614E+02  0.17244078602E+04  0.17253375515E+04  0.00000000000E+00 0. -1.
         22    1    3    3    0    0 -0.95400406032E+02  0.57985106050E+02 -0.14257164990E+03  0.18108060456E+03  0.00000000000E+00 0.  1.
         22    1    3    3    0    0  0.88042734037E+01 -0.37594897981E+02 -0.24397430008E+02  0.45674130264E+02  0.00000000000E+00 0.  1.
</event>
<event>
 7    1  0.5970484E-006  0.1709807E+03  0.7818608E-02  0.1220069E+00
          2   -1    0    0  502    0  0.00000000000E+00  0.00000000000E+00  0.65128352185E+03  0.65128352185E+03  0.00000000000E+00 0. -1.
          1   -1    0    0  501    0 -0.00000000000E+00 -0.00000000000E+00 -0.79786641129E+03  0.79786641129E+03  0.00000000000E+00 0. -1.
         25    2    1    2    0    0  0.10091950017E+03  0.23505232192E+03  0.51983475307E+02  0.28941622790E+03  0.12500052686E+03 0.  0.
          2    1    1    2  501    0 -0.20177600149E+02 -0.16520687544E+03 -0.66280274657E+03  0.68337978321E+03  0.00000000000E+00 0. -1.
          1    1    1    2  502    0 -0.80741900026E+02 -0.69845446473E+02  0.46423638182E+03  0.47635392202E+03  0.00000000000E+00 0. -1.
         22    1    3    3    0    0  0.10446233090E+03  0.24823216684E+03  0.42150990918E+02  0.27259547551E+03  0.00000000000E+00 0. -1.
         22    1    3    3    0    0 -0.35428307279E+01 -0.13179844927E+02  0.98324843891E+01  0.16820752394E+02  0.00000000000E+00 0. -1.
</event>
<event>
 7    1  0.5970484E-006  0.1315358E+03  0.7818608E-02  0.1236079E+00
          2   -1    0    0  502    0  0.00000000000E+00  0.00000000000E+00  0.12073855074E+04  0.12073855074E+04  0.00000000000E+00 0. -1.
          1   -1    0    0  501    0 -0.00000000000E+00 -0.00000000000E+00 -0.68725596467E+03  0.68725596467E+03  0.00000000000E+00 0. -1.
         25    2    1    2    0    0 -0.18304356606E+03 -0.15995554699E+03  0.26678425418E+03  0.38195695478E+03  0.12500621159E+03 0.  0.
          2    1    1    2  501    0  0.81852811501E+02  0.10010038372E+03 -0.61904620290E+03  0.63240664995E+03  0.00000000000E+00 0. -1.
          1    1    1    2  502    0  0.10119075456E+03  0.59855163270E+02  0.87239149146E+03  0.88027786736E+03  0.00000000000E+00 0. -1.
         22    1    3    3    0    0 -0.67193708930E+02 -0.65925627677E+02  0.19467306698E+03  0.21623779945E+03  0.00000000000E+00 0. -1.
         22    1    3    3    0    0 -0.11584985713E+03 -0.94029919315E+02  0.72111187200E+02  0.16571915533E+03  0.00000000000E+00 0. -1.
</event>
<event>
 7    1  0.5970484E-006  0.8897954E+02  0.7818608E-02  0.1350420E+00
          2   -1    0    0  502    0  0.00000000000E+00  0.00000000000E+00  0.38437741794E+03  0.38437741794E+03  0.00000000000E+00 0. -1.
          1   -1    0    0  501    0 -0.00000000000E+00 -0.00000000000E+00 -0.21309251050E+04  0.21309251050E+04  0.00000000000E+00 0. -1.
         25    2    1    2    0    0 -0.19890652471E+02  0.13856721879E+03  0.96884047482E+02  0.21120347386E+03  0.12499550605E+03 0.  0.
          2    1    1    2  501    0  0.20805673994E+02 -0.56028994315E+02 -0.20659241765E+04  0.20667885299E+04  0.00000000000E+00 0. -1.
          1    1    1    2  502    0 -0.91502152304E+00 -0.82538224475E+02  0.22249244198E+03  0.23731051916E+03  0.00000000000E+00 0. -1.
         22    1    3    3    0    0 -0.57338045786E+02  0.16540683540E+02  0.36953627276E+02  0.70191283472E+02  0.00000000000E+00 0. -1.
         22    1    3    3    0    0  0.37447393315E+02  0.12202653525E+03  0.59930420206E+02  0.14101219039E+03  0.00000000000E+00 0. -1.
</event>
<event>
 7    1  0.5970484E-006  0.1154190E+03  0.7818608E-02  0.1274072E+00
          2   -1    0    0  502    0  0.00000000000E+00  0.00000000000E+00  0.19151710442E+04  0.19151710442E+04  0.00000000000E+00 0. -1.
          1   -1    0    0  501    0 -0.00000000000E+00 -0.00000000000E+00 -0.52229821785E+03  0.52229821785E+03  0.00000000000E+00 0. -1.
         25    2    1    2    0    0 -0.17701489807E+03 -0.62567460186E+02  0.22359668390E+03  0.31760035965E+03  0.12500220072E+03 0.  0.
          2    1    1    2  501    0  0.85884532054E+02  0.74829052302E+02 -0.46716215017E+03  0.48084926377E+03  0.00000000000E+00 0. -1.
          1    1    1    2  502    0  0.91130366019E+02 -0.12261592116E+02  0.16364382927E+04  0.16390196387E+04  0.00000000000E+00 0. -1.
         22    1    3    3    0    0 -0.44440603106E+02 -0.47525224189E+01  0.14759788088E+03  0.15421636785E+03  0.00000000000E+00 0.  1.
         22    1    3    3    0    0 -0.13257429497E+03 -0.57814937767E+02  0.75998803019E+02  0.16338399180E+03  0.00000000000E+00 0.  1.
</event>
<event>
 7    1  0.5970484E-006  0.1264281E+03  0.7818608E-02  0.1361751E+00
          2   -1    0    0  502    0  0.00000000000E+00  0.00000000000E+00  0.55002715776E+03  0.55002715776E+03  0.00000000000E+00 0. -1.
          1   -1    0    0  501    0 -0.00000000000E+00 -0.00000000000E+00 -0.51431499106E+03  0.51431499106E+03  0.00000000000E+00 0. -1.
         25    2    1    2    0    0 -0.62235830510E+02  0.67384068242E+02 -0.25024632552E+03  0.29438550108E+03  0.12500275420E+03 0.  0.
          2    1    1    2  501    0 -0.35326059029E+02  0.14593830263E+02 -0.23272802049E+03  0.23584580100E+03  0.00000000000E+00 0. -1.
          1    1    1    2  502    0  0.97561889539E+02 -0.81977898505E+02  0.51868651272E+03  0.53411084674E+03  0.00000000000E+00 0. -1.
         22    1    3    3    0    0 -0.90141433491E+02  0.27753319734E+02 -0.21399749630E+03  0.23386032843E+03  0.00000000000E+00 0.  1.
         22    1    3    3    0    0  0.27905602981E+02  0.39630748508E+02 -0.36248829212E+02  0.60525172650E+02  0.00000000000E+00 0.  1.
</event>
<event>
 7    1  0.5970484E-006  0.1207564E+03  0.7818608E-02  0.1260773E+00
          2   -1    0    0  502    0  0.00000000000E+00  0.00000000000E+00  0.79681181570E+03  0.79681181570E+03  0.00000000000E+00 0. -1.
          1   -1    0    0  501    0 -0.00000000000E+00 -0.00000000000E+00 -0.12600377190E+04  0.12600377190E+04  0.00000000000E+00 0. -1.
         25    2    1    2    0    0 -0.53750404928E+02 -0.42207499545E+02  0.19139338845E+03  0.23859389615E+03  0.12500015635E+03 0.  0.
          2    1    1    2  501    0  0.16539741115E+02 -0.98625250001E+02 -0.12252509936E+04  0.12293252215E+04  0.00000000000E+00 0. -1.
          1    1    1    2  502    0  0.37210663814E+02  0.14083274955E+03  0.57063170189E+03  0.58893041699E+03  0.00000000000E+00 0. -1.
         22    1    3    3    0    0  0.24679292062E+02 -0.50956438452E+02  0.11774426138E+03  0.13064967342E+03  0.00000000000E+00 0. -1.
         22    1    3    3    0    0 -0.78429696990E+02  0.87489389067E+01  0.73649127065E+02  0.10794422272E+03  0.00000000000E+00 0. -1.
</event>
<event>
 7    1  0.5970484E-006  0.1857437E+03  0.7818608E-02  0.1299920E+00
          2   -1    0    0  502    0  0.00000000000E+00  0.00000000000E+00  0.31661784590E+04  0.31661784590E+04  0.00000000000E+00 0. -1.
          1   -1    0    0  501    0 -0.00000000000E+00 -0.00000000000E+00 -0.96099389648E+03  0.96099389648E+03  0.00000000000E+00 0. -1.
         25    2    1    2    0    0 -0.43138128572E+02  0.16624404340E+03  0.32082515503E+03  0.38477489736E+03  0.12499984575E+03 0.  0.
          2    1    1    2  501    0  0.30347294392E+01 -0.18621397401E+03 -0.91950455114E+03  0.93817560897E+03  0.00000000000E+00 0. -1.
          1    1    1    2  502    0  0.40103399132E+02  0.19969930615E+02  0.28038639586E+04  0.28042218491E+04  0.00000000000E+00 0. -1.
         22    1    3    3    0    0 -0.41920317490E+02  0.17561584487E+03  0.22499784056E+03  0.28848269661E+03  0.00000000000E+00 0. -1.
         22    1    3    3    0    0 -0.12178110812E+01 -0.93718014686E+01  0.95827314478E+02  0.96292200758E+02  0.00000000000E+00 0. -1.
</event>
<event>
 7    1  0.5970484E-006  0.9116170E+02  0.7818608E-02  0.1320598E+00
          2   -1    0    0  502    0  0.00000000000E+00  0.00000000000E+00  0.22681065893E+03  0.22681065893E+03  0.00000000000E+00 0. -1.
          1   -1    0    0  501    0 -0.00000000000E+00 -0.00000000000E+00 -0.13812920806E+04  0.13812920806E+04  0.00000000000E+00 0. -1.
         25    2    1    2    0    0  0.15017758308E+03 -0.19071406561E+01 -0.24973056724E+02  0.19697290294E+03  0.12497090575E+03 0.  0.
          2    1    1    2  501    0 -0.82706718556E+02  0.36164790123E+02 -0.12584183896E+04  0.12616517493E+04  0.00000000000E+00 0. -1.
          1    1    1    2  502    0 -0.67470864527E+02 -0.34257649467E+02  0.12891002466E+03  0.14947808724E+03  0.00000000000E+00 0. -1.
         22    1    3    3    0    0  0.14664458959E+03 -0.38116377448E+02 -0.41375625142E+02  0.15706507009E+03  0.00000000000E+00 0. -1.
         22    1    3    3    0    0  0.35329934939E+01  0.36209236792E+02  0.16402568418E+02  0.39907832850E+02  0.00000000000E+00 0. -1.
</event>
<event>
 7    1  0.5970484E-006  0.7040459E+02  0.7818608E-02  0.1425197E+00
          2   -1    0    0  502    0  0.00000000000E+00  0.00000000000E+00  0.82407065585E+03  0.82407065585E+03  0.00000000000E+00 0. -1.
          1   -1    0    0  501    0 -0.00000000000E+00 -0.00000000000E+00 -0.24620885957E+02  0.24620885957E+02  0.00000000000E+00 0. -1.
         25    2    1    2    0    0 -0.22895566499E+02  0.72745321902E+02  0.36484309620E+03  0.39312858095E+03  0.12499402984E+03 0.  0.
          2    1    1    2  501    0  0.41140096108E+02 -0.38518398408E+01  0.52213785713E+02  0.66585460849E+02  0.00000000000E+00 0. -1.
          1    1    1    2  502    0 -0.18244529609E+02 -0.68893482061E+02  0.38239288798E+03  0.38897750001E+03  0.00000000000E+00 0. -1.
         22    1    3    3    0    0  0.23359421428E+02  0.21800393903E+02  0.28884655749E+03  0.29060841956E+03  0.00000000000E+00 0. -1.
         22    1    3    3    0    0 -0.46254987928E+02  0.50944927999E+02  0.75996538708E+02  0.10252016140E+03  0.00000000000E+00 0. -1.
</event>
<event>
 7    1  0.5970484E-006  0.9140899E+02  0.7818608E-02  0.1421403E+00
          2   -1    0    0  502    0  0.00000000000E+00  0.00000000000E+00  0.99048160761E+03  0.99048160761E+03  0.00000000000E+00 0. -1.
          1   -1    0    0  501    0 -0.00000000000E+00 -0.00000000000E+00 -0.87148573219E+03  0.87148573219E+03  0.00000000000E+00 0. -1.
         25    2    1    2    0    0 -0.10058816438E+03  0.62176434659E+02  0.56712745432E+02  0.18117791577E+03  0.12500085531E+03 0.  0.
          2    1    1    2  501    0  0.32673113394E+02 -0.24284174608E+01 -0.80657258969E+03  0.80723774192E+03  0.00000000000E+00 0. -1.
          1    1    1    2  502    0  0.67915050985E+02 -0.59748017198E+02  0.86885571967E+03  0.87355168211E+03  0.00000000000E+00 0. -1.
         22    1    3    3    0    0  0.20142619476E+02  0.24836434092E+02  0.43680252580E+02  0.54134444148E+02  0.00000000000E+00 0. -1.
         22    1    3    3    0    0 -0.12073078386E+03  0.37340000567E+02  0.13032492852E+02  0.12704347163E+03  0.00000000000E+00 0. -1.
</event>
<event>
 7    1  0.5970484E-006  0.1110525E+03  0.7818608E-02  0.1454457E+00
          2   -1    0    0  502    0  0.00000000000E+00  0.00000000000E+00  0.63548167300E+03  0.63548167300E+03  0.00000000000E+00 0. -1.
          1   -1    0    0  501    0 -0.00000000000E+00 -0.00000000000E+00 -0.12863737997E+04  0.12863737997E+04  0.00000000000E+00 0. -1.
         25    2    1    2    0    0 -0.98763232102E+02 -0.78096310659E+02 -0.99372354276E+03  0.10094372835E+04  0.12499576078E+03 0.  0.
          2    1    1    2  501    0  0.37667208198E+01  0.20709701090E+02 -0.27948810086E+03  0.28027964326E+03  0.00000000000E+00 0. -1.
          1    1    1    2  502    0  0.94996511282E+02  0.57386609569E+02  0.62231951690E+03  0.63213854592E+03  0.00000000000E+00 0. -1.
         22    1    3    3    0    0 -0.13788982016E+02  0.34014959267E+02 -0.21433130617E+03  0.21745128715E+03  0.00000000000E+00 0.  1.
         22    1    3    3    0    0 -0.84974250085E+02 -0.11211126993E+03 -0.77939223659E+03  0.79198599639E+03  0.00000000000E+00 0.  1.
</event>
<event>
 7    1  0.5970484E-006  0.9241091E+02  0.7818608E-02  0.1385935E+00
          2   -1    0    0  502    0  0.00000000000E+00  0.00000000000E+00  0.61621004469E+03  0.61621004469E+03  0.00000000000E+00 0. -1.
          1   -1    0    0  501    0 -0.00000000000E+00 -0.00000000000E+00 -0.17120028165E+04  0.17120028165E+04  0.00000000000E+00 0. -1.
         25    2    1    2    0    0 -0.35817771403E+02 -0.12769074234E+03 -0.98933093614E+02  0.20734077720E+03  0.12495840289E+03 0.  0.
          2    1    1    2  501    0  0.34003700118E+02  0.84876089663E+02 -0.15567055829E+04  0.15593884936E+04  0.00000000000E+00 0. -1.
          1    1    1    2  502    0  0.18140712852E+01  0.42814652675E+02  0.55984590466E+03  0.56148359041E+03  0.00000000000E+00 0. -1.
         22    1    3    3    0    0 -0.52309552460E+01 -0.14579367837E+03 -0.71641637667E+02  0.16252902447E+03  0.00000000000E+00 0.  1.
         22    1    3    3    0    0 -0.30586816157E+02  0.18102936034E+02 -0.27291455947E+02  0.44811752737E+02  0.00000000000E+00 0.  1.
</event>
<event>
 7    1  0.5970484E-006  0.3368092E+02  0.7818608E-02  0.1576541E+00
          2   -1    0    0  502    0  0.00000000000E+00  0.00000000000E+00  0.23836772657E+04  0.23836772657E+04  0.00000000000E+00 0. -1.
          1   -1    0    0  501    0 -0.00000000000E+00 -0.00000000000E+00 -0.49205832598E+03  0.49205832598E+03  0.00000000000E+00 0. -1.
         25    2    1    2    0    0  0.63054726938E+02 -0.81895035442E+01  0.11012131152E+03  0.17830473100E+03  0.12499162888E+03 0.  0.
          2    1    1    2  501    0 -0.32569373239E+02  0.80737780206E+01 -0.45724805296E+03  0.45847762421E+03  0.00000000000E+00 0. -1.
          1    1    1    2  502    0 -0.30485353699E+02  0.11572552358E+00  0.22387456811E+04  0.22389532364E+04  0.00000000000E+00 0. -1.
         22    1    3    3    0    0 -0.46433095062E+01 -0.56563517772E+02  0.39202305329E+02  0.68976899097E+02  0.00000000000E+00 0.  1.
         22    1    3    3    0    0  0.67698036444E+02  0.48374014228E+02  0.70919006188E+02  0.10932783191E+03  0.00000000000E+00 0.  1.
</event>
<event>
 7    1  0.5970484E-006  0.1208305E+03  0.7818608E-02  0.1331976E+00
          2   -1    0    0  502    0  0.00000000000E+00  0.00000000000E+00  0.17077927556E+04  0.17077927556E+04  0.00000000000E+00 0. -1.
          1   -1    0    0  501    0 -0.00000000000E+00 -0.00000000000E+00 -0.37226626503E+03  0.37226626503E+03  0.00000000000E+00 0. -1.
         25    2    1    2    0    0 -0.97837642891E+02 -0.73760066816E+02  0.60747814643E+03  0.63219254910E+03  0.12499987572E+03 0.  0.
          2    1    1    2  501    0  0.57762506632E+02  0.10630050656E+03 -0.34910675479E+03  0.36947507508E+03  0.00000000000E+00 0. -1.
          1    1    1    2  502    0  0.40075136259E+02 -0.32540439747E+02  0.10771550990E+04  0.10783913965E+04  0.00000000000E+00 0. -1.
         22    1    3    3    0    0 -0.11150485602E+02 -0.70667379084E+02  0.14544991931E+03  0.16209222937E+03  0.00000000000E+00 0.  1.
         22    1    3    3    0    0 -0.86687157289E+02 -0.30926877328E+01  0.46202822712E+03  0.47010031973E+03  0.00000000000E+00 0.  1.
</event>
<event>
 7    1  0.5970484E-006  0.1069824E+03  0.7818608E-02  0.1442949E+00
          2   -1    0    0  502    0  0.00000000000E+00  0.00000000000E+00  0.16066572604E+03  0.16066572604E+03  0.00000000000E+00 0. -1.
          1   -1    0    0  501    0 -0.00000000000E+00 -0.00000000000E+00 -0.18156112525E+03  0.18156112525E+03  0.00000000000E+00 0. -1.
         25    2    1    2    0    0  0.35689970193E+02  0.86782643415E+02  0.11034757841E+02  0.15669042632E+03  0.12500049059E+03 0.  0.
          2    1    1    2  501    0 -0.57650026409E+02 -0.95925560009E+02 -0.76121008445E+02  0.13535008879E+03  0.00000000000E+00 0. -1.
          1    1    1    2  502    0  0.21960056215E+02  0.91429165936E+01  0.44190851395E+02  0.50186336187E+02  0.00000000000E+00 0. -1.
         22    1    3    3    0    0  0.52820980966E+02  0.22945323364E+02  0.53108570969E+02  0.78339416674E+02  0.00000000000E+00 0. -1.
         22    1    3    3    0    0 -0.17131010772E+02  0.63837320051E+02 -0.42073813127E+02  0.78351009645E+02  0.00000000000E+00 0. -1.
</event>
<event>
 7    1  0.5970484E-006  0.4593738E+02  0.7818608E-02  0.1556616E+00
          2   -1    0    0  502    0  0.00000000000E+00  0.00000000000E+00  0.12849952174E+04  0.12849952174E+04  0.00000000000E+00 0. -1.
          1   -1    0    0  501    0 -0.00000000000E+00 -0.00000000000E+00 -0.48854619149E+03  0.48854619149E+03  0.00000000000E+00 0. -1.
         25    2    1    2    0    0 -0.71067858193E+02 -0.11367954142E+01 -0.45787495340E+02  0.15090071972E+03  0.12499039847E+03 0.  0.
          2    1    1    2  501    0  0.25248671897E+02  0.20674053763E+01 -0.38936427610E+03  0.39018753068E+03  0.00000000000E+00 0. -1.
          1    1    1    2  502    0  0.45819186296E+02 -0.93060996207E+00  0.12316007974E+04  0.12324531585E+04  0.00000000000E+00 0. -1.
         22    1    3    3    0    0 -0.36922583647E+02 -0.30737334280E+01 -0.88641236017E+02  0.96072856432E+02  0.00000000000E+00 0.  1.
         22    1    3    3    0    0 -0.34145274546E+02  0.19369380138E+01  0.42853740677E+02  0.54827863287E+02  0.00000000000E+00 0.  1.
</event>
<event>
 7    1  0.5970484E-006  0.1888799E+03  0.7818608E-02  0.1192777E+00
          2   -1    0    0  502    0  0.00000000000E+00  0.00000000000E+00  0.98723563057E+03  0.98723563057E+03  0.00000000000E+00 0. -1.
          1   -1    0    0  501    0 -0.00000000000E+00 -0.00000000000E+00 -0.51716619260E+03  0.51716619260E+03  0.00000000000E+00 0. -1.
         25    2    1    2    0    0 -0.89124002817E+02 -0.35151308535E+02  0.20420349273E+03  0.25788233736E+03  0.12500212442E+03 0.  0.
          2    1    1    2  501    0  0.11412124856E+03  0.16228608207E+03 -0.46431877085E+03  0.50492806693E+03  0.00000000000E+00 0. -1.
          1    1    1    2  502    0 -0.24997245748E+02 -0.12713477354E+03  0.73018471609E+03  0.74159141888E+03  0.00000000000E+00 0. -1.
         22    1    3    3    0    0 -0.91820799638E+02 -0.66408983842E+02  0.10742423907E+03  0.15614473901E+03  0.00000000000E+00 0.  1.
         22    1    3    3    0    0  0.26967968216E+01  0.31257675307E+02  0.96779253662E+02  0.10173759835E+03  0.00000000000E+00 0.  1.
</event>
<event>
 7    1  0.5970484E-006  0.6647428E+02  0.7818608E-02  0.1482099E+00
          2   -1    0    0  502    0  0.00000000000E+00  0.00000000000E+00  0.34869540709E+03  0.34869540709E+03  0.00000000000E+00 0. -1.
          1   -1    0    0  501    0 -0.00000000000E+00 -0.00000000000E+00 -0.82906887377E+02  0.82906887377E+02  0.00000000000E+00 0. -1.
         25    2    1    2    0    0  0.26798881372E+02  0.57727959947E+02  0.19007415667E+03  0.23622740630E+03  0.12499802020E+03 0.  0.
          2    1    1    2  501    0  0.25876156755E+02 -0.12722386233E+02 -0.46600932231E+02  0.54800378508E+02  0.00000000000E+00 0. -1.
          1    1    1    2  502    0 -0.52675038127E+02 -0.45005573714E+02  0.12231529528E+03  0.14057450966E+03  0.00000000000E+00 0. -1.
         22    1    3    3    0    0 -0.40471988095E+02 -0.11739174853E+02  0.73929880199E+02  0.85096517160E+02  0.00000000000E+00 0.  1.
         22    1    3    3    0    0  0.67270869467E+02  0.69467134800E+02  0.11614427647E+03  0.15113088914E+03  0.00000000000E+00 0.  1.
</event>
<event>
 7    1  0.5970484E-006  0.1453553E+03  0.7818608E-02  0.1253348E+00
          2   -1    0    0  502    0  0.00000000000E+00  0.00000000000E+00  0.25905535545E+04  0.25905535545E+04  0.00000000000E+00 0. -1.
          1   -1    0    0  501    0 -0.00000000000E+00 -0.00000000000E+00 -0.35837827632E+03  0.35837827632E+03  0.00000000000E+00 0. -1.
         25    2    1    2    0    0  0.65837010273E+02 -0.79019484600E+02  0.68857707633E+03  0.70734894133E+03  0.12500217552E+03 0.  0.
          2    1    1    2  501    0 -0.14284727546E+03  0.33616027939E+02 -0.33245391374E+03  0.36340196230E+03  0.00000000000E+00 0. -1.
          1    1    1    2  502    0  0.77010265187E+02  0.45403456661E+02  0.18760521156E+04  0.18781809272E+04  0.00000000000E+00 0. -1.
         22    1    3    3    0    0  0.23754147919E+02 -0.24997590285E+02  0.31475551048E+02  0.46688857099E+02  0.00000000000E+00 0. -1.
         22    1    3    3    0    0  0.42082862354E+02 -0.54021894315E+02  0.65710152528E+03  0.66066008423E+03  0.00000000000E+00 0. -1.
</event>
<event>
 7    1  0.5970484E-006  0.7306835E+02  0.7818608E-02  0.1417356E+00
          2   -1    0    0  502    0  0.00000000000E+00  0.00000000000E+00  0.57029716885E+03  0.57029716885E+03  0.00000000000E+00 0. -1.
          1   -1    0    0  501    0 -0.00000000000E+00 -0.00000000000E+00 -0.98143584793E+03  0.98143584793E+03  0.00000000000E+00 0. -1.
         25    2    1    2    0    0  0.22836455791E+02  0.11169358629E+03 -0.10452648340E+03  0.19887538969E+03  0.12501469498E+03 0.  0.
          2    1    1    2  501    0 -0.14066326748E+02 -0.70329161844E+02 -0.82732640782E+03  0.83042942965E+03  0.00000000000E+00 0. -1.
          1    1    1    2  502    0 -0.87701290432E+01 -0.41364424450E+02  0.52071421213E+03  0.52242819744E+03  0.00000000000E+00 0. -1.
         22    1    3    3    0    0  0.63546695129E+02  0.74416522318E+02 -0.23173314986E+02  0.10056343164E+03  0.00000000000E+00 0.  1.
         22    1    3    3    0    0 -0.40710239338E+02  0.37277063976E+02 -0.81353168409E+02  0.98311958051E+02  0.00000000000E+00 0.  1.
</event>
<event>
 7    1  0.5970484E-006  0.8206093E+02  0.7818608E-02  0.1415628E+00
          2   -1    0    0  502    0  0.00000000000E+00  0.00000000000E+00  0.92489672537E+03  0.92489672537E+03  0.00000000000E+00 0. -1.
          1   -1    0    0  501    0 -0.00000000000E+00 -0.00000000000E+00 -0.23267284213E+03  0.23267284213E+03  0.00000000000E+00 0. -1.
         25    2    1    2    0    0  0.90681080849E+01  0.11850689794E+03  0.31895221999E+03  0.36260448721E+03  0.12500152024E+03 0.  0.
          2    1    1    2  501    0 -0.99944705970E+00 -0.81213217623E+02 -0.20237005507E+03  0.21806014033E+03  0.00000000000E+00 0. -1.
          1    1    1    2  502    0 -0.80686610252E+01 -0.37293680317E+02  0.57564171832E+03  0.57690493996E+03  0.00000000000E+00 0. -1.
         22    1    3    3    0    0  0.32620806921E+02  0.77373183842E+02  0.70408562608E+02  0.10958144145E+03  0.00000000000E+00 0. -1.
         22    1    3    3    0    0 -0.23552698836E+02  0.41133714098E+02  0.24854365738E+03  0.25302304576E+03  0.00000000000E+00 0. -1.
</event>
<event>
 7    1  0.5970484E-006  0.1579423E+03  0.7818608E-02  0.1326541E+00
          2   -1    0    0  502    0  0.00000000000E+00  0.00000000000E+00  0.15928847327E+04  0.15928847327E+04  0.00000000000E+00 0. -1.
          1   -1    0    0  501    0 -0.00000000000E+00 -0.00000000000E+00 -0.34959549116E+03  0.34959549116E+03  0.00000000000E+00 0. -1.
         25    2    1    2    0    0 -0.15513452522E+03  0.58956936816E+02  0.12688421370E+04  0.12857399612E+04  0.12499695145E+03 0.  0.
          2    1    1    2  501    0  0.15692099438E+03 -0.17566566645E+02 -0.32135407051E+03  0.35805198139E+03  0.00000000000E+00 0. -1.
          1    1    1    2  502    0 -0.17864691670E+01 -0.41390370171E+02  0.29580117505E+03  0.29868828128E+03  0.00000000000E+00 0. -1.
         22    1    3    3    0    0 -0.69844503335E+02  0.85979828370E+02  0.52658345421E+03  0.53810865054E+03  0.00000000000E+00 0. -1.
         22    1    3    3    0    0 -0.85290021881E+02 -0.27022891554E+02  0.74225868278E+03  0.74763131065E+03  0.00000000000E+00 0. -1.
</event>
<event>
 7    1  0.5970484E-006  0.8821838E+02  0.7818608E-02  0.1338678E+00
          2   -1    0    0  502    0  0.00000000000E+00  0.00000000000E+00  0.58693650768E+03  0.58693650768E+03  0.00000000000E+00 0. -1.
          1   -1    0    0  501    0 -0.00000000000E+00 -0.00000000000E+00 -0.20014369478E+03  0.20014369478E+03  0.00000000000E+00 0. -1.
         25    2    1    2    0    0  0.37015058374E+02  0.10002315276E+02  0.15544639875E+03  0.20312296350E+03  0.12500077823E+03 0.  0.
          2    1    1    2  501    0 -0.54475810231E+02 -0.74366434226E+02 -0.16124796056E+03  0.18573875531E+03  0.00000000000E+00 0. -1.
          1    1    1    2  502    0  0.17460751857E+02  0.64364118951E+02  0.39259437471E+03  0.39821848365E+03  0.00000000000E+00 0. -1.
         22    1    3    3    0    0 -0.12676339859E+02 -0.40450033210E+02  0.13490779620E+02  0.44484782945E+02  0.00000000000E+00 0.  1.
         22    1    3    3    0    0  0.49691398232E+02  0.50452348486E+02  0.14195561913E+03  0.15863818055E+03  0.00000000000E+00 0.  1.
</event>
<event>
 7    1  0.5970484E-006  0.1385133E+03  0.7818608E-02  0.1244277E+00
          2   -1    0    0  502    0  0.00000000000E+00  0.00000000000E+00  0.39927187262E+03  0.39927187262E+03  0.00000000000E+00 0. -1.
          1   -1    0    0  501    0 -0.00000000000E+00 -0.00000000000E+00 -0.12281863487E+04  0.12281863487E+04  0.00000000000E+00 0. -1.
         25    2    1    2    0    0  0.15082970083E+03  0.16823732772E+03 -0.17750188818E+03  0.31334295876E+03  0.12499396948E+03 0.  0.
          2    1    1    2  501    0 -0.38368508621E+02 -0.95296694144E+02 -0.96637257682E+03  0.97181765759E+03  0.00000000000E+00 0. -1.
          1    1    1    2  502    0 -0.11246119221E+03 -0.72940633580E+02  0.31495998890E+03  0.34229760500E+03  0.00000000000E+00 0. -1.
         22    1    3    3    0    0  0.17049977070E+03  0.15782220163E+03 -0.17516108347E+03  0.29096292598E+03  0.00000000000E+00 0.  1.
         22    1    3    3    0    0 -0.19670069873E+02  0.10415126096E+02 -0.23408047158E+01  0.22380032778E+02  0.00000000000E+00 0.  1.
</event>
<event>
 7    1  0.5970484E-006  0.6080309E+02  0.7818608E-02  0.1494488E+00
          2   -1    0    0  502    0  0.00000000000E+00  0.00000000000E+00  0.37042794060E+02  0.37042794060E+02  0.00000000000E+00 0. -1.
          1   -1    0    0  501    0 -0.00000000000E+00 -0.00000000000E+00 -0.23756837246E+04  0.23756837246E+04  0.00000000000E+00 0. -1.
         25    2    1    2    0    0  0.82329653537E+02 -0.24590458279E+02 -0.64053006857E+03  0.65824504555E+03  0.12499963505E+03 0.  0.
          2    1    1    2  501    0 -0.28855314586E+02 -0.18022966745E+01 -0.16944922584E+04  0.16947388858E+04  0.00000000000E+00 0. -1.
          1    1    1    2  502    0 -0.53474338951E+02  0.26392754953E+02 -0.36186035750E+01  0.59742587257E+02  0.00000000000E+00 0. -1.
         22    1    3    3    0    0  0.45949029369E+01  0.44967766718E+02 -0.14616871625E+03  0.15299838819E+03  0.00000000000E+00 0.  1.
         22    1    3    3    0    0  0.77734750600E+02 -0.69558224997E+02 -0.49436135232E+03  0.50524665737E+03  0.00000000000E+00 0.  1.
</event>
<event>
 7    1  0.5970484E-006  0.6189539E+02  0.7818608E-02  0.1416931E+00
          2   -1    0    0  502    0  0.00000000000E+00  0.00000000000E+00  0.75788497002E+03  0.75788497002E+03  0.00000000000E+00 0. -1.
          1   -1    0    0  501    0 -0.00000000000E+00 -0.00000000000E+00 -0.15256711145E+04  0.15256711145E+04  0.00000000000E+00 0. -1.
         25    2    1    2    0    0 -0.51523196013E+02 -0.98592175646E+02  0.12096331284E+03  0.20647239446E+03  0.12499467906E+03 0.  0.
          2    1    1    2  501    0  0.33307879062E+02  0.51941358167E+02 -0.14812178113E+04  0.14825024533E+04  0.00000000000E+00 0. -1.
          1    1    1    2  502    0  0.18215316951E+02  0.46650817479E+02  0.59246835403E+03  0.59458123673E+03  0.00000000000E+00 0. -1.
         22    1    3    3    0    0 -0.66049833354E+02 -0.14300444466E+02  0.13145540743E+02  0.68846847709E+02  0.00000000000E+00 0. -1.
         22    1    3    3    0    0  0.14526637341E+02 -0.84291731180E+02  0.10781777210E+03  0.13762554675E+03  0.00000000000E+00 0. -1.
</event>
<event>
 7    1  0.5970484E-006  0.1109877E+03  0.7818608E-02  0.1297934E+00
          2   -1    0    0  502    0  0.00000000000E+00  0.00000000000E+00  0.66168024038E+03  0.66168024038E+03  0.00000000000E+00 0. -1.
          1   -1    0    0  501    0 -0.00000000000E+00 -0.00000000000E+00 -0.95023092747E+03  0.95023092747E+03  0.00000000000E+00 0. -1.
         25    2    1    2    0    0  0.84067952542E+02 -0.10810702295E+03 -0.29636860796E+03  0.34959088950E+03  0.12499955673E+03 0.  0.
          2    1    1    2  501    0 -0.77172726557E+01  0.10948624608E+03 -0.62011888179E+03  0.62975727224E+03  0.00000000000E+00 0. -1.
          1    1    1    2  502    0 -0.76350679887E+02 -0.13792231320E+01  0.62793680266E+03  0.63256300612E+03  0.00000000000E+00 0. -1.
         22    1    3    3    0    0  0.10645275865E+03 -0.11933357860E+03 -0.26415024235E+03  0.30878478482E+03  0.00000000000E+00 0.  1.
         22    1    3    3    0    0 -0.22384806113E+02  0.11226555646E+02 -0.32218365609E+02  0.40806104677E+02  0.00000000000E+00 0.  1.
</event>
<event>
 7    1  0.5970484E-006  0.7522770E+02  0.7818608E-02  0.1392393E+00
          2   -1    0    0  502    0  0.00000000000E+00  0.00000000000E+00  0.44508287122E+03  0.44508287122E+03  0.00000000000E+00 0. -1.
          1   -1    0    0  501    0 -0.00000000000E+00 -0.00000000000E+00 -0.98544371189E+03  0.98544371189E+03  0.00000000000E+00 0. -1.
         25    2    1    2    0    0 -0.10075260961E+03 -0.64572677295E+02 -0.16522261219E+02  0.17383380516E+03  0.12499795080E+03 0.  0.
          2    1    1    2  501    0  0.31965521804E+02  0.38416433474E+02 -0.88585925210E+03  0.88726784652E+03  0.00000000000E+00 0. -1.
          1    1    1    2  502    0  0.68787087805E+02  0.26156243821E+02  0.36202067265E+03  0.36942493143E+03  0.00000000000E+00 0. -1.
         22    1    3    3    0    0 -0.32712090911E+02  0.37054282829E+02  0.49026926996E+01  0.49670284511E+02  0.00000000000E+00 0.  1.
         22    1    3    3    0    0 -0.68040518699E+02 -0.10162696012E+03 -0.21424953918E+02  0.12416352065E+03  0.00000000000E+00 0.  1.
</event>
<event>
 7    1  0.5970484E-006  0.8068112E+02  0.7818608E-02  0.1354091E+00
          2   -1    0    0  502    0  0.00000000000E+00  0.00000000000E+00  0.10380008727E+04  0.10380008727E+04  0.00000000000E+00 0. -1.
          1   -1    0    0  501    0 -0.00000000000E+00 -0.00000000000E+00 -0.86336053030E+03  0.86336053030E+03  0.00000000000E+00 0. -1.
         25    2    1    2    0    0  0.12113641585E+03 -0.40219371614E+02  0.34300207510E+02  0.18191191895E+03  0.12499525161E+03 0.  0.
          2    1    1    2  501    0 -0.41713830785E+02  0.48391658562E+02 -0.78654320055E+03  0.78913370390E+03  0.00000000000E+00 0. -1.
          1    1    1    2  502    0 -0.79422585062E+02 -0.81722869483E+01  0.92688333539E+03  0.93031578011E+03  0.00000000000E+00 0. -1.
         22    1    3    3    0    0  0.64313802264E+02  0.40489410384E+02  0.33875480228E+02  0.83205803137E+02  0.00000000000E+00 0. -1.
         22    1    3    3    0    0  0.56822613583E+02 -0.80708781998E+02  0.42472728154E+00  0.98706115815E+02  0.00000000000E+00 0. -1.
</event>
<event>
 7    1  0.5970484E-006  0.4773721E+02  0.7818608E-02  0.1540626E+00
          2   -1    0    0  502    0  0.00000000000E+00  0.00000000000E+00  0.13719799930E+03  0.13719799930E+03  0.00000000000E+00 0. -1.
          1   -1    0    0  501    0 -0.00000000000E+00 -0.00000000000E+00 -0.10876980953E+04  0.10876980953E+04  0.00000000000E+00 0. -1.
         25    2    1    2    0    0 -0.17261613046E+02  0.37255565040E+02 -0.87907268914E+01  0.13187011378E+03  0.12500603833E+03 0.  0.
          2    1    1    2  501    0 -0.78560682162E+01 -0.47214337587E+02 -0.10143728391E+04  0.10155014368E+04  0.00000000000E+00 0. -1.
          1    1    1    2  502    0  0.25117681263E+02  0.99587725471E+01  0.72663469955E+02  0.77524544040E+02  0.00000000000E+00 0. -1.
         22    1    3    3    0    0 -0.59650354016E+02  0.50540518750E+02 -0.28576265269E+02  0.83241286069E+02  0.00000000000E+00 0.  1.
         22    1    3    3    0    0  0.42388740970E+02 -0.13284953710E+02  0.19785538378E+02  0.48628827715E+02  0.00000000000E+00 0.  1.
</event>
<event>
 7    1  0.5970484E-006  0.5263190E+02  0.7818608E-02  0.1441320E+00
          2   -1    0    0  502    0  0.00000000000E+00  0.00000000000E+00  0.13931519807E+03  0.13931519807E+03  0.00000000000E+00 0. -1.
          1   -1    0    0  501    0 -0.00000000000E+00 -0.00000000000E+00 -0.93823201942E+03  0.93823201942E+03  0.00000000000E+00 0. -1.
         25    2    1    2    0    0 -0.60150991784E+02 -0.44382858142E+02 -0.18230455142E+03  0.23334824459E+03  0.12501389473E+03 0.  0.
          2    1    1    2  501    0  0.52304958930E+02 -0.39258324731E+01 -0.72415045124E+03  0.72604758585E+03  0.00000000000E+00 0. -1.
          1    1    1    2  502    0  0.78460328538E+01  0.48308690615E+02  0.10753818132E+03  0.11815138705E+03  0.00000000000E+00 0. -1.
         22    1    3    3    0    0 -0.45215879082E+01 -0.78710591914E+02 -0.11585026533E+03  0.14013238746E+03  0.00000000000E+00 0. -1.
         22    1    3    3    0    0 -0.55629403876E+02  0.34327733772E+02 -0.66454286093E+02  0.93215857136E+02  0.00000000000E+00 0. -1.
</event>
<event>
 7    1  0.5970484E-006  0.9757228E+02  0.7818608E-02  0.1330977E+00
          2   -1    0    0  502    0  0.00000000000E+00  0.00000000000E+00  0.41680906434E+02  0.41680906434E+02  0.00000000000E+00 0. -1.
          1   -1    0    0  501    0 -0.00000000000E+00 -0.00000000000E+00 -0.15042719005E+04  0.15042719005E+04  0.00000000000E+00 0. -1.
         25    2    1    2    0    0  0.58876519930E+02  0.35521208434E+02 -0.82200625089E+03  0.83429444608E+03  0.12499898167E+03 0.  0.
          2    1    1    2  501    0  0.41754927789E+02 -0.49148943531E+02 -0.59812074632E+03  0.60158749972E+03  0.00000000000E+00 0. -1.
          1    1    1    2  502    0 -0.10063144772E+03  0.13627735097E+02 -0.42463996812E+02  0.11007086108E+03  0.00000000000E+00 0. -1.
         22    1    3    3    0    0  0.93022591138E+02  0.46793055545E+01 -0.63024201569E+03  0.63708719710E+03  0.00000000000E+00 0. -1.
         22    1    3    3    0    0 -0.34146071208E+02  0.30841902880E+02 -0.19176423520E+03  0.19720724899E+03  0.00000000000E+00 0. -1.
</event>
<event>
 7    1  0.5970484E-006  0.4523518E+02  0.7818608E-02  0.1490906E+00
          2   -1    0    0  502    0  0.00000000000E+00  0.00000000000E+00  0.45772804942E+03  0.45772804942E+03  0.00000000000E+00 0. -1.
          1   -1    0    0  501    0 -0.00000000000E+00 -0.00000000000E+00 -0.11264539690E+04  0.11264539690E+04  0.00000000000E+00 0. -1.
         25    2    1    2    0    0  0.62094118373E+02 -0.50338310757E+02  0.62883525271E+02  0.16114855973E+03  0.12499958195E+03 0.  0.
          2    1    1    2  501    0 -0.20923638036E+02  0.33903086242E+02 -0.10755300511E+04  0.10762676753E+04  0.00000000000E+00 0. -1.
          1    1    1    2  502    0 -0.41170480337E+02  0.16435224515E+02  0.34392060634E+03  0.34676578338E+03  0.00000000000E+00 0. -1.
         22    1    3    3    0    0 -0.20819811871E+01  0.11850789355E+01 -0.33967980746E+02  0.34052353424E+02  0.00000000000E+00 0. -1.
         22    1    3    3    0    0  0.64176099561E+02 -0.51523389692E+02  0.96851506017E+02  0.12709620631E+03  0.00000000000E+00 0. -1.
</event>
<event>
 7    1  0.5970484E-006  0.1062064E+03  0.7818608E-02  0.1397210E+00
          2   -1    0    0  502    0  0.00000000000E+00  0.00000000000E+00  0.10633803700E+04  0.10633803700E+04  0.00000000000E+00 0. -1.
          1   -1    0    0  501    0 -0.00000000000E+00 -0.00000000000E+00 -0.20702368765E+03  0.20702368765E+03  0.00000000000E+00 0. -1.
         25    2    1    2    0    0 -0.55333380449E+02 -0.89678615436E+02 -0.16822206575E+03  0.23458033150E+03  0.12500092586E+03 0.  0.
          2    1    1    2  501    0  0.31129892283E+02 -0.13830694385E+02  0.11175483854E+03  0.11683108421E+03  0.00000000000E+00 0. -1.
          1    1    1    2  502    0  0.24203488166E+02  0.10350930982E+03  0.91282390954E+03  0.91899264191E+03  0.00000000000E+00 0. -1.
         22    1    3    3    0    0 -0.18177593836E+02  0.31053429837E+02 -0.26208093141E+02  0.44515217267E+02  0.00000000000E+00 0.  1.
         22    1    3    3    0    0 -0.37155786613E+02 -0.12073204527E+03 -0.14201397261E+03  0.19006511424E+03  0.00000000000E+00 0.  1.
</event>
<event>
 7    1  0.5970484E-006  0.8696802E+02  0.7818608E-02  0.1316339E+00
          2   -1    0    0  502    0  0.00000000000E+00  0.00000000000E+00  0.11193397143E+04  0.11193397143E+04  0.00000000000E+00 0. -1.
          1   -1    0    0  501    0 -0.00000000000E+00 -0.00000000000E+00 -0.13603655649E+03  0.13603655649E+03  0.00000000000E+00 0. -1.
         25    2    1    2    0    0  0.52755337371E+02  0.32465707151E+02 -0.16793235625E+02  0.14051081654E+03  0.12499651611E+03 0.  0.
          2    1    1    2  501    0 -0.21806249061E+02 -0.11374049155E+03  0.49411687916E+01  0.11591732858E+03  0.00000000000E+00 0. -1.
          1    1    1    2  502    0 -0.30949088310E+02  0.81274784403E+02  0.99515522462E+03  0.99894812564E+03  0.00000000000E+00 0. -1.
         22    1    3    3    0    0  0.62355437706E+02 -0.20360401834E+01  0.39463618417E+02  0.73822240888E+02  0.00000000000E+00 0. -1.
         22    1    3    3    0    0 -0.96001003347E+01  0.34501747334E+02 -0.56256854043E+02  0.66688575651E+02  0.00000000000E+00 0. -1.
</event>
<event>
 7    1  0.5970484E-006  0.1022896E+03  0.7818608E-02  0.1288476E+00
          2   -1    0    0  502    0  0.00000000000E+00  0.00000000000E+00  0.37930156010E+04  0.37930156010E+04  0.00000000000E+00 0. -1.
          1   -1    0    0  501    0 -0.00000000000E+00 -0.00000000000E+00 -0.12617099206E+04  0.12617099206E+04  0.00000000000E+00 0. -1.
         25    2    1    2    0    0  0.11443069738E+03  0.60873443971E+02  0.21410491845E+03  0.27976043051E+03  0.12500008676E+03 0.  0.
          2    1    1    2  501    0 -0.82764979440E+02  0.36584956071E+02 -0.12264746545E+04  0.12298083505E+04  0.00000000000E+00 0. -1.
          1    1    1    2  502    0 -0.31665717935E+02 -0.97458400042E+02  0.35436754165E+04  0.35451567405E+04  0.00000000000E+00 0. -1.
         22    1    3    3    0    0  0.44352217178E+02 -0.70483697160E+01  0.16403788272E+03  0.17007417691E+03  0.00000000000E+00 0.  1.
         22    1    3    3    0    0  0.70078480197E+02  0.67921813687E+02  0.50067035733E+02  0.10968625360E+03  0.00000000000E+00 0.  1.
</event>
<event>
 7    1  0.5970484E-006  0.6282794E+02  0.7818608E-02  0.1405190E+00
          2   -1    0    0  502    0  0.00000000000E+00  0.00000000000E+00  0.41738642493E+03  0.41738642493E+03  0.00000000000E+00 0. -1.
          1   -1    0    0  501    0 -0.00000000000E+00 -0.00000000000E+00 -0.42165934011E+03  0.42165934011E+03  0.00000000000E+00 0. -1.
         25    2    1    2    0    0 -0.44884826111E+02  0.82892734110E+02 -0.19441595532E+03  0.24961507718E+03  0.12499708031E+03 0.  0.
          2    1    1    2  501    0 -0.10212301681E+02 -0.53089879261E+02 -0.19339572666E+03  0.20081019266E+03  0.00000000000E+00 0. -1.
          1    1    1    2  502    0  0.55097127791E+02 -0.29802854849E+02  0.38353876680E+03  0.38862049520E+03  0.00000000000E+00 0. -1.
         22    1    3    3    0    0  0.78410147854E+01  0.98906930875E+02 -0.10404180722E+03  0.14376633868E+03  0.00000000000E+00 0. -1.
         22    1    3    3    0    0 -0.52725840896E+02 -0.16014196765E+02 -0.90374148099E+02  0.10584873849E+03  0.00000000000E+00 0. -1.
</event>
<event>
 7    1  0.5970484E-006  0.4527647E+02  0.7818608E-02  0.1485514E+00
          2   -1    0    0  502    0  0.00000000000E+00  0.00000000000E+00  0.70293063760E+03  0.70293063760E+03  0.00000000000E+00 0. -1.
          1   -1    0    0  501    0 -0.00000000000E+00 -0.00000000000E+00 -0.23358171430E+03  0.23358171430E+03  0.00000000000E+00 0. -1.
         25    2    1    2    0    0 -0.24870215573E+02  0.53411750376E+02  0.20785761195E+03  0.24960138615E+03  0.12499888969E+03 0.  0.
          2    1    1    2  501    0  0.42396063676E+02 -0.15980653799E+02 -0.20938161563E+03  0.21422760904E+03  0.00000000000E+00 0. -1.
          1    1    1    2  502    0 -0.17525848103E+02 -0.37431096577E+02  0.47087292698E+03  0.47268335671E+03  0.00000000000E+00 0. -1.
         22    1    3    3    0    0 -0.47586513421E+02  0.86101334148E+02  0.14705471320E+03  0.17692655164E+03  0.00000000000E+00 0.  1.
         22    1    3    3    0    0  0.22716297848E+02 -0.32689583771E+02  0.60802898747E+02  0.72674834510E+02  0.00000000000E+00 0.  1.
</event>
<event>
 7    1  0.5970484E-006  0.2612867E+02  0.7818608E-02  0.1655289E+00
          2   -1    0    0  502    0  0.00000000000E+00  0.00000000000E+00  0.57771658875E+03  0.57771658875E+03  0.00000000000E+00 0. -1.
          1   -1    0    0  501    0 -0.00000000000E+00 -0.00000000000E+00 -0.19948887326E+02  0.19948887326E+02  0.00000000000E+00 0. -1.
         25    2    1    2    0    0 -0.69325124177E+01 -0.10068303634E+02  0.27835229941E+03  0.30537560490E+03  0.12499930805E+03 0.  0.
          2    1    1    2  501    0  0.25692769821E+02 -0.81185134195E+01  0.25711130052E+02  0.37243669124E+02  0.00000000000E+00 0. -1.
          1    1    1    2  502    0 -0.18760257403E+02  0.18186817054E+02  0.25370427196E+03  0.25504620205E+03  0.00000000000E+00 0. -1.
         22    1    3    3    0    0  0.32832850863E+02 -0.36892353265E+02  0.43934263783E+02  0.66100388496E+02  0.00000000000E+00 0.  1.
         22    1    3    3    0    0 -0.39765363281E+02  0.26824049631E+02  0.23441803563E+03  0.23927521640E+03  0.00000000000E+00 0.  1.
</event>
<event>
 7    1  0.5970484E-006  0.1317464E+03  0.7818608E-02  0.1291781E+00
          2   -1    0    0  502    0  0.00000000000E+00  0.00000000000E+00  0.51506101194E+03  0.51506101194E+03  0.00000000000E+00 0. -1.
          1   -1    0    0  501    0 -0.00000000000E+00 -0.00000000000E+00 -0.14259151692E+03  0.14259151692E+03  0.00000000000E+00 0. -1.
         25    2    1    2    0    0  0.14025839764E+03  0.62347952042E+02  0.83203329148E+01  0.19812969074E+03  0.12500584458E+03 0.  0.
          2    1    1    2  501    0 -0.78547755953E+02 -0.91186876701E+02  0.37812634121E+02  0.12615304890E+03  0.00000000000E+00 0. -1.
          1    1    1    2  502    0 -0.61710641690E+02  0.28838924659E+02  0.32633652798E+03  0.33336978923E+03  0.00000000000E+00 0. -1.
         22    1    3    3    0    0  0.10223892560E+03 -0.10923002015E+02 -0.30018792039E+02  0.10711320066E+03  0.00000000000E+00 0.  1.
         22    1    3    3    0    0  0.38019472043E+02  0.73270954057E+02  0.38339124953E+02  0.91016490072E+02  0.00000000000E+00 0.  1.
</event>
<event>
 7    1  0.5970484E-006  0.5234209E+02  0.7818608E-02  0.1557514E+00
          2   -1    0    0  502    0  0.00000000000E+00  0.00000000000E+00  0.23664383338E+03  0.23664383338E+03  0.00000000000E+00 0. -1.
          1   -1    0    0  501    0 -0.00000000000E+00 -0.00000000000E+00 -0.46426763524E+03  0.46426763524E+03  0.00000000000E+00 0. -1.
         25    2    1    2    0    0  0.19421121948E+02 -0.65713121387E+02 -0.21053469718E+02  0.14409741910E+03  0.12500169320E+03 0.  0.
          2    1    1    2  501    0 -0.17036003284E+02  0.14088088645E+02 -0.37754899460E+03  0.37819564114E+03  0.00000000000E+00 0. -1.
          1    1    1    2  502    0 -0.23851186648E+01  0.51625032742E+02  0.17097866246E+03  0.17861840838E+03  0.00000000000E+00 0. -1.
         22    1    3    3    0    0  0.67802880807E+02 -0.56377852604E+02  0.50721655938E+01  0.88325646184E+02  0.00000000000E+00 0.  1.
         22    1    3    3    0    0 -0.48381758859E+02 -0.93352687832E+01 -0.26125635312E+02  0.55771772914E+02  0.00000000000E+00 0.  1.
</event>
<event>
 7    1  0.5970484E-006  0.6374112E+02  0.7818608E-02  0.1464720E+00
          2   -1    0    0  502    0  0.00000000000E+00  0.00000000000E+00  0.11748981049E+04  0.11748981049E+04  0.00000000000E+00 0. -1.
          1   -1    0    0  501    0 -0.00000000000E+00 -0.00000000000E+00 -0.14274872500E+04  0.14274872500E+04  0.00000000000E+00 0. -1.
         25    2    1    2    0    0  0.84921494064E+01 -0.42783782390E+02 -0.35146421104E+02  0.13697777713E+03  0.12500028750E+03 0.  0.
          2    1    1    2  501    0 -0.42061426086E+02  0.48409500625E+02 -0.13404006711E+04  0.13419339039E+04  0.00000000000E+00 0. -1.
          1    1    1    2  502    0  0.33569276680E+02 -0.56257182343E+01  0.11229579471E+04  0.11234736739E+04  0.00000000000E+00 0. -1.
         22    1    3    3    0    0  0.46689341684E+02  0.12393652618E+02 -0.48611507983E+02  0.68531569080E+02  0.00000000000E+00 0. -1.
         22    1    3    3    0    0 -0.38197192278E+02 -0.55177435009E+02  0.13465086879E+02  0.68446208052E+02  0.00000000000E+00 0. -1.
</event>
<event>
 7    1  0.5970484E-006  0.6953087E+02  0.7818608E-02  0.1458548E+00
          2   -1    0    0  502    0  0.00000000000E+00  0.00000000000E+00  0.91884156502E+03  0.91884156502E+03  0.00000000000E+00 0. -1.
          1   -1    0    0  501    0 -0.00000000000E+00 -0.00000000000E+00 -0.16187000549E+03  0.16187000549E+03  0.00000000000E+00 0. -1.
         25    2    1    2    0    0 -0.62259568390E+02  0.56636001716E+02  0.45720098756E+03  0.48139769190E+03  0.12500841648E+03 0.  0.
          2    1    1    2  501    0 -0.75228418479E+00 -0.32621756710E+02 -0.14542473074E+03  0.14904058928E+03  0.00000000000E+00 0. -1.
          1    1    1    2  502    0  0.63011852575E+02 -0.24014245006E+02  0.44519530271E+03  0.45027328933E+03  0.00000000000E+00 0. -1.
         22    1    3    3    0    0 -0.47990603624E+02 -0.34083010862E+02  0.18054296929E+03  0.18989605953E+03  0.00000000000E+00 0.  1.
         22    1    3    3    0    0 -0.14268964766E+02  0.90719012579E+02  0.27665801827E+03  0.29150163236E+03  0.00000000000E+00 0.  1.
</event>
<event>
 7    1  0.5970484E-006  0.1288386E+03  0.7818608E-02  0.1265110E+00
          2   -1    0    0  502    0  0.00000000000E+00  0.00000000000E+00  0.10463625257E+04  0.10463625257E+04  0.00000000000E+00 0. -1.
          1   -1    0    0  501    0 -0.00000000000E+00 -0.00000000000E+00 -0.10464141316E+04  0.10464141316E+04  0.00000000000E+00 0. -1.
         25    2    1    2    0    0  0.14170717208E+03  0.13158100083E+03  0.13495253861E+02  0.23066286604E+03  0.12501501308E+03 0.  0.
          2    1    1    2  501    0 -0.88291039820E+02 -0.16590374131E+02 -0.93131043245E+03  0.93563329880E+03  0.00000000000E+00 0. -1.
          1    1    1    2  502    0 -0.53416132257E+02 -0.11499062670E+03  0.91776357277E+03  0.92648049247E+03  0.00000000000E+00 0. -1.
         22    1    3    3    0    0  0.99732286765E+02  0.14700101502E+03  0.34981370638E+02  0.18105116330E+03  0.00000000000E+00 0.  1.
         22    1    3    3    0    0  0.41974885313E+02 -0.15420014188E+02 -0.21486116777E+02  0.49611702739E+02  0.00000000000E+00 0.  1.
</event>
<event>
 7    1  0.5970484E-006  0.5760948E+02  0.7818608E-02  0.1417554E+00
          2   -1    0    0  502    0  0.00000000000E+00  0.00000000000E+00  0.78223914973E+03  0.78223914973E+03  0.00000000000E+00 0. -1.
          1   -1    0    0  501    0 -0.00000000000E+00 -0.00000000000E+00 -0.16720922550E+04  0.16720922550E+04  0.00000000000E+00 0. -1.
         25    2    1    2    0    0 -0.10858448783E+03 -0.21289720984E+02  0.20688636168E+03  0.26584034273E+03  0.12500111183E+03 0.  0.
          2    1    1    2  501    0  0.57134791256E+02  0.64458798659E+01 -0.16407972823E+04  0.16418043901E+04  0.00000000000E+00 0. -1.
          1    1    1    2  502    0  0.51449696578E+02  0.14843841118E+02  0.54405781530E+03  0.54668667195E+03  0.00000000000E+00 0. -1.
         22    1    3    3    0    0 -0.22660405004E+02  0.48724237383E+02  0.47602670041E+02  0.71788296112E+02  0.00000000000E+00 0.  1.
         22    1    3    3    0    0 -0.85924082830E+02 -0.70013958368E+02  0.15928369164E+03  0.19405204662E+03  0.00000000000E+00 0.  1.
</event>
<event>
 7    1  0.5970484E-006  0.3852911E+02  0.7818608E-02  0.1539684E+00
          2   -1    0    0  502    0  0.00000000000E+00  0.00000000000E+00  0.78367342511E+03  0.78367342511E+03  0.00000000000E+00 0. -1.
          1   -1    0    0  501    0 -0.00000000000E+00 -0.00000000000E+00 -0.50907256710E+03  0.50907256710E+03  0.00000000000E+00 0. -1.
         25    2    1    2    0    0  0.98022710830E+01 -0.14103158001E+02  0.60493703496E+02  0.13994515678E+03  0.12502069892E+03 0.  0.
          2    1    1    2  501    0 -0.26131088505E+02 -0.21254029688E+02 -0.46818648518E+03  0.46939658336E+03  0.00000000000E+00 0. -1.
          1    1    1    2  502    0  0.16328817422E+02  0.35357187689E+02  0.68229363968E+03  0.68340425207E+03  0.00000000000E+00 0. -1.
         22    1    3    3    0    0  0.44033515149E+02  0.34794280443E+02  0.57248293294E+02  0.80168319759E+02  0.00000000000E+00 0.  1.
         22    1    3    3    0    0 -0.34231244066E+02 -0.48897438444E+02  0.32454102026E+01  0.59776837020E+02  0.00000000000E+00 0.  1.
</event>
<event>
 7    1  0.5970484E-006  0.8811287E+02  0.7818608E-02  0.1369327E+00
          2   -1    0    0  502    0  0.00000000000E+00  0.00000000000E+00  0.23368414744E+04  0.23368414744E+04  0.00000000000E+00 0. -1.
          1   -1    0    0  501    0 -0.00000000000E+00 -0.00000000000E+00 -0.27893650061E+02  0.27893650061E+02  0.00000000000E+00 0. -1.
         25    2    1    2    0    0  0.77076274692E+02 -0.17512608515E+02  0.88421114293E+03  0.89649383996E+03  0.12499766487E+03 0.  0.
          2    1    1    2  501    0 -0.61321161122E+02  0.66529506996E+02  0.74997805110E+02  0.11752076784E+03  0.00000000000E+00 0. -1.
          1    1    1    2  502    0 -0.15755113570E+02 -0.49016898481E+02  0.13497388762E+04  0.13507205166E+04  0.00000000000E+00 0. -1.
         22    1    3    3    0    0  0.78793243942E+02 -0.39295166842E+02  0.32092951934E+03  0.33278858425E+03  0.00000000000E+00 0. -1.
         22    1    3    3    0    0 -0.17169692502E+01  0.21782558327E+02  0.56328162360E+03  0.56370525571E+03  0.00000000000E+00 0. -1.
</event>
<event>
 7    1  0.5970484E-006  0.1166237E+03  0.7818608E-02  0.1272269E+00
          2   -1    0    0  502    0  0.00000000000E+00  0.00000000000E+00  0.10024987088E+03  0.10024987088E+03  0.00000000000E+00 0. -1.
          1   -1    0    0  501    0 -0.00000000000E+00 -0.00000000000E+00 -0.14262255611E+04  0.14262255611E+04  0.00000000000E+00 0. -1.
         25    2    1    2    0    0  0.27701373864E+02  0.20912034746E+02 -0.93524353309E+02  0.15992783805E+03  0.12500171762E+03 0.  0.
          2    1    1    2  501    0 -0.40512957497E+02  0.10936085786E+03 -0.12301092514E+04  0.12356252941E+04  0.00000000000E+00 0. -1.
          1    1    1    2  502    0  0.12811583634E+02 -0.13027289261E+03 -0.23420854681E+01  0.13092229981E+03  0.00000000000E+00 0. -1.
         22    1    3    3    0    0  0.32177273552E+02 -0.24388926727E+02 -0.10541178017E+03  0.11287975938E+03  0.00000000000E+00 0. -1.
         22    1    3    3    0    0 -0.44758996885E+01  0.45300961473E+02  0.11887426861E+02  0.47048078662E+02  0.00000000000E+00 0. -1.
</event>
<event>
 7    1  0.5970484E-006  0.5693003E+02  0.7818608E-02  0.1465754E+00
          2   -1    0    0  502    0  0.00000000000E+00  0.00000000000E+00  0.21229972255E+04  0.21229972255E+04  0.00000000000E+00 0. -1.
          1   -1    0    0  501    0 -0.00000000000E+00 -0.00000000000E+00 -0.97475058702E+01  0.97475058702E+01  0.00000000000E+00 0. -1.
         25    2    1    2    0    0 -0.13640418518E+02  0.36457868502E+02  0.16594551043E+04  0.16646114975E+04  0.12499982811E+03 0.  0.
          2    1    1    2  501    0 -0.18615340665E+02 -0.56216488317E+02  0.13920181949E+03  0.15127448898E+03  0.00000000000E+00 0. -1.
          1    1    1    2  502    0  0.32255759183E+02  0.19758619815E+02  0.31459279581E+03  0.31685874492E+03  0.00000000000E+00 0. -1.
         22    1    3    3    0    0 -0.15685497450E+02  0.52415823583E+02  0.29316718030E+03  0.29822885340E+03  0.00000000000E+00 0. -1.
         22    1    3    3    0    0  0.20450789319E+01 -0.15957955081E+02  0.13662879240E+04  0.13663826441E+04  0.00000000000E+00 0. -1.
</event>
<event>
 7    1  0.5970484E-006  0.5094240E+02  0.7818608E-02  0.1525497E+00
          2   -1    0    0  502    0  0.00000000000E+00  0.00000000000E+00  0.18035157535E+03  0.18035157535E+03  0.00000000000E+00 0. -1.
          1   -1    0    0  501    0 -0.00000000000E+00 -0.00000000000E+00 -0.64569767021E+03  0.64569767021E+03  0.00000000000E+00 0. -1.
         25    2    1    2    0    0  0.68633353055E+02  0.29028894826E+02 -0.91676448755E+02  0.17199510996E+03  0.12499813081E+03 0.  0.
          2    1    1    2  501    0 -0.49534092494E+02 -0.86007752235E+01 -0.51122175698E+03  0.51368792517E+03  0.00000000000E+00 0. -1.
          1    1    1    2  502    0 -0.19099260561E+02 -0.20428119603E+02  0.13755211087E+03  0.14036621043E+03  0.00000000000E+00 0. -1.
         22    1    3    3    0    0  0.99572402012E+02 -0.44056276967E+01 -0.67995412849E+02  0.12065425383E+03  0.00000000000E+00 0. -1.
         22    1    3    3    0    0 -0.30939048957E+02  0.33434522523E+02 -0.23681035907E+02  0.51340856131E+02  0.00000000000E+00 0. -1.
</event>
<event>
 7    1  0.5970484E-006  0.1361242E+03  0.7818608E-02  0.1362520E+00
          2   -1    0    0  502    0  0.00000000000E+00  0.00000000000E+00  0.31603407505E+03  0.31603407505E+03  0.00000000000E+00 0. -1.
          1   -1    0    0  501    0 -0.00000000000E+00 -0.00000000000E+00 -0.11605544197E+04  0.11605544197E+04  0.00000000000E+00 0. -1.
         25    2    1    2    0    0 -0.59146810553E+02 -0.13530160616E+03 -0.51772481936E+02  0.20027798682E+03  0.12500404910E+03 0.  0.
          2    1    1    2  501    0  0.23919705428E+02  0.13353512374E+03 -0.10287656693E+04  0.10376717130E+04  0.00000000000E+00 0. -1.
          1    1    1    2  502    0  0.35227105124E+02  0.17664824251E+01  0.23601780662E+03  0.23863879491E+03  0.00000000000E+00 0. -1.
         22    1    3    3    0    0 -0.94501471689E+02 -0.12279414045E+03 -0.33354511664E+02  0.15849748430E+03  0.00000000000E+00 0. -1.
         22    1    3    3    0    0  0.35354661136E+02 -0.12507465715E+02 -0.18417970272E+02  0.41780502530E+02  0.00000000000E+00 0. -1.
</event>
<event>
 7    1  0.5970484E-006  0.1226938E+03  0.7818608E-02  0.1292012E+00
          2   -1    0    0  502    0  0.00000000000E+00  0.00000000000E+00  0.29247889747E+04  0.29247889747E+04  0.00000000000E+00 0. -1.
          1   -1    0    0  501    0 -0.00000000000E+00 -0.00000000000E+00 -0.10791520148E+03  0.10791520148E+03  0.00000000000E+00 0. -1.
         25    2    1    2    0    0  0.17372771939E+03 -0.63874688022E+02  0.11594633291E+04  0.11807805725E+04  0.12500501045E+03 0.  0.
          2    1    1    2  501    0 -0.10079515730E+03  0.66632982950E+02 -0.58650586685E+02  0.13431124105E+03  0.00000000000E+00 0. -1.
          1    1    1    2  502    0 -0.72932562084E+02 -0.27582949275E+01  0.17160610309E+04  0.17176123627E+04  0.00000000000E+00 0. -1.
         22    1    3    3    0    0  0.10219220465E+03 -0.41055112928E+02  0.32929072781E+03  0.34721917057E+03  0.00000000000E+00 0. -1.
         22    1    3    3    0    0  0.71535514738E+02 -0.22819575095E+02  0.83017260124E+03  0.83356140189E+03  0.00000000000E+00 0. -1.
</event>
<event>
 7    1  0.5970484E-006  0.1101781E+03  0.7818608E-02  0.1328179E+00
          2   -1    0    0  502    0  0.00000000000E+00  0.00000000000E+00  0.82842394661E+03  0.82842394661E+03  0.00000000000E+00 0. -1.
          1   -1    0    0  501    0 -0.00000000000E+00 -0.00000000000E+00 -0.27093935425E+03  0.27093935425E+03  0.00000000000E+00 0. -1.
         25    2    1    2    0    0  0.11687990804E+03 -0.92697470305E+02  0.25418035996E+03  0.32013655572E+03  0.12500410001E+03 0.  0.
          2    1    1    2  501    0 -0.18687061306E+02  0.55473023711E+02 -0.22915391458E+03  0.23651211214E+03  0.00000000000E+00 0. -1.
          1    1    1    2  502    0 -0.98192846736E+02  0.37224446594E+02  0.53245814699E+03  0.54271463300E+03  0.00000000000E+00 0. -1.
         22    1    3    3    0    0  0.22395508183E+02 -0.64404343003E+02  0.28609993591E+02  0.73945993250E+02  0.00000000000E+00 0. -1.
         22    1    3    3    0    0  0.94484399859E+02 -0.28293127302E+02  0.22557036637E+03  0.24619056247E+03  0.00000000000E+00 0. -1.
</event>
<event>
 7    1  0.5970484E-006  0.1313109E+03  0.7818608E-02  0.1255754E+00
          2   -1    0    0  502    0  0.00000000000E+00  0.00000000000E+00  0.58192129207E+02  0.58192129207E+02  0.00000000000E+00 0. -1.
          1   -1    0    0  501    0 -0.00000000000E+00 -0.00000000000E+00 -0.17823412082E+04  0.17823412082E+04  0.00000000000E+00 0. -1.
         25    2    1    2    0    0 -0.16939906080E+03  0.12722060765E+03 -0.53938679689E+03  0.59283016356E+03  0.12501344469E+03 0.  0.
          2    1    1    2  501    0  0.77331860402E+02 -0.57936862593E+02 -0.11010455003E+04  0.11052773817E+04  0.00000000000E+00 0. -1.
          1    1    1    2  502    0  0.92067200394E+02 -0.69283745054E+02 -0.83716781724E+02  0.14242579211E+03  0.00000000000E+00 0. -1.
         22    1    3    3    0    0 -0.11712744413E+03  0.67395399655E+02 -0.18178448722E+03  0.22650955357E+03  0.00000000000E+00 0. -1.
         22    1    3    3    0    0 -0.52271616665E+02  0.59825207993E+02 -0.35760230967E+03  0.36632060999E+03  0.00000000000E+00 0. -1.
</event>
<event>
 7    1  0.5970484E-006  0.1334318E+03  0.7818608E-02  0.1267631E+00
          2   -1    0    0  502    0  0.00000000000E+00  0.00000000000E+00  0.30987248519E+03  0.30987248519E+03  0.00000000000E+00 0. -1.
          1   -1    0    0  501    0 -0.00000000000E+00 -0.00000000000E+00 -0.25053245286E+04  0.25053245286E+04  0.00000000000E+00 0. -1.
         25    2    1    2    0    0  0.92756469496E+02  0.17354939869E+03  0.37354691165E+02  0.23610044753E+03  0.12499956782E+03 0.  0.
          2    1    1    2  501    0 -0.63122847848E+02 -0.56390606225E+02 -0.23840218610E+04  0.23855239735E+04  0.00000000000E+00 0. -1.
          1    1    1    2  502    0 -0.29633621648E+02 -0.11715879246E+03  0.15121512647E+03  0.19357259273E+03  0.00000000000E+00 0. -1.
         22    1    3    3    0    0  0.51312473528E+02  0.15680719929E+03  0.71536737477E+02  0.17983039926E+03  0.00000000000E+00 0.  1.
         22    1    3    3    0    0  0.41443995968E+02  0.16742199399E+02 -0.34182046313E+02  0.56270048273E+02  0.00000000000E+00 0.  1.
</event>
<event>
 7    1  0.5970484E-006  0.5463291E+02  0.7818608E-02  0.1510439E+00
          2   -1    0    0  502    0  0.00000000000E+00  0.00000000000E+00  0.12207072496E+04  0.12207072496E+04  0.00000000000E+00 0. -1.
          1   -1    0    0  501    0 -0.00000000000E+00 -0.00000000000E+00 -0.23020403768E+03  0.23020403768E+03  0.00000000000E+00 0. -1.
         25    2    1    2    0    0 -0.84657981668E+01 -0.26637395256E+02  0.77321884585E+02  0.14961665265E+03  0.12500099339E+03 0.  0.
          2    1    1    2  501    0  0.54345675224E+01  0.55324911500E+02 -0.18988292481E+03  0.19785324231E+03  0.00000000000E+00 0. -1.
          1    1    1    2  502    0  0.30312306444E+01 -0.28687516244E+02  0.11030642522E+04  0.11034413923E+04  0.00000000000E+00 0. -1.
         22    1    3    3    0    0 -0.34958533763E+02 -0.84554798079E+01  0.10260772797E+03  0.10872874533E+03  0.00000000000E+00 0.  1.
         22    1    3    3    0    0  0.26492735596E+02 -0.18181915448E+02 -0.25285843388E+02  0.40887907315E+02  0.00000000000E+00 0.  1.
</event>
<event>
 7    1  0.5970484E-006  0.1157250E+03  0.7818608E-02  0.1288668E+00
          2   -1    0    0  502    0  0.00000000000E+00  0.00000000000E+00  0.53292205584E+02  0.53292205584E+02  0.00000000000E+00 0. -1.
          1   -1    0    0  501    0 -0.00000000000E+00 -0.00000000000E+00 -0.10229678589E+04  0.10229678589E+04  0.00000000000E+00 0. -1.
         25    2    1    2    0    0  0.47414740102E+02 -0.14654475431E+02 -0.13036642844E+03  0.18730197408E+03  0.12499485030E+03 0.  0.
          2    1    1    2  501    0 -0.12725286967E+03  0.14109847364E+02 -0.77754685730E+03  0.78801744646E+03  0.00000000000E+00 0. -1.
          1    1    1    2  502    0  0.79838129570E+02  0.54462806711E+00 -0.61762367609E+02  0.10094064397E+03  0.00000000000E+00 0. -1.
         22    1    3    3    0    0 -0.10283041484E+02  0.15924656750E+02  0.17411815287E+02  0.25739210291E+02  0.00000000000E+00 0.  1.
         22    1    3    3    0    0  0.57697781586E+02 -0.30579132182E+02 -0.14777824372E+03  0.16156276379E+03  0.00000000000E+00 0.  1.
</event>
<event>
 7    1  0.5970484E-006  0.5034034E+02  0.7818608E-02  0.1443841E+00
          2   -1    0    0  502    0  0.00000000000E+00  0.00000000000E+00  0.14721711522E+04  0.14721711522E+04  0.00000000000E+00 0. -1.
          1   -1    0    0  501    0 -0.00000000000E+00 -0.00000000000E+00 -0.94941031997E+02  0.94941031997E+02  0.00000000000E+00 0. -1.
         25    2    1    2    0    0 -0.11499160601E+02  0.12003919681E+02  0.33451684458E+03  0.35749676912E+03  0.12500438328E+03 0.  0.
          2    1    1    2  501    0 -0.27838252638E+02 -0.43220269550E+02 -0.74915684542E+02  0.90858790440E+02  0.00000000000E+00 0. -1.
          1    1    1    2  502    0  0.39337413239E+02  0.31216349869E+02  0.11176289602E+04  0.11187566246E+04  0.00000000000E+00 0. -1.
         22    1    3    3    0    0  0.47637598200E+02 -0.24556447019E+02  0.10827815554E+03  0.12081605365E+03  0.00000000000E+00 0. -1.
         22    1    3    3    0    0 -0.59136758801E+02  0.36560366700E+02  0.22623868904E+03  0.23668071546E+03  0.00000000000E+00 0. -1.
</event>
<event>
 7    1  0.5970484E-006  0.5923149E+02  0.7818608E-02  0.1412664E+00
          2   -1    0    0  502    0  0.00000000000E+00  0.00000000000E+00  0.41063676064E+03  0.41063676064E+03  0.00000000000E+00 0. -1.
          1   -1    0    0  501    0 -0.00000000000E+00 -0.00000000000E+00 -0.13326903716E+04  0.13326903716E+04  0.00000000000E+00 0. -1.
         25    2    1    2    0    0 -0.59637808275E+02  0.67930432279E+02 -0.16920971303E+03  0.22897200880E+03  0.12500016810E+03 0.  0.
          2    1    1    2  501    0  0.53302021462E+02 -0.92122076451E+01 -0.11306588588E+04  0.11319520419E+04  0.00000000000E+00 0. -1.
          1    1    1    2  502    0  0.63357868134E+01 -0.58718224633E+02  0.37781496087E+03  0.38240308151E+03  0.00000000000E+00 0. -1.
         22    1    3    3    0    0 -0.82800028981E+02  0.95260215361E+00 -0.81194134742E+02  0.11597085740E+03  0.00000000000E+00 0.  1.
         22    1    3    3    0    0  0.23162220706E+02  0.66977830125E+02 -0.88015578286E+02  0.11300115140E+03  0.00000000000E+00 0.  1.
</event>
<event>
 7    1  0.5970484E-006  0.4286819E+02  0.7818608E-02  0.1599885E+00
          2   -1    0    0  502    0  0.00000000000E+00  0.00000000000E+00  0.10997028948E+04  0.10997028948E+04  0.00000000000E+00 0. -1.
          1   -1    0    0  501    0 -0.00000000000E+00 -0.00000000000E+00 -0.45201630150E+02  0.45201630150E+02  0.00000000000E+00 0. -1.
         25    2    1    2    0    0  0.34071972542E+02  0.28247295463E+01  0.30164022793E+03  0.32828930571E+03  0.12497264794E+03 0.  0.
          2    1    1    2  501    0  0.58558148603E+01 -0.19925937303E+02 -0.27825296638E+02  0.34721472867E+02  0.00000000000E+00 0. -1.
          1    1    1    2  502    0 -0.39927787402E+02  0.17101207757E+02  0.78068633335E+03  0.78189374636E+03  0.00000000000E+00 0. -1.
         22    1    3    3    0    0  0.43542483774E+02  0.53867715796E+02  0.22727939265E+03  0.23759966545E+03  0.00000000000E+00 0.  1.
         22    1    3    3    0    0 -0.94705112321E+01 -0.51042986250E+02  0.74360835273E+02  0.90689640262E+02  0.00000000000E+00 0.  1.
</event>
<event>
 7    1  0.5970484E-006  0.8367387E+02  0.7818608E-02  0.1442365E+00
          2   -1    0    0  502    0  0.00000000000E+00  0.00000000000E+00  0.77834174441E+03  0.77834174441E+03  0.00000000000E+00 0. -1.
          1   -1    0    0  501    0 -0.00000000000E+00 -0.00000000000E+00 -0.10138148517E+03  0.10138148517E+03  0.00000000000E+00 0. -1.
         25    2    1    2    0    0 -0.69727361957E+02 -0.68027918382E+02  0.46291868887E+03  0.48929201373E+03  0.12499303781E+03 0.  0.
          2    1    1    2  501    0  0.39629576286E+02  0.73242278630E+02 -0.67524929460E+02  0.10721264288E+03  0.00000000000E+00 0. -1.
          1    1    1    2  502    0  0.30097785671E+02 -0.52143602481E+01  0.28156649982E+03  0.28321857297E+03  0.00000000000E+00 0. -1.
         22    1    3    3    0    0 -0.44031780439E+02 -0.39935962243E+02  0.44174925757E+03  0.44573095622E+03  0.00000000000E+00 0.  1.
         22    1    3    3    0    0 -0.25695581518E+02 -0.28091956139E+02  0.21169431306E+02  0.43561057507E+02  0.00000000000E+00 0.  1.
</event>
<event>
 7    1  0.5970484E-006  0.1982960E+03  0.7818608E-02  0.1222692E+00
          2   -1    0    0  502    0  0.00000000000E+00  0.00000000000E+00  0.95301473274E+03  0.95301473274E+03  0.00000000000E+00 0. -1.
          1   -1    0    0  501    0 -0.00000000000E+00 -0.00000000000E+00 -0.64029229881E+03  0.64029229881E+03  0.00000000000E+00 0. -1.
         25    2    1    2    0    0  0.86354702862E+02  0.95060103004E+02  0.13475020640E+02  0.17972216919E+03  0.12499969611E+03 0.  0.
          2    1    1    2  501    0 -0.16812417636E+03 -0.13159096540E+03 -0.53422890062E+03  0.57531073265E+03  0.00000000000E+00 0. -1.
          1    1    1    2  502    0  0.81769473493E+02  0.36530862394E+02  0.83347631391E+03  0.83827412972E+03  0.00000000000E+00 0. -1.
         22    1    3    3    0    0  0.67055556882E+01  0.49457456878E+02 -0.48008055148E+02  0.69251555051E+02  0.00000000000E+00 0.  1.
         22    1    3    3    0    0  0.79649147174E+02  0.45602646126E+02  0.61483075788E+02  0.11047061414E+03  0.00000000000E+00 0.  1.
</event>
<event>
 7    1  0.5970484E-006  0.1372660E+03  0.7818608E-02  0.1321468E+00
          2   -1    0    0  502    0  0.00000000000E+00  0.00000000000E+00  0.10739747228E+04  0.10739747228E+04  0.00000000000E+00 0. -1.
          1   -1    0    0  501    0 -0.00000000000E+00 -0.00000000000E+00 -0.12018460846E+04  0.12018460846E+04  0.00000000000E+00 0. -1.
         25    2    1    2    0    0  0.36726027554E+01  0.17315507167E+03 -0.18122356293E+03  0.28011248769E+03  0.12499943657E+03 0.  0.
          2    1    1    2  501    0 -0.29993715672E+02 -0.13080201557E+03 -0.96592981606E+03  0.97520725992E+03  0.00000000000E+00 0. -1.
          1    1    1    2  502    0  0.26321112916E+02 -0.42353056095E+02  0.10192820172E+04  0.10205010597E+04  0.00000000000E+00 0. -1.
         22    1    3    3    0    0  0.38821724648E+02  0.15133175366E+02 -0.77085011353E+02  0.87625557211E+02  0.00000000000E+00 0. -1.
         22    1    3    3    0    0 -0.35149121892E+02  0.15802189630E+03 -0.10413855157E+03  0.19248693048E+03  0.00000000000E+00 0. -1.
</event>
<event>
 7    1  0.5970484E-006  0.7654529E+02  0.7818608E-02  0.1360108E+00
          2   -1    0    0  502    0  0.00000000000E+00  0.00000000000E+00  0.17884084619E+04  0.17884084619E+04  0.00000000000E+00 0. -1.
          1   -1    0    0  501    0 -0.00000000000E+00 -0.00000000000E+00 -0.46714316547E+03  0.46714316547E+03  0.00000000000E+00 0. -1.
         25    2    1    2    0    0  0.23455800518E+02  0.13659436353E+03 -0.60477633835E+01  0.18674470365E+03  0.12501525575E+03 0.  0.
          2    1    1    2  501    0 -0.93750856319E+00 -0.63999451328E+02 -0.36712609963E+03  0.37266389914E+03  0.00000000000E+00 0. -1.
          1    1    1    2  502    0 -0.22518291955E+02 -0.72594912206E+02  0.16944391594E+04  0.16961430245E+04  0.00000000000E+00 0. -1.
         22    1    3    3    0    0  0.30605449723E+02 -0.15424035363E+01  0.30956413501E+02  0.43558834905E+02  0.00000000000E+00 0. -1.
         22    1    3    3    0    0 -0.71496492053E+01  0.13813676707E+03 -0.37004176884E+02  0.14318586874E+03  0.00000000000E+00 0. -1.
</event>
<event>
 7    1  0.5970484E-006  0.1142932E+03  0.7818608E-02  0.1336078E+00
          2   -1    0    0  502    0  0.00000000000E+00  0.00000000000E+00  0.12866399851E+04  0.12866399851E+04  0.00000000000E+00 0. -1.
          1   -1    0    0  501    0 -0.00000000000E+00 -0.00000000000E+00 -0.28682158245E+03  0.28682158245E+03  0.00000000000E+00 0. -1.
         25    2    1    2    0    0  0.10599486249E+03 -0.34060813875E+02  0.35339478136E+03  0.39103451906E+03  0.12500029473E+03 0.  0.
          2    1    1    2  501    0 -0.11334526774E+03 -0.18076335551E+02 -0.25490907942E+03  0.27955776218E+03  0.00000000000E+00 0. -1.
          1    1    1    2  502    0  0.73504052507E+01  0.52137149426E+02  0.90133270066E+03  0.90286928627E+03  0.00000000000E+00 0. -1.
         22    1    3    3    0    0  0.18310009211E+02 -0.69161058031E+02  0.17770956619E+03  0.19157034818E+03  0.00000000000E+00 0. -1.
         22    1    3    3    0    0  0.87684853281E+02  0.35100244155E+02  0.17568521517E+03  0.19946417088E+03  0.00000000000E+00 0. -1.
</event>
<event>
 7    1  0.5970484E-006  0.9503368E+02  0.7818608E-02  0.1421494E+00
          2   -1    0    0  502    0  0.00000000000E+00  0.00000000000E+00  0.90935422117E+03  0.90935422117E+03  0.00000000000E+00 0. -1.
          1   -1    0    0  501    0 -0.00000000000E+00 -0.00000000000E+00 -0.29495208012E+03  0.29495208012E+03  0.00000000000E+00 0. -1.
         25    2    1    2    0    0 -0.50328096068E+02  0.10495517550E+03  0.93915327096E+02  0.19492139098E+03  0.12500301548E+03 0.  0.
          2    1    1    2  501    0  0.57380528739E+02 -0.74263422410E+02 -0.23510137623E+03  0.25314074759E+03  0.00000000000E+00 0. -1.
          1    1    1    2  502    0 -0.70524326712E+01 -0.30691753093E+02  0.75558819018E+03  0.75624416273E+03  0.00000000000E+00 0. -1.
         22    1    3    3    0    0  0.88296332679E+01  0.82745175454E+02  0.10152988596E+03  0.13127468997E+03  0.00000000000E+00 0.  1.
         22    1    3    3    0    0 -0.59157729336E+02  0.22210000049E+02 -0.76145588649E+01  0.63646701007E+02  0.00000000000E+00 0.  1.
</event>
<event>
 7    1  0.1014558E-005  0.8835024E+02  0.7818608E-02  0.1332887E+00
          2   -1    0    0  502    0  0.00000000000E+00  0.00000000000E+00  0.24650155515E+04  0.24650155515E+04  0.00000000000E+00 0. -1.
          1   -1    0    0  501    0 -0.00000000000E+00 -0.00000000000E+00 -0.19332796068E+04  0.19332796068E+04  0.00000000000E+00 0. -1.
         25    2    1    2    0    0 -0.20515050670E+02  0.89438422741E+02 -0.65442518394E+03  0.67254543791E+03  0.12499978366E+03 0.  0.
          2    1    1    2  501    0  0.68382236340E+02 -0.15144179569E+02 -0.12680324780E+04  0.12699652916E+04  0.00000000000E+00 0. -1.
          1    1    1    2  502    0 -0.47867185670E+02 -0.74294243171E+02  0.24541936067E+04  0.24557844289E+04  0.00000000000E+00 0. -1.
         22    1    3    3    0    0  0.19887227179E+02 -0.21368676662E+02 -0.62454504133E+02  0.68939736246E+02  0.00000000000E+00 0. -1.
         22    1    3    3    0    0 -0.40402277849E+02  0.11080709940E+03 -0.59197067980E+03  0.60360570166E+03  0.00000000000E+00 0. -1.
</event>
<event>
 7    1  0.5970484E-006  0.2719890E+03  0.7818608E-02  0.1160289E+00
          2   -1    0    0  502    0  0.00000000000E+00  0.00000000000E+00  0.16883633523E+04  0.16883633523E+04  0.00000000000E+00 0. -1.
          1   -1    0    0  501    0 -0.00000000000E+00 -0.00000000000E+00 -0.12664785721E+04  0.12664785721E+04  0.00000000000E+00 0. -1.
         25    2    1    2    0    0  0.21690183995E+02  0.15026435825E+03  0.10550666563E+04  0.10732385891E+04  0.12500231420E+03 0.  0.
          2    1    1    2  501    0  0.21198852881E+02 -0.27291004379E+03 -0.12354849650E+04  0.12654455271E+04  0.00000000000E+00 0. -1.
          1    1    1    2  502    0 -0.42889036876E+02  0.12264568553E+03  0.60230308896E+03  0.61615780822E+03  0.00000000000E+00 0. -1.
         22    1    3    3    0    0  0.57678933102E+02  0.11502827066E+03  0.51516717848E+03  0.53099490031E+03  0.00000000000E+00 0.  1.
         22    1    3    3    0    0 -0.35988749107E+02  0.35236087597E+02  0.53989947780E+03  0.54224368881E+03  0.00000000000E+00 0.  1.
</event>
<event>
 7    1  0.5970484E-006  0.4150114E+02  0.7818608E-02  0.1498754E+00
          2   -1    0    0  502    0  0.00000000000E+00  0.00000000000E+00  0.21272434513E+03  0.21272434513E+03  0.00000000000E+00 0. -1.
          1   -1    0    0  501    0 -0.00000000000E+00 -0.00000000000E+00 -0.25689164449E+03  0.25689164449E+03  0.00000000000E+00 0. -1.
         25    2    1    2    0    0 -0.45834421947E+02  0.76353323615E+01 -0.47821717874E+02  0.14167336193E+03  0.12500132897E+03 0.  0.
          2    1    1    2  501    0  0.27880336103E+02  0.30237068601E+02 -0.15680005064E+03  0.16210443961E+03  0.00000000000E+00 0. -1.
          1    1    1    2  502    0  0.17954085844E+02 -0.37872400963E+02  0.16045446916E+03  0.16583818809E+03  0.00000000000E+00 0. -1.
         22    1    3    3    0    0 -0.32353306709E+02  0.65974379635E+02 -0.26688483293E+02  0.78176917078E+02  0.00000000000E+00 0.  1.
         22    1    3    3    0    0 -0.13481115237E+02 -0.58339047274E+02 -0.21133234581E+02  0.63496444851E+02  0.00000000000E+00 0.  1.
</event>
<event>
 7    1  0.5970484E-006  0.4003618E+02  0.7818608E-02  0.1523991E+00
          2   -1    0    0  502    0  0.00000000000E+00  0.00000000000E+00  0.21723352447E+04  0.21723352447E+04  0.00000000000E+00 0. -1.
          1   -1    0    0  501    0 -0.00000000000E+00 -0.00000000000E+00 -0.12247858623E+04  0.12247858623E+04  0.00000000000E+00 0. -1.
         25    2    1    2    0    0 -0.48262441333E+02  0.40997027256E+02  0.10845339547E+04  0.10935494196E+04  0.12500565878E+03 0.  0.
          2    1    1    2  501    0  0.35691575550E+02 -0.42343985515E+01 -0.12196649495E+04  0.12201944139E+04  0.00000000000E+00 0. -1.
          1    1    1    2  502    0  0.12570865782E+02 -0.36762628704E+02  0.10826803773E+04  0.10833772736E+04  0.00000000000E+00 0. -1.
         22    1    3    3    0    0 -0.19394627541E+01 -0.33068938345E+01  0.86095437980E+03  0.86096291509E+03  0.00000000000E+00 0.  1.
         22    1    3    3    0    0 -0.46322978578E+02  0.44303921090E+02  0.22357957487E+03  0.23258650448E+03  0.00000000000E+00 0.  1.
</event>
<event>
 7    1  0.5970484E-006  0.5188698E+02  0.7818608E-02  0.1462772E+00
          2   -1    0    0  502    0  0.00000000000E+00  0.00000000000E+00  0.89896868160E+03  0.89896868160E+03  0.00000000000E+00 0. -1.
          1   -1    0    0  501    0 -0.00000000000E+00 -0.00000000000E+00 -0.12667769810E+04  0.12667769810E+04  0.00000000000E+00 0. -1.
         25    2    1    2    0    0 -0.42125236887E+02 -0.83200685863E+02  0.36204973756E+03  0.39421197113E+03  0.12500470395E+03 0.  0.
          2    1    1    2  501    0  0.29223975094E+02  0.42804638910E+02 -0.12492944765E+04  0.12503691322E+04  0.00000000000E+00 0. -1.
          1    1    1    2  502    0  0.12901261793E+02  0.40396046953E+02  0.51943643950E+03  0.52116455927E+03  0.00000000000E+00 0. -1.
         22    1    3    3    0    0 -0.75214010824E+02 -0.83700411118E+02  0.20639454294E+03  0.23507788837E+03  0.00000000000E+00 0. -1.
         22    1    3    3    0    0  0.33088773937E+02  0.49972525527E+00  0.15565519462E+03  0.15913408276E+03  0.00000000000E+00 0. -1.
</event>
<event>
 7    1  0.5970484E-006  0.1489756E+03  0.7818608E-02  0.1369383E+00
          2   -1    0    0  502    0  0.00000000000E+00  0.00000000000E+00  0.75056217891E+03  0.75056217891E+03  0.00000000000E+00 0. -1.
          1   -1    0    0  501    0 -0.00000000000E+00 -0.00000000000E+00 -0.10950152389E+04  0.10950152389E+04  0.00000000000E+00 0. -1.
         25    2    1    2    0    0 -0.10706137319E+03 -0.71237405466E+02 -0.16110521115E+03  0.24107478465E+03  0.12500102867E+03 0.  0.
          2    1    1    2  501    0  0.11439896511E+03  0.10077779740E+03 -0.88709353454E+03  0.90009900938E+03  0.00000000000E+00 0. -1.
          1    1    1    2  502    0 -0.73375919187E+01 -0.29540391933E+02  0.70374568571E+03  0.70440362376E+03  0.00000000000E+00 0. -1.
         22    1    3    3    0    0 -0.11257245608E+03 -0.98882959192E+02 -0.12408899963E+03  0.19454685121E+03  0.00000000000E+00 0. -1.
         22    1    3    3    0    0  0.55110828878E+01  0.27645553726E+02 -0.37016211517E+02  0.46527933443E+02  0.00000000000E+00 0. -1.
</event>
<event>
 7    1  0.5970484E-006  0.6294393E+02  0.7818608E-02  0.1446876E+00
          2   -1    0    0  502    0  0.00000000000E+00  0.00000000000E+00  0.34557631763E+04  0.34557631763E+04  0.00000000000E+00 0. -1.
          1   -1    0    0  501    0 -0.00000000000E+00 -0.00000000000E+00 -0.94373204445E+01  0.94373204445E+01  0.00000000000E+00 0. -1.
         25    2    1    2    0    0 -0.62097666664E+02  0.21133620071E+02  0.15152184951E+04  0.15217801471E+04  0.12499991156E+03 0.  0.
          2    1    1    2  501    0  0.61249827949E+02  0.18126102339E+02  0.16583705188E+03  0.17771332192E+03  0.00000000000E+00 0. -1.
          1    1    1    2  502    0  0.84783871459E+00 -0.39259722410E+02  0.17652703088E+04  0.17657070277E+04  0.00000000000E+00 0. -1.
         22    1    3    3    0    0 -0.32804160626E+02  0.52851990395E+01  0.14284895944E+04  0.14288759805E+04  0.00000000000E+00 0.  1.
         22    1    3    3    0    0 -0.29293506038E+02  0.15848421032E+02  0.86728900703E+02  0.92904166550E+02  0.00000000000E+00 0.  1.
</event>
<event>
 7    1  0.5970484E-006  0.6274925E+02  0.7818608E-02  0.1410057E+00
          2   -1    0    0  502    0  0.00000000000E+00  0.00000000000E+00  0.36287407827E+03  0.36287407827E+03  0.00000000000E+00 0. -1.
          1   -1    0    0  501    0 -0.00000000000E+00 -0.00000000000E+00 -0.12140056517E+04  0.12140056517E+04  0.00000000000E+00 0. -1.
         25    2    1    2    0    0  0.14013491406E+02 -0.38727816176E+01  0.16667587912E+03  0.20886241400E+03  0.12502512916E+03 0.  0.
          2    1    1    2  501    0 -0.58569242141E+02 -0.23144421564E+02 -0.11881834963E+04  0.11898512686E+04  0.00000000000E+00 0. -1.
          1    1    1    2  502    0  0.44555750735E+02  0.27017203182E+02  0.17037604373E+03  0.17816604746E+03  0.00000000000E+00 0. -1.
         22    1    3    3    0    0  0.68024129172E+02  0.58315766255E+01  0.70552990402E+02  0.98178479771E+02  0.00000000000E+00 0.  1.
         22    1    3    3    0    0 -0.54010637766E+02 -0.97043582431E+01  0.96122888718E+02  0.11068393423E+03  0.00000000000E+00 0.  1.
</event>
<event>
 7    1  0.5970484E-006  0.8382753E+02  0.7818608E-02  0.1326013E+00
          2   -1    0    0  502    0  0.00000000000E+00  0.00000000000E+00  0.26144404202E+03  0.26144404202E+03  0.00000000000E+00 0. -1.
          1   -1    0    0  501    0 -0.00000000000E+00 -0.00000000000E+00 -0.44361986066E+03  0.44361986066E+03  0.00000000000E+00 0. -1.
         25    2    1    2    0    0  0.83628383760E+02 -0.49953294712E+02 -0.20943489420E+02  0.15984943084E+03  0.12499669022E+03 0.  0.
          2    1    1    2  501    0 -0.80419184388E+02 -0.28404328154E+02 -0.33971762830E+03  0.35026007203E+03  0.00000000000E+00 0. -1.
          1    1    1    2  502    0 -0.32091993723E+01  0.78357622865E+02  0.17848529908E+03  0.19495439982E+03  0.00000000000E+00 0. -1.
         22    1    3    3    0    0 -0.25237723297E+02  0.68233068917E+01 -0.26123034230E+02  0.36958261749E+02  0.00000000000E+00 0.  1.
         22    1    3    3    0    0  0.10886610706E+03 -0.56776601603E+02  0.51795448094E+01  0.12289116909E+03  0.00000000000E+00 0.  1.
</event>
<event>
 7    1  0.5970484E-006  0.6545307E+02  0.7818608E-02  0.1421705E+00
          2   -1    0    0  502    0  0.00000000000E+00  0.00000000000E+00  0.15538453903E+03  0.15538453903E+03  0.00000000000E+00 0. -1.
          1   -1    0    0  501    0 -0.00000000000E+00 -0.00000000000E+00 -0.75355896868E+03  0.75355896868E+03  0.00000000000E+00 0. -1.
         25    2    1    2    0    0  0.10718715798E+03 -0.17323442822E+02 -0.12406395855E+03  0.20689486913E+03  0.12499773020E+03 0.  0.
          2    1    1    2  501    0 -0.63543017722E+02  0.39407780413E+01 -0.58170081038E+03  0.58517439933E+03  0.00000000000E+00 0. -1.
          1    1    1    2  502    0 -0.43644140256E+02  0.13382664780E+02  0.10759033928E+03  0.11687423925E+03  0.00000000000E+00 0. -1.
         22    1    3    3    0    0  0.62018964813E+02  0.71634212458E+01 -0.13984437751E+03  0.15314736864E+03  0.00000000000E+00 0. -1.
         22    1    3    3    0    0  0.45168193165E+02 -0.24486864067E+02  0.15780418966E+02  0.53747500485E+02  0.00000000000E+00 0. -1.
</event>
<event>
 7    1  0.5970484E-006  0.3881785E+02  0.7818608E-02  0.1575883E+00
          2   -1    0    0  502    0  0.00000000000E+00  0.00000000000E+00  0.20351475903E+04  0.20351475903E+04  0.00000000000E+00 0. -1.
          1   -1    0    0  501    0 -0.00000000000E+00 -0.00000000000E+00 -0.56222163222E+03  0.56222163222E+03  0.00000000000E+00 0. -1.
         25    2    1    2    0    0 -0.37825681911E+01 -0.15780901655E+02  0.10893169636E+04  0.10965857368E+04  0.12500194533E+03 0.  0.
          2    1    1    2  501    0  0.27804682748E+02  0.27109569494E+02 -0.55772478575E+03  0.55907509851E+03  0.00000000000E+00 0. -1.
          1    1    1    2  502    0 -0.24022114557E+02 -0.11328667839E+02  0.94133378020E+03  0.94170838716E+03  0.00000000000E+00 0. -1.
         22    1    3    3    0    0  0.18452103662E+02 -0.22036515659E+02  0.10539654756E+04  0.10543572980E+04  0.00000000000E+00 0.  1.
         22    1    3    3    0    0 -0.22234671853E+02  0.62556140042E+01  0.35351487997E+02  0.42228438790E+02  0.00000000000E+00 0.  1.
</event>
<event>
 7    1  0.5970484E-006  0.4036129E+02  0.7818608E-02  0.1554163E+00
          2   -1    0    0  502    0  0.00000000000E+00  0.00000000000E+00  0.10334020807E+04  0.10334020807E+04  0.00000000000E+00 0. -1.
          1   -1    0    0  501    0 -0.00000000000E+00 -0.00000000000E+00 -0.73131311755E+02  0.73131311755E+02  0.00000000000E+00 0. -1.
         25    2    1    2    0    0  0.41890171312E+02 -0.31670085154E+02  0.30371783246E+03  0.33261899735E+03  0.12503237539E+03 0.  0.
          2    1    1    2  501    0 -0.17507320484E+01  0.29235212292E+02 -0.54422470434E+02  0.61802653572E+02  0.00000000000E+00 0. -1.
          1    1    1    2  502    0 -0.40139439263E+02  0.24348728622E+01  0.71097540687E+03  0.71211174149E+03  0.00000000000E+00 0. -1.
         22    1    3    3    0    0  0.29356909712E+02 -0.72309682013E+02  0.26068878363E+03  0.27211975336E+03  0.00000000000E+00 0. -1.
         22    1    3    3    0    0  0.12533261600E+02  0.40639596859E+02  0.43029048832E+02  0.60499243984E+02  0.00000000000E+00 0. -1.
</event>
<event>
 7    1  0.5970484E-006  0.8138230E+02  0.7818608E-02  0.1469992E+00
          2   -1    0    0  502    0  0.00000000000E+00  0.00000000000E+00  0.28072961812E+03  0.28072961812E+03  0.00000000000E+00 0. -1.
          1   -1    0    0  501    0 -0.00000000000E+00 -0.00000000000E+00 -0.30738608816E+03  0.30738608816E+03  0.00000000000E+00 0. -1.
         25    2    1    2    0    0 -0.88799471623E+02  0.24331111439E+01  0.32087601168E+02  0.15667169848E+03  0.12500056306E+03 0.  0.
          2    1    1    2  501    0  0.12020472055E+02  0.22678873177E+02 -0.23560964078E+03  0.23700364104E+03  0.00000000000E+00 0. -1.
          1    1    1    2  502    0  0.76778999568E+02 -0.25111984321E+02  0.17686556957E+03  0.19444036677E+03  0.00000000000E+00 0. -1.
         22    1    3    3    0    0  0.20980174385E+02  0.27646559738E+02  0.26907391068E+02  0.43914777429E+02  0.00000000000E+00 0.  1.
         22    1    3    3    0    0 -0.10977964601E+03 -0.25213448594E+02  0.51802100990E+01  0.11275692105E+03  0.00000000000E+00 0.  1.
</event>
<event>
 7    1  0.5970484E-006  0.8867176E+02  0.7818608E-02  0.1443118E+00
          2   -1    0    0  502    0  0.00000000000E+00  0.00000000000E+00  0.17112660613E+04  0.17112660613E+04  0.00000000000E+00 0. -1.
          1   -1    0    0  501    0 -0.00000000000E+00 -0.00000000000E+00 -0.25384602911E+03  0.25384602911E+03  0.00000000000E+00 0. -1.
         25    2    1    2    0    0  0.54062168783E+02 -0.49424265504E+02  0.24717566990E+03  0.28650661471E+03  0.12499900946E+03 0.  0.
          2    1    1    2  501    0 -0.45517854136E+02  0.76784446956E+02 -0.22552635090E+03  0.24254867819E+03  0.00000000000E+00 0. -1.
          1    1    1    2  502    0 -0.85443146465E+01 -0.27360181452E+02  0.14357707132E+04  0.14360567976E+04  0.00000000000E+00 0. -1.
         22    1    3    3    0    0  0.11794927481E+02  0.41937462562E+02  0.87557577914E+02  0.97796730675E+02  0.00000000000E+00 0.  1.
         22    1    3    3    0    0  0.42267241302E+02 -0.91361728066E+02  0.15961809198E+03  0.18870988403E+03  0.00000000000E+00 0.  1.
</event>
<event>
 7    1  0.5970484E-006  0.7109291E+02  0.7818608E-02  0.1423596E+00
          2   -1    0    0  502    0  0.00000000000E+00  0.00000000000E+00  0.25677155708E+03  0.25677155708E+03  0.00000000000E+00 0. -1.
          1   -1    0    0  501    0 -0.00000000000E+00 -0.00000000000E+00 -0.54845283258E+03  0.54845283258E+03  0.00000000000E+00 0. -1.
         25    2    1    2    0    0 -0.66265114578E+02 -0.23168898636E+02 -0.28812655269E+03  0.32182196037E+03  0.12499840214E+03 0.  0.
          2    1    1    2  501    0  0.45371738475E+02  0.58937625944E+02 -0.23592340682E+03  0.24737035451E+03  0.00000000000E+00 0. -1.
          1    1    1    2  502    0  0.20893376103E+02 -0.35768727308E+02  0.23236868400E+03  0.23603207478E+03  0.00000000000E+00 0. -1.
         22    1    3    3    0    0 -0.31543342124E+02 -0.23295880227E+02 -0.28418419042E+03  0.28687686305E+03  0.00000000000E+00 0. -1.
         22    1    3    3    0    0 -0.34721772454E+02  0.12698159039E+00 -0.39423622689E+01  0.34945097323E+02  0.00000000000E+00 0. -1.
</event>
<event>
 7    1  0.5970484E-006  0.1210847E+03  0.7818608E-02  0.1317882E+00
          2   -1    0    0  502    0  0.00000000000E+00  0.00000000000E+00  0.63452986409E+03  0.63452986409E+03  0.00000000000E+00 0. -1.
          1   -1    0    0  501    0 -0.00000000000E+00 -0.00000000000E+00 -0.86561296382E+03  0.86561296382E+03  0.00000000000E+00 0. -1.
         25    2    1    2    0    0 -0.98981217705E+02  0.73573065122E+02  0.14688781408E+02  0.17619915196E+03  0.12498041240E+03 0.  0.
          2    1    1    2  501    0  0.12011561736E+03 -0.19162702391E+02 -0.77854153767E+03  0.78798597486E+03  0.00000000000E+00 0. -1.
          1    1    1    2  502    0 -0.21134399660E+02 -0.54410362731E+02  0.53276965654E+03  0.53595770108E+03  0.00000000000E+00 0. -1.
         22    1    3    3    0    0 -0.11391918344E+03  0.92054124153E+02 -0.31306226745E+01  0.14649690415E+03  0.00000000000E+00 0.  1.
         22    1    3    3    0    0  0.14937965732E+02 -0.18481059031E+02  0.17819404082E+02  0.29702247810E+02  0.00000000000E+00 0.  1.
</event>
<event>
 7    1  0.5970484E-006  0.1567797E+03  0.7818608E-02  0.1236121E+00
          2   -1    0    0  502    0  0.00000000000E+00  0.00000000000E+00  0.53850912837E+03  0.53850912837E+03  0.00000000000E+00 0. -1.
          1   -1    0    0  501    0 -0.00000000000E+00 -0.00000000000E+00 -0.10229496033E+03  0.10229496033E+03  0.00000000000E+00 0. -1.
         25    2    1    2    0    0 -0.36807707813E+02  0.93064838963E+02  0.91975784982E+02  0.18465827415E+03  0.12499304614E+03 0.  0.
          2    1    1    2  501    0 -0.29396754768E+02  0.94111618606E+02  0.89360422152E+02  0.13306558907E+03  0.00000000000E+00 0. -1.
          1    1    1    2  502    0  0.66204462581E+02 -0.18717645757E+03  0.25487796091E+03  0.32308022547E+03  0.00000000000E+00 0. -1.
         22    1    3    3    0    0  0.35666596703E+02 -0.52677674962E+01  0.33554277778E+02  0.49251853284E+02  0.00000000000E+00 0.  1.
         22    1    3    3    0    0 -0.72474304516E+02  0.98332606459E+02  0.58421507205E+02  0.13540642087E+03  0.00000000000E+00 0.  1.
</event>
<event>
 7    1  0.5970484E-006  0.8100928E+02  0.7818608E-02  0.1412715E+00
          2   -1    0    0  502    0  0.00000000000E+00  0.00000000000E+00  0.32589089111E+04  0.32589089111E+04  0.00000000000E+00 0. -1.
          1   -1    0    0  501    0 -0.00000000000E+00 -0.00000000000E+00 -0.19350502517E+02  0.19350502517E+02  0.00000000000E+00 0. -1.
         25    2    1    2    0    0  0.82827542906E+02 -0.16994413150E+02  0.14135359930E+04  0.14215690905E+04  0.12500185414E+03 0.  0.
          2    1    1    2  501    0 -0.19125292335E+02 -0.34601144353E+02  0.12712820008E+02  0.41528686351E+02  0.00000000000E+00 0. -1.
          1    1    1    2  502    0 -0.63702250571E+02  0.51595557503E+02  0.18133095956E+04  0.18151616368E+04  0.00000000000E+00 0. -1.
         22    1    3    3    0    0  0.15850950431E+01  0.34723114212E+02  0.13472316270E+03  0.13913496237E+03  0.00000000000E+00 0.  1.
         22    1    3    3    0    0  0.81242447863E+02 -0.51717527362E+02  0.12788128303E+04  0.12824341281E+04  0.00000000000E+00 0.  1.
</event>
<event>
 7    1  0.5970484E-006  0.1983621E+03  0.7818608E-02  0.1216335E+00
          2   -1    0    0  502    0  0.00000000000E+00  0.00000000000E+00  0.17027162745E+04  0.17027162745E+04  0.00000000000E+00 0. -1.
          1   -1    0    0  501    0 -0.00000000000E+00 -0.00000000000E+00 -0.41598757574E+03  0.41598757574E+03  0.00000000000E+00 0. -1.
         25    2    1    2    0    0  0.14904447018E+03  0.39337178619E+01  0.43416717025E+03  0.47576919780E+03  0.12500187849E+03 0.  0.
          2    1    1    2  501    0  0.66849609757E+02 -0.68498843115E+02 -0.37901447153E+03  0.39091294614E+03  0.00000000000E+00 0. -1.
          1    1    1    2  502    0 -0.21589407994E+03  0.64565125253E+02  0.12315760000E+04  0.12520217063E+04  0.00000000000E+00 0. -1.
         22    1    3    3    0    0  0.28210152362E+02  0.52419332180E+02  0.91080292112E+02  0.10880817384E+03  0.00000000000E+00 0.  1.
         22    1    3    3    0    0  0.12083431782E+03 -0.48485614318E+02  0.34308687814E+03  0.36696102396E+03  0.00000000000E+00 0.  1.
</event>
<event>
 7    1  0.5970484E-006  0.1773127E+03  0.7818608E-02  0.1193954E+00
          2   -1    0    0  502    0  0.00000000000E+00  0.00000000000E+00  0.73158390080E+03  0.73158390080E+03  0.00000000000E+00 0. -1.
          1   -1    0    0  501    0 -0.00000000000E+00 -0.00000000000E+00 -0.41735795270E+04  0.41735795270E+04  0.00000000000E+00 0. -1.
         25    2    1    2    0    0  0.20881892110E+03 -0.21644311421E+03  0.82910704493E+02  0.33608434414E+03  0.12500215182E+03 0.  0.
          2    1    1    2  501    0 -0.97757139425E+02  0.94908180687E+02 -0.40328341716E+04  0.40351351250E+04  0.00000000000E+00 0. -1.
          1    1    1    2  502    0 -0.11106178167E+03  0.12153493352E+03  0.50792784093E+03  0.53394395868E+03  0.00000000000E+00 0. -1.
         22    1    3    3    0    0  0.67782176201E+02 -0.29950124554E+02 -0.25482766769E+02  0.78363287154E+02  0.00000000000E+00 0. -1.
         22    1    3    3    0    0  0.14103674490E+03 -0.18649298966E+03  0.10839347126E+03  0.25772105699E+03  0.00000000000E+00 0. -1.
</event>
<event>
 7    1  0.5970484E-006  0.5832167E+02  0.7818608E-02  0.1420901E+00
          2   -1    0    0  502    0  0.00000000000E+00  0.00000000000E+00  0.64112367499E+03  0.64112367499E+03  0.00000000000E+00 0. -1.
          1   -1    0    0  501    0 -0.00000000000E+00 -0.00000000000E+00 -0.24119376434E+03  0.24119376434E+03  0.00000000000E+00 0. -1.
         25    2    1    2    0    0 -0.72149240926E+02 -0.21589603483E+02  0.44490731830E+02  0.15256673283E+03  0.12500223519E+03 0.  0.
          2    1    1    2  501    0  0.52327459262E+02 -0.25995707009E+02 -0.18133040652E+03  0.19051156423E+03  0.00000000000E+00 0. -1.
          1    1    1    2  502    0  0.19821781664E+02  0.47585310491E+02  0.53676958534E+03  0.53923914227E+03  0.00000000000E+00 0. -1.
         22    1    3    3    0    0  0.24556352288E+02 -0.36856258523E+02  0.30251354077E+02  0.53633409863E+02  0.00000000000E+00 0. -1.
         22    1    3    3    0    0 -0.96705593214E+02  0.15266655041E+02  0.14239377753E+02  0.98933322969E+02  0.00000000000E+00 0. -1.
</event>
<event>
 7    1  0.5970484E-006  0.6906110E+02  0.7818608E-02  0.1413970E+00
          2   -1    0    0  502    0  0.00000000000E+00  0.00000000000E+00  0.17092982437E+03  0.17092982437E+03  0.00000000000E+00 0. -1.
          1   -1    0    0  501    0 -0.00000000000E+00 -0.00000000000E+00 -0.10207821745E+04  0.10207821745E+04  0.00000000000E+00 0. -1.
         25    2    1    2    0    0 -0.66750639690E+02 -0.67879464235E+02 -0.34597281754E+02  0.16088943775E+03  0.12500067885E+03 0.  0.
          2    1    1    2  501    0  0.33083365801E+01  0.45805638081E+02 -0.91193876342E+03  0.91309441450E+03  0.00000000000E+00 0. -1.
          1    1    1    2  502    0  0.63442303109E+02  0.22073826154E+02  0.96683695026E+02  0.11772814663E+03  0.00000000000E+00 0. -1.
         22    1    3    3    0    0 -0.22372727421E+02  0.11006196760E+02 -0.61584348652E+02  0.66440253598E+02  0.00000000000E+00 0. -1.
         22    1    3    3    0    0 -0.44377912269E+02 -0.78885660995E+02  0.26987066898E+02  0.94449184156E+02  0.00000000000E+00 0. -1.
</event>
<event>
 7    1  0.5970484E-006  0.9083031E+02  0.7818608E-02  0.1307639E+00
          2   -1    0    0  502    0  0.00000000000E+00  0.00000000000E+00  0.14863465712E+03  0.14863465712E+03  0.00000000000E+00 0. -1.
          1   -1    0    0  501    0 -0.00000000000E+00 -0.00000000000E+00 -0.64515253248E+03  0.64515253248E+03  0.00000000000E+00 0. -1.
         25    2    1    2    0    0 -0.42404523086E+02 -0.67485448560E+01 -0.17511213674E+02  0.13332415730E+03  0.12500000752E+03 0.  0.
          2    1    1    2  501    0 -0.49817022472E+02 -0.69313445483E+02 -0.52535974847E+03  0.53224895938E+03  0.00000000000E+00 0. -1.
          1    1    1    2  502    0  0.92221545559E+02  0.76061990339E+02  0.46353086784E+02  0.12821407292E+03  0.00000000000E+00 0. -1.
         22    1    3    3    0    0 -0.97413890596E+01 -0.28865780861E+02  0.48000956287E+02  0.56852614452E+02  0.00000000000E+00 0. -1.
         22    1    3    3    0    0 -0.32663134026E+02  0.22117236005E+02 -0.65512169962E+02  0.76471542851E+02  0.00000000000E+00 0. -1.
</event>
<event>
 7    1  0.5970484E-006  0.4507723E+02  0.7818608E-02  0.1583162E+00
          2   -1    0    0  502    0  0.00000000000E+00  0.00000000000E+00  0.10583125948E+04  0.10583125948E+04  0.00000000000E+00 0. -1.
          1   -1    0    0  501    0 -0.00000000000E+00 -0.00000000000E+00 -0.28146232269E+03  0.28146232269E+03  0.00000000000E+00 0. -1.
         25    2    1    2    0    0  0.73180688739E+01  0.48998900421E+02  0.11161293648E+03  0.17473428863E+03  0.12498070915E+03 0.  0.
          2    1    1    2  501    0 -0.25648596074E+02 -0.37078313903E+02 -0.24773622713E+03  0.25180526220E+03  0.00000000000E+00 0. -1.
          1    1    1    2  502    0  0.18330527200E+02 -0.11920586518E+02  0.91297356273E+03  0.91323536662E+03  0.00000000000E+00 0. -1.
         22    1    3    3    0    0  0.50303341171E+02  0.65263494625E+02  0.95257613959E+02  0.12595143064E+03  0.00000000000E+00 0.  1.
         22    1    3    3    0    0 -0.42985272297E+02 -0.16264594204E+02  0.16355322519E+02  0.48782857991E+02  0.00000000000E+00 0.  1.
</event>
<event>
 7    1  0.5970484E-006  0.7935381E+02  0.7818608E-02  0.1433614E+00
          2   -1    0    0  502    0  0.00000000000E+00  0.00000000000E+00  0.12767902218E+03  0.12767902218E+03  0.00000000000E+00 0. -1.
          1   -1    0    0  501    0 -0.00000000000E+00 -0.00000000000E+00 -0.91691245132E+03  0.91691245132E+03  0.00000000000E+00 0. -1.
         25    2    1    2    0    0  0.49665928004E+01 -0.71162635166E+02 -0.13243585655E+03  0.19558445709E+03  0.12500094427E+03 0.  0.
          2    1    1    2  501    0  0.34387953646E+02  0.55461911298E+00 -0.73543125566E+03  0.73623499697E+03  0.00000000000E+00 0. -1.
          1    1    1    2  502    0 -0.39354546447E+02  0.70608016053E+02  0.78633683070E+02  0.11277201945E+03  0.00000000000E+00 0. -1.
         22    1    3    3    0    0  0.17910925977E+02 -0.96259127664E+02 -0.13550808984E+03  0.16717973364E+03  0.00000000000E+00 0. -1.
         22    1    3    3    0    0 -0.12944333176E+02  0.25096492498E+02  0.30722332880E+01  0.28404723453E+02  0.00000000000E+00 0. -1.
</event>
<event>
 7    1  0.5970484E-006  0.4724543E+02  0.7818608E-02  0.1466201E+00
          2   -1    0    0  502    0  0.00000000000E+00  0.00000000000E+00  0.39037561199E+02  0.39037561199E+02  0.00000000000E+00 0. -1.
          1   -1    0    0  501    0 -0.00000000000E+00 -0.00000000000E+00 -0.15099772541E+04  0.15099772541E+04  0.00000000000E+00 0. -1.
         25    2    1    2    0    0  0.31804695083E+01 -0.35913689134E+01 -0.44471317875E+03  0.46197186401E+03  0.12500071387E+03 0.  0.
          2    1    1    2  501    0 -0.33599156270E+02  0.37339572167E+02 -0.10387111309E+04  0.10399249782E+04  0.00000000000E+00 0. -1.
          1    1    1    2  502    0  0.30418686762E+02 -0.33748203253E+02  0.12484616746E+02  0.47117973030E+02  0.00000000000E+00 0. -1.
         22    1    3    3    0    0 -0.14446405492E+02  0.49412381890E+02 -0.33422531645E+03  0.33816688820E+03  0.00000000000E+00 0.  1.
         22    1    3    3    0    0  0.17626875001E+02 -0.53003750803E+02 -0.11048786229E+03  0.12380497581E+03  0.00000000000E+00 0.  1.
</event>
<event>
 7    1  0.5970484E-006  0.4786270E+02  0.7818608E-02  0.1481978E+00
          2   -1    0    0  502    0  0.00000000000E+00  0.00000000000E+00  0.24172025476E+04  0.24172025476E+04  0.00000000000E+00 0. -1.
          1   -1    0    0  501    0 -0.00000000000E+00 -0.00000000000E+00 -0.38794979413E+02  0.38794979413E+02  0.00000000000E+00 0. -1.
         25    2    1    2    0    0 -0.65021473272E+01 -0.35087759625E+02  0.14278738608E+04  0.14337797938E+04  0.12500922405E+03 0.  0.
          2    1    1    2  501    0  0.39451023065E+02 -0.70806216043E+01 -0.23667713190E+02  0.46547600054E+02  0.00000000000E+00 0. -1.
          1    1    1    2  502    0 -0.32948875738E+02  0.42168381229E+02  0.97420142064E+03  0.97567013318E+03  0.00000000000E+00 0. -1.
         22    1    3    3    0    0  0.12317950828E+02 -0.70836507666E+02  0.12137678661E+04  0.12158955446E+04  0.00000000000E+00 0. -1.
         22    1    3    3    0    0 -0.18820098155E+02  0.35748748041E+02  0.21410599473E+03  0.21788424923E+03  0.00000000000E+00 0. -1.
</event>
<event>
 7    1  0.5970484E-006  0.1050107E+03  0.7818608E-02  0.1333294E+00
          2   -1    0    0  502    0  0.00000000000E+00  0.00000000000E+00  0.21266814315E+04  0.21266814315E+04  0.00000000000E+00 0. -1.
          1   -1    0    0  501    0 -0.00000000000E+00 -0.00000000000E+00 -0.16153794595E+04  0.16153794595E+04  0.00000000000E+00 0. -1.
         25    2    1    2    0    0 -0.51956943719E+02 -0.16273215937E+02 -0.61570507737E+02  0.14959211076E+03  0.12499012209E+03 0.  0.
          2    1    1    2  501    0 -0.30007838187E+02 -0.50470484708E+02 -0.15078852000E+04  0.15090280039E+04  0.00000000000E+00 0. -1.
          1    1    1    2  502    0  0.81964781905E+02  0.66743700645E+02  0.20807576797E+04  0.20834407764E+04  0.00000000000E+00 0. -1.
         22    1    3    3    0    0  0.15862895795E+02 -0.39579067659E+02  0.14510175009E+02  0.45040861876E+02  0.00000000000E+00 0.  1.
         22    1    3    3    0    0 -0.67819839514E+02  0.23305851722E+02 -0.76080682745E+02  0.10455124888E+03  0.00000000000E+00 0.  1.
</event>
<event>
 7    1  0.5970484E-006  0.5641120E+02  0.7818608E-02  0.1476503E+00
          2   -1    0    0  502    0  0.00000000000E+00  0.00000000000E+00  0.65601654592E+03  0.65601654592E+03  0.00000000000E+00 0. -1.
          1   -1    0    0  501    0 -0.00000000000E+00 -0.00000000000E+00 -0.17488159175E+04  0.17488159175E+04  0.00000000000E+00 0. -1.
         25    2    1    2    0    0  0.60149587942E+02  0.31589356535E+02  0.20714869171E+03  0.25130035161E+03  0.12500170347E+03 0.  0.
          2    1    1    2  501    0 -0.40581561160E+01 -0.35116223589E+02 -0.17247079365E+04  0.17250701679E+04  0.00000000000E+00 0. -1.
          1    1    1    2  502    0 -0.56091431826E+02  0.35268670536E+01  0.42475987322E+03  0.42846194395E+03  0.00000000000E+00 0. -1.
         22    1    3    3    0    0  0.34871879550E+02 -0.38266051540E+02  0.31534645760E+02  0.60619902401E+02  0.00000000000E+00 0. -1.
         22    1    3    3    0    0  0.25277708392E+02  0.69855408075E+02  0.17561404595E+03  0.19068044921E+03  0.00000000000E+00 0. -1.
</event>
<event>
 7    1  0.5970484E-006  0.1122079E+03  0.7818608E-02  0.1326284E+00
          2   -1    0    0  502    0  0.00000000000E+00  0.00000000000E+00  0.32518703750E+04  0.32518703750E+04  0.00000000000E+00 0. -1.
          1   -1    0    0  501    0 -0.00000000000E+00 -0.00000000000E+00 -0.11143554168E+04  0.11143554168E+04  0.00000000000E+00 0. -1.
         25    2    1    2    0    0 -0.81722070782E+02 -0.94984399961E+02  0.24023194757E+03  0.29839474108E+03  0.12500999873E+03 0.  0.
          2    1    1    2  501    0  0.10441494596E+03  0.41122158106E+02 -0.10820856359E+04  0.10878891655E+04  0.00000000000E+00 0. -1.
          1    1    1    2  502    0 -0.22692875174E+02  0.53862241855E+02  0.29793686465E+04  0.29799418853E+04  0.00000000000E+00 0. -1.
         22    1    3    3    0    0 -0.50769424510E+02 -0.33438816402E+02  0.21752217888E+03  0.22585744887E+03  0.00000000000E+00 0.  1.
         22    1    3    3    0    0 -0.30952646273E+02 -0.61545583559E+02  0.22709768694E+02  0.72537292209E+02  0.00000000000E+00 0.  1.
</event>
<event>
 7    1  0.5970484E-006  0.5327671E+02  0.7818608E-02  0.1461301E+00
          2   -1    0    0  502    0  0.00000000000E+00  0.00000000000E+00  0.10658935999E+04  0.10658935999E+04  0.00000000000E+00 0. -1.
          1   -1    0    0  501    0 -0.00000000000E+00 -0.00000000000E+00 -0.52050451074E+02  0.52050451074E+02  0.00000000000E+00 0. -1.
         25    2    1    2    0    0  0.30125807790E+02 -0.30751148649E+02  0.29068617972E+03  0.31933778559E+03  0.12499987515E+03 0.  0.
          2    1    1    2  501    0  0.40365251298E+01  0.54738039428E+02 -0.16856220131E+02  0.57416710570E+02  0.00000000000E+00 0. -1.
          1    1    1    2  502    0 -0.34162332919E+02 -0.23986890779E+02  0.74001318924E+03  0.74118955482E+03  0.00000000000E+00 0. -1.
         22    1    3    3    0    0  0.46201175038E+02  0.34342713047E+02  0.18869642072E+03  0.19728230967E+03  0.00000000000E+00 0.  1.
         22    1    3    3    0    0 -0.16075367248E+02 -0.65093861696E+02  0.10198975900E+03  0.12205547592E+03  0.00000000000E+00 0.  1.
</event>
<event>
 7    1  0.5970484E-006  0.6406636E+02  0.7818608E-02  0.1385134E+00
          2   -1    0    0  502    0  0.00000000000E+00  0.00000000000E+00  0.19937870401E+04  0.19937870401E+04  0.00000000000E+00 0. -1.
          1   -1    0    0  501    0 -0.00000000000E+00 -0.00000000000E+00 -0.10452385191E+03  0.10452385191E+03  0.00000000000E+00 0. -1.
         25    2    1    2    0    0 -0.42058564251E+02  0.70554737001E+02  0.42028168964E+02  0.15541099446E+03  0.12505725278E+03 0.  0.
          2    1    1    2  501    0  0.63799953247E+02 -0.12263315185E+02 -0.25014381522E+02  0.69617111521E+02  0.00000000000E+00 0. -1.
          1    1    1    2  502    0 -0.21741388996E+02 -0.58291421816E+02  0.18722494007E+04  0.18732827860E+04  0.00000000000E+00 0. -1.
         22    1    3    3    0    0 -0.31425607925E+02 -0.20908754172E+02  0.50382296152E+02  0.62953320802E+02  0.00000000000E+00 0.  1.
         22    1    3    3    0    0 -0.10632956326E+02  0.91463491173E+02 -0.83541271878E+01  0.92457673662E+02  0.00000000000E+00 0.  1.
</event>
<event>
 7    1  0.5970484E-006  0.1905699E+03  0.7818608E-02  0.1257020E+00
          2   -1    0    0  502    0  0.00000000000E+00  0.00000000000E+00  0.47409186333E+03  0.47409186333E+03  0.00000000000E+00 0. -1.
          1   -1    0    0  501    0 -0.00000000000E+00 -0.00000000000E+00 -0.27138112628E+03  0.27138112628E+03  0.00000000000E+00 0. -1.
         25    2    1    2    0    0  0.12738337144E+03  0.54601130107E+02 -0.70718611913E+02  0.19958641296E+03  0.12500322972E+03 0.  0.
          2    1    1    2  501    0  0.65745066310E+02 -0.98432182692E+00 -0.10138873050E+03  0.12084311030E+03  0.00000000000E+00 0. -1.
          1    1    1    2  502    0 -0.19312843775E+03 -0.53616808280E+02  0.37481807946E+03  0.42504346635E+03  0.00000000000E+00 0. -1.
         22    1    3    3    0    0  0.12691515612E+03  0.14723865797E+02 -0.89007091957E+02  0.15571291371E+03  0.00000000000E+00 0. -1.
         22    1    3    3    0    0  0.46821532175E+00  0.39877264310E+02  0.18288480044E+02  0.43873499253E+02  0.00000000000E+00 0. -1.
</event>
<event>
 7    1  0.5970484E-006  0.1017080E+03  0.7818608E-02  0.1338785E+00
          2   -1    0    0  502    0  0.00000000000E+00  0.00000000000E+00  0.22878978592E+03  0.22878978592E+03  0.00000000000E+00 0. -1.
          1   -1    0    0  501    0 -0.00000000000E+00 -0.00000000000E+00 -0.79339931963E+03  0.79339931963E+03  0.00000000000E+00 0. -1.
         25    2    1    2    0    0 -0.29187309929E+02  0.12429705375E+03 -0.19817021431E+03  0.26682735929E+03  0.12499499670E+03 0.  0.
          2    1    1    2  501    0  0.51659410767E+02 -0.25906182033E+02 -0.54617774749E+03  0.54922668984E+03  0.00000000000E+00 0. -1.
          1    1    1    2  502    0 -0.22472100838E+02 -0.98390871713E+02  0.17973842808E+03  0.20613505641E+03  0.00000000000E+00 0. -1.
         22    1    3    3    0    0 -0.31230217423E+02 -0.10712253508E+02 -0.83110255376E+02  0.89428146599E+02  0.00000000000E+00 0.  1.
         22    1    3    3    0    0  0.20429074942E+01  0.13500930725E+03 -0.11505995893E+03  0.17739921270E+03  0.00000000000E+00 0.  1.
</event>
<event>
 7    1  0.5970484E-006  0.4563308E+02  0.7818608E-02  0.1475834E+00
          2   -1    0    0  502    0  0.00000000000E+00  0.00000000000E+00  0.24888652105E+04  0.24888652105E+04  0.00000000000E+00 0. -1.
          1   -1    0    0  501    0 -0.00000000000E+00 -0.00000000000E+00 -0.49544071911E+03  0.49544071911E+03  0.00000000000E+00 0. -1.
         25    2    1    2    0    0 -0.17258926211E+02 -0.16737018147E+02  0.27263295811E+02  0.13018709497E+03  0.12500957598E+03 0.  0.
          2    1    1    2  501    0  0.41802678524E+02 -0.19669565868E+02 -0.44257637239E+03  0.44498112449E+03  0.00000000000E+00 0. -1.
          1    1    1    2  502    0 -0.24543752313E+02  0.36406584015E+02  0.24087375680E+04  0.24091377101E+04  0.00000000000E+00 0. -1.
         22    1    3    3    0    0 -0.21553684779E+02  0.32573827244E+01 -0.47721075955E+02  0.52464015859E+02  0.00000000000E+00 0. -1.
         22    1    3    3    0    0  0.42947585674E+01 -0.19994400872E+02  0.74984371766E+02  0.77723079111E+02  0.00000000000E+00 0. -1.
</event>
<event>
 7    1  0.5970484E-006  0.5533545E+02  0.7818608E-02  0.1506792E+00
          2   -1    0    0  502    0  0.00000000000E+00  0.00000000000E+00  0.66299169841E+03  0.66299169841E+03  0.00000000000E+00 0. -1.
          1   -1    0    0  501    0 -0.00000000000E+00 -0.00000000000E+00 -0.19373784072E+03  0.19373784072E+03  0.00000000000E+00 0. -1.
         25    2    1    2    0    0  0.54057091658E+00  0.57653945078E+02 -0.10213330369E+03  0.17140659056E+03  0.12499895186E+03 0.  0.
          2    1    1    2  501    0 -0.28404986547E+02 -0.48940628483E+02 -0.42482972160E+02  0.70758966221E+02  0.00000000000E+00 0. -1.
          1    1    1    2  502    0  0.27864415631E+02 -0.87133165947E+01  0.61387013354E+03  0.61456398235E+03  0.00000000000E+00 0. -1.
         22    1    3    3    0    0  0.10922056555E+02 -0.22760848049E+01 -0.10956511114E+03  0.11013167328E+03  0.00000000000E+00 0.  1.
         22    1    3    3    0    0 -0.10381485638E+02  0.59930029883E+02  0.74318074474E+01  0.61274917280E+02  0.00000000000E+00 0.  1.
</event>
<event>
 7    1  0.5970484E-006  0.1406267E+03  0.7818608E-02  0.1424999E+00
          2   -1    0    0  502    0  0.00000000000E+00  0.00000000000E+00  0.38830325751E+04  0.38830325751E+04  0.00000000000E+00 0. -1.
          1   -1    0    0  501    0 -0.00000000000E+00 -0.00000000000E+00 -0.25599868413E+03  0.25599868413E+03  0.00000000000E+00 0. -1.
         25    2    1    2    0    0 -0.10094891626E+03  0.77986650979E+02  0.32048408188E+03  0.36688589878E+03  0.12499045786E+03 0.  0.
          2    1    1    2  501    0 -0.20144797749E+02 -0.48408293917E+01 -0.23092013017E+03  0.23184769359E+03  0.00000000000E+00 0. -1.
          1    1    1    2  502    0  0.12109371401E+03 -0.73145821588E+02  0.35374699392E+04  0.35402976668E+04  0.00000000000E+00 0. -1.
         22    1    3    3    0    0 -0.26979149266E+02 -0.29089666433E+02  0.34088080973E+02  0.52307556363E+02  0.00000000000E+00 0.  1.
         22    1    3    3    0    0 -0.73969766998E+02  0.10707631741E+03  0.28639600091E+03  0.31457834242E+03  0.00000000000E+00 0.  1.
</event>
<event>
 7    1  0.5970484E-006  0.9199257E+02  0.7818608E-02  0.1418084E+00
          2   -1    0    0  502    0  0.00000000000E+00  0.00000000000E+00  0.14754335004E+04  0.14754335004E+04  0.00000000000E+00 0. -1.
          1   -1    0    0  501    0 -0.00000000000E+00 -0.00000000000E+00 -0.22566519617E+03  0.22566519617E+03  0.00000000000E+00 0. -1.
         25    2    1    2    0    0  0.55813511937E+02  0.10476882881E+03 -0.82428068261E+02  0.19107888734E+03  0.12500039657E+03 0.  0.
          2    1    1    2  501    0  0.17462225572E+01 -0.33351610323E+02 -0.84238874953E+02  0.90617698369E+02  0.00000000000E+00 0. -1.
          1    1    1    2  502    0 -0.57559734494E+02 -0.71417218491E+02  0.14164352475E+04  0.14194021109E+04  0.00000000000E+00 0. -1.
         22    1    3    3    0    0 -0.31677921075E+02  0.63843936056E+02 -0.56829661921E+02  0.91154535426E+02  0.00000000000E+00 0. -1.
         22    1    3    3    0    0  0.87491433012E+02  0.40924892759E+02 -0.25598406340E+02  0.99924351912E+02  0.00000000000E+00 0. -1.
</event>
<event>
 7    1  0.5970484E-006  0.9486319E+02  0.7818608E-02  0.1366219E+00
          2   -1    0    0  502    0  0.00000000000E+00  0.00000000000E+00  0.36109679435E+03  0.36109679435E+03  0.00000000000E+00 0. -1.
          1   -1    0    0  501    0 -0.00000000000E+00 -0.00000000000E+00 -0.28027296620E+03  0.28027296620E+03  0.00000000000E+00 0. -1.
         25    2    1    2    0    0  0.35697290395E+02 -0.10850512505E+03 -0.56056744400E+02  0.17836816210E+03  0.12500073582E+03 0.  0.
          2    1    1    2  501    0 -0.62969997464E+02  0.67707686319E+02 -0.14768130051E+03  0.17423925472E+03  0.00000000000E+00 0. -1.
          1    1    1    2  502    0  0.27272707069E+02  0.40797438729E+02  0.28456187305E+03  0.28876234372E+03  0.00000000000E+00 0. -1.
         22    1    3    3    0    0  0.13190763253E+02 -0.13218840789E+03 -0.29061052783E+02  0.13598645596E+03  0.00000000000E+00 0.  1.
         22    1    3    3    0    0  0.22506527141E+02  0.23683282839E+02 -0.26995691617E+02  0.42381706146E+02  0.00000000000E+00 0.  1.
</event>
<event>
 7    1  0.5970484E-006  0.1630796E+03  0.7818608E-02  0.1299922E+00
          2   -1    0    0  502    0  0.00000000000E+00  0.00000000000E+00  0.64307433048E+03  0.64307433048E+03  0.00000000000E+00 0. -1.
          1   -1    0    0  501    0 -0.00000000000E+00 -0.00000000000E+00 -0.21814163827E+03  0.21814163827E+03  0.00000000000E+00 0. -1.
         25    2    1    2    0    0  0.85124342228E+02  0.12450190573E+03 -0.55464700139E+02  0.20358715119E+03  0.12499806798E+03 0.  0.
          2    1    1    2  501    0 -0.62755729442E+02 -0.17036324881E+03  0.72090085788E+01  0.18169724249E+03  0.00000000000E+00 0. -1.
          1    1    1    2  502    0 -0.22368612785E+02  0.45861343076E+02  0.47318838376E+03  0.47593157508E+03  0.00000000000E+00 0. -1.
         22    1    3    3    0    0  0.74471093664E+02  0.14042468259E+03 -0.16043658382E+02  0.15975742314E+03  0.00000000000E+00 0.  1.
         22    1    3    3    0    0  0.10653248563E+02 -0.15922776863E+02 -0.39421041757E+02  0.43829728053E+02  0.00000000000E+00 0.  1.
</event>
<event>
 7    1  0.5970484E-006  0.6421561E+02  0.7818608E-02  0.1406952E+00
          2   -1    0    0  502    0  0.00000000000E+00  0.00000000000E+00  0.14819465804E+04  0.14819465804E+04  0.00000000000E+00 0. -1.
          1   -1    0    0  501    0 -0.00000000000E+00 -0.00000000000E+00 -0.35380492911E+03  0.35380492911E+03  0.00000000000E+00 0. -1.
         25    2    1    2    0    0  0.17986490874E+01  0.40749016047E+02  0.50258606793E+03  0.51950188510E+03  0.12500294196E+03 0.  0.
          2    1    1    2  501    0  0.50367338419E+02 -0.40214855753E+02 -0.34163072507E+03  0.34765738265E+03  0.00000000000E+00 0. -1.
          1    1    1    2  502    0 -0.52165987506E+02 -0.53416029428E+00  0.96718630845E+03  0.96859224178E+03  0.00000000000E+00 0. -1.
         22    1    3    3    0    0 -0.25402583159E+02  0.74142370418E+02  0.40952994961E+03  0.41696182314E+03  0.00000000000E+00 0. -1.
         22    1    3    3    0    0  0.27201232246E+02 -0.33393354370E+02  0.93056118316E+02  0.10254006197E+03  0.00000000000E+00 0. -1.
</event>
<event>
 7    1  0.5970484E-006  0.5943877E+02  0.7818608E-02  0.1489296E+00
          2   -1    0    0  502    0  0.00000000000E+00  0.00000000000E+00  0.49647454666E+03  0.49647454666E+03  0.00000000000E+00 0. -1.
          1   -1    0    0  501    0 -0.00000000000E+00 -0.00000000000E+00 -0.17563014449E+03  0.17563014449E+03  0.00000000000E+00 0. -1.
         25    2    1    2    0    0  0.56693077339E+02 -0.32253593486E+01  0.12065307812E+03  0.18277409723E+03  0.12499878958E+03 0.  0.
          2    1    1    2  501    0 -0.29516701347E+01  0.30519130062E+02 -0.14026635801E+03  0.14357848323E+03  0.00000000000E+00 0. -1.
          1    1    1    2  502    0 -0.53741407205E+02 -0.27293770714E+02  0.34045768206E+03  0.34575211069E+03  0.00000000000E+00 0. -1.
         22    1    3    3    0    0  0.68306966202E+01  0.30297945170E+01  0.13121115468E+03  0.13142376187E+03  0.00000000000E+00 0.  1.
         22    1    3    3    0    0  0.49862380719E+02 -0.62551538657E+01 -0.10558076558E+02  0.51350335359E+02  0.00000000000E+00 0.  1.
</event>
<event>
 7    1  0.5970484E-006  0.1303756E+03  0.7818608E-02  0.1425654E+00
          2   -1    0    0  502    0  0.00000000000E+00  0.00000000000E+00  0.14137712948E+03  0.14137712948E+03  0.00000000000E+00 0. -1.
          1   -1    0    0  501    0 -0.00000000000E+00 -0.00000000000E+00 -0.10360390123E+04  0.10360390123E+04  0.00000000000E+00 0. -1.
         25    2    1    2    0    0  0.14655542480E+02  0.14008250519E+03 -0.65795087858E+03  0.68436973126E+03  0.12499870903E+03 0.  0.
          2    1    1    2  501    0 -0.19730375480E+02 -0.10253854522E+02 -0.33148224517E+03  0.33222719351E+03  0.00000000000E+00 0. -1.
          1    1    1    2  502    0  0.50748330002E+01 -0.12982865067E+03  0.94771240897E+02  0.16081921703E+03  0.00000000000E+00 0. -1.
         22    1    3    3    0    0  0.32512813285E+02  0.63881662563E+02 -0.11292782167E+03  0.13375590733E+03  0.00000000000E+00 0.  1.
         22    1    3    3    0    0 -0.17857270805E+02  0.76200842624E+02 -0.54502305691E+03  0.55061382393E+03  0.00000000000E+00 0.  1.
</event>
<event>
 7    1  0.6158385E-006  0.6452734E+02  0.7818608E-02  0.1499742E+00
          2   -1    0    0  502    0  0.00000000000E+00  0.00000000000E+00  0.71434103702E+03  0.71434103702E+03  0.00000000000E+00 0. -1.
          1   -1    0    0  501    0 -0.00000000000E+00 -0.00000000000E+00 -0.88624880097E+03  0.88624880097E+03  0.00000000000E+00 0. -1.
         25    2    1    2    0    0 -0.10968696330E+02  0.42282486351E+02 -0.40562866177E+03  0.42669435614E+03  0.12500136543E+03 0.  0.
          2    1    1    2  501    0 -0.23019955513E+02  0.12663318327E+02 -0.46823550848E+03  0.46897203476E+03  0.00000000000E+00 0. -1.
          1    1    1    2  502    0  0.33988651843E+02 -0.54945804678E+02  0.70195640631E+03  0.70492344709E+03  0.00000000000E+00 0. -1.
         22    1    3    3    0    0  0.63751007936E+01  0.78327059169E+02 -0.16494130091E+03  0.18270578221E+03  0.00000000000E+00 0. -1.
         22    1    3    3    0    0 -0.17343797123E+02 -0.36044572818E+02 -0.24068736086E+03  0.24398857392E+03  0.00000000000E+00 0. -1.
</event>
<event>
 7    1  0.5970484E-006  0.4786046E+02  0.7818608E-02  0.1500657E+00
          2   -1    0    0  502    0  0.00000000000E+00  0.00000000000E+00  0.82020128246E+03  0.82020128246E+03  0.00000000000E+00 0. -1.
          1   -1    0    0  501    0 -0.00000000000E+00 -0.00000000000E+00 -0.13860468933E+03  0.13860468933E+03  0.00000000000E+00 0. -1.
         25    2    1    2    0    0 -0.12412409753E+02 -0.10535057393E+02  0.36522897806E+03  0.38637075630E+03  0.12500039822E+03 0.  0.
          2    1    1    2  501    0  0.15963025785E+02  0.45556220033E+02 -0.12275438136E+03  0.13190460765E+03  0.00000000000E+00 0. -1.
          1    1    1    2  502    0 -0.35506160315E+01 -0.35021162640E+02  0.43912199643E+03  0.44053060785E+03  0.00000000000E+00 0. -1.
         22    1    3    3    0    0  0.26282720159E+01  0.12252863391E+02 -0.61709185805E+01  0.13968561529E+02  0.00000000000E+00 0.  1.
         22    1    3    3    0    0 -0.15040681769E+02 -0.22787920784E+02  0.37139989665E+03  0.37240219477E+03  0.00000000000E+00 0.  1.
</event>
<event>
 7    1  0.5970484E-006  0.1372644E+03  0.7818608E-02  0.1347314E+00
          2   -1    0    0  502    0  0.00000000000E+00  0.00000000000E+00  0.12660297004E+04  0.12660297004E+04  0.00000000000E+00 0. -1.
          1   -1    0    0  501    0 -0.00000000000E+00 -0.00000000000E+00 -0.15855929745E+03  0.15855929745E+03  0.00000000000E+00 0. -1.
         25    2    1    2    0    0 -0.67875479230E+02  0.12099989446E+03  0.53250142663E+03  0.56429704677E+03  0.12500132998E+03 0.  0.
          2    1    1    2  501    0  0.30316188572E+02 -0.13412055342E+03 -0.10881510790E+03  0.17535142385E+03  0.00000000000E+00 0. -1.
          1    1    1    2  502    0  0.37559290658E+02  0.13120658955E+02  0.68378408418E+03  0.68494052718E+03  0.00000000000E+00 0. -1.
         22    1    3    3    0    0  0.17820431747E+02  0.12261588108E+02  0.23684004656E+03  0.23782582279E+03  0.00000000000E+00 0.  1.
         22    1    3    3    0    0 -0.85695910977E+02  0.10873830635E+03  0.29566138007E+03  0.32647122399E+03  0.00000000000E+00 0.  1.
</event>
<event>
 7    1  0.5970484E-006  0.1022504E+03  0.7818608E-02  0.1422751E+00
          2   -1    0    0  502    0  0.00000000000E+00  0.00000000000E+00  0.41133043568E+03  0.41133043568E+03  0.00000000000E+00 0. -1.
          1   -1    0    0  501    0 -0.00000000000E+00 -0.00000000000E+00 -0.18212800947E+04  0.18212800947E+04  0.00000000000E+00 0. -1.
         25    2    1    2    0    0 -0.12157862429E+03 -0.31137117319E+02 -0.23397365023E+03  0.29345879537E+03  0.12499405432E+03 0.  0.
          2    1    1    2  501    0  0.20444886223E+02  0.20550388586E+02 -0.15506516030E+04  0.15509225338E+04  0.00000000000E+00 0. -1.
          1    1    1    2  502    0  0.10113373807E+03  0.10586728733E+02  0.37467559422E+03  0.38822920125E+03  0.00000000000E+00 0. -1.
         22    1    3    3    0    0  0.17082625276E+02 -0.31039058672E+02 -0.27988277440E+02  0.45150669138E+02  0.00000000000E+00 0. -1.
         22    1    3    3    0    0 -0.13866124957E+03 -0.98058646734E-01 -0.20598537279E+03  0.24830812623E+03  0.00000000000E+00 0. -1.
</event>
<event>
 7    1  0.5970484E-006  0.7850846E+02  0.7818608E-02  0.1370601E+00
          2   -1    0    0  502    0  0.00000000000E+00  0.00000000000E+00  0.17384843520E+04  0.17384843520E+04  0.00000000000E+00 0. -1.
          1   -1    0    0  501    0 -0.00000000000E+00 -0.00000000000E+00 -0.23832237099E+03  0.23832237099E+03  0.00000000000E+00 0. -1.
         25    2    1    2    0    0 -0.29670092122E+02  0.49216577175E+02  0.80221449613E+02  0.15924548715E+03  0.12498423246E+03 0.  0.
          2    1    1    2  501    0  0.78644603697E+02 -0.19704149984E+02 -0.19001595864E+03  0.20658967001E+03  0.00000000000E+00 0. -1.
          1    1    1    2  502    0 -0.48974511575E+02 -0.29512427190E+02  0.16099564901E+04  0.16109715659E+04  0.00000000000E+00 0. -1.
         22    1    3    3    0    0 -0.76556935161E+02  0.33152164811E+02  0.69391288323E+02  0.10851350721E+03  0.00000000000E+00 0.  1.
         22    1    3    3    0    0  0.46886843039E+02  0.16064412363E+02  0.10830161290E+02  0.50731979937E+02  0.00000000000E+00 0.  1.
</event>
<event>
 7    1  0.5970484E-006  0.1098572E+03  0.7818608E-02  0.1348930E+00
          2   -1    0    0  502    0  0.00000000000E+00  0.00000000000E+00  0.80847732520E+03  0.80847732520E+03  0.00000000000E+00 0. -1.
          1   -1    0    0  501    0 -0.00000000000E+00 -0.00000000000E+00 -0.18227187436E+04  0.18227187436E+04  0.00000000000E+00 0. -1.
         25    2    1    2    0    0 -0.13314828980E+03  0.52215051460E+02  0.46900156855E+02  0.19565172633E+03  0.12500037851E+03 0.  0.
          2    1    1    2  501    0  0.25386723356E+02 -0.41943999678E+02 -0.17437332958E+04  0.17444224236E+04  0.00000000000E+00 0. -1.
          1    1    1    2  502    0  0.10776156644E+03 -0.10271051782E+02  0.68259172061E+03  0.69112191888E+03  0.00000000000E+00 0. -1.
         22    1    3    3    0    0 -0.15491983962E+03  0.53648107082E+02  0.27065580398E+02  0.16616504369E+03  0.00000000000E+00 0.  1.
         22    1    3    3    0    0  0.21771549822E+02 -0.14330556223E+01  0.19834576457E+02  0.29486682643E+02  0.00000000000E+00 0.  1.
</event>
<event>
 7    1  0.5970484E-006  0.9531170E+02  0.7818608E-02  0.1306334E+00
          2   -1    0    0  502    0  0.00000000000E+00  0.00000000000E+00  0.18938495617E+04  0.18938495617E+04  0.00000000000E+00 0. -1.
          1   -1    0    0  501    0 -0.00000000000E+00 -0.00000000000E+00 -0.99610597717E+02  0.99610597717E+02  0.00000000000E+00 0. -1.
         25    2    1    2    0    0  0.50050574456E+02  0.10332490441E+03  0.18087810704E+03  0.24803756538E+03  0.12499859341E+03 0.  0.
          2    1    1    2  501    0 -0.91325111347E+02 -0.32101658090E+02 -0.28958484563E+02  0.10104150753E+03  0.00000000000E+00 0. -1.
          1    1    1    2  502    0  0.41274536892E+02 -0.71223246323E+02  0.16423193415E+04  0.16443810866E+04  0.00000000000E+00 0. -1.
         22    1    3    3    0    0  0.66417401362E+02  0.10350074341E+02  0.11400913677E+03  0.13234983381E+03  0.00000000000E+00 0.  1.
         22    1    3    3    0    0 -0.16366826906E+02  0.92974830072E+02  0.66868970274E+02  0.11568773157E+03  0.00000000000E+00 0.  1.
</event>
<event>
 7    1  0.5970484E-006  0.6793599E+02  0.7818608E-02  0.1372938E+00
          2   -1    0    0  502    0  0.00000000000E+00  0.00000000000E+00  0.49478187870E+03  0.49478187870E+03  0.00000000000E+00 0. -1.
          1   -1    0    0  501    0 -0.00000000000E+00 -0.00000000000E+00 -0.12479948542E+04  0.12479948542E+04  0.00000000000E+00 0. -1.
         25    2    1    2    0    0  0.11453113104E+03  0.10318836190E+02 -0.22966459362E+03  0.28564782536E+03  0.12499998485E+03 0.  0.
          2    1    1    2  501    0 -0.58601648669E+02  0.27691986533E+02 -0.98682078812E+03  0.98894704975E+03  0.00000000000E+00 0. -1.
          1    1    1    2  502    0 -0.55929482372E+02 -0.38010822723E+02  0.46327240620E+03  0.46818185782E+03  0.00000000000E+00 0. -1.
         22    1    3    3    0    0 -0.79824279425E+01  0.40035096857E+02 -0.35241698463E+02  0.53930561343E+02  0.00000000000E+00 0.  1.
         22    1    3    3    0    0  0.12251355898E+03 -0.29716260667E+02 -0.19442289515E+03  0.23171726402E+03  0.00000000000E+00 0.  1.
</event>
<event>
 7    1  0.5970484E-006  0.1796879E+03  0.7818608E-02  0.1217674E+00
          2   -1    0    0  502    0  0.00000000000E+00  0.00000000000E+00  0.23773210161E+04  0.23773210161E+04  0.00000000000E+00 0. -1.
          1   -1    0    0  501    0 -0.00000000000E+00 -0.00000000000E+00 -0.51494792299E+03  0.51494792299E+03  0.00000000000E+00 0. -1.
         25    2    1    2    0    0  0.23051519813E+03  0.13872489172E+03  0.79687851938E+02  0.30718861004E+03  0.12503134103E+03 0.  0.
          2    1    1    2  501    0 -0.15985208091E+03 -0.62174932134E+02 -0.38155552233E+03  0.41833363070E+03  0.00000000000E+00 0. -1.
          1    1    1    2  502    0 -0.70663117224E+02 -0.76549959583E+02  0.21642407635E+04  0.21667466984E+04  0.00000000000E+00 0. -1.
         22    1    3    3    0    0  0.20376121971E+03  0.12695811304E+03  0.11087795521E+03  0.26444454631E+03  0.00000000000E+00 0.  1.
         22    1    3    3    0    0  0.26753978425E+02  0.11766778679E+02 -0.31190103269E+02  0.42744063727E+02  0.00000000000E+00 0.  1.
</event>
<event>
 7    1  0.5970484E-006  0.1661767E+03  0.7818608E-02  0.1215216E+00
          2   -1    0    0  502    0  0.00000000000E+00  0.00000000000E+00  0.27920726988E+04  0.27920726988E+04  0.00000000000E+00 0. -1.
          1   -1    0    0  501    0 -0.00000000000E+00 -0.00000000000E+00 -0.45725883020E+03  0.45725883020E+03  0.00000000000E+00 0. -1.
         25    2    1    2    0    0  0.16844058345E+03 -0.30452836059E+02  0.12221275616E+04  0.12403710936E+04  0.12500027047E+03 0.  0.
          2    1    1    2  501    0 -0.14464977298E+03 -0.82684134544E+02 -0.43041310371E+03  0.46153619877E+03  0.00000000000E+00 0. -1.
          1    1    1    2  502    0 -0.23790810475E+02  0.11313697060E+03  0.15430994107E+04  0.15474242367E+04  0.00000000000E+00 0. -1.
         22    1    3    3    0    0  0.11859167954E+03 -0.23129131068E+02  0.11199265629E+04  0.11264255188E+04  0.00000000000E+00 0.  1.
         22    1    3    3    0    0  0.49848903913E+02 -0.73237049908E+01  0.10220099876E+03  0.11394557483E+03  0.00000000000E+00 0.  1.
</event>
<event>
 7    1  0.5970484E-006  0.1013892E+03  0.7818608E-02  0.1312683E+00
          2   -1    0    0  502    0  0.00000000000E+00  0.00000000000E+00  0.37716135326E+03  0.37716135326E+03  0.00000000000E+00 0. -1.
          1   -1    0    0  501    0 -0.00000000000E+00 -0.00000000000E+00 -0.53180482020E+03  0.53180482020E+03  0.00000000000E+00 0. -1.
         25    2    1    2    0    0 -0.15863352942E+03 -0.11516513111E+02 -0.28792516908E+03  0.35188554058E+03  0.12500121580E+03 0.  0.
          2    1    1    2  501    0  0.62073768800E+02  0.38509259604E+02 -0.19795463954E+03  0.21100273734E+03  0.00000000000E+00 0. -1.
          1    1    1    2  502    0  0.96559760620E+02 -0.26992746493E+02  0.33123634168E+03  0.34607789554E+03  0.00000000000E+00 0. -1.
         22    1    3    3    0    0 -0.81635735369E+01  0.65611512455E+01 -0.13904709701E+03  0.13944098331E+03  0.00000000000E+00 0.  1.
         22    1    3    3    0    0 -0.15046995588E+03 -0.18077664356E+02 -0.14887807207E+03  0.21244455727E+03  0.00000000000E+00 0.  1.
</event>
<event>
 7    1  0.5970484E-006  0.9472001E+02  0.7818608E-02  0.1419766E+00
          2   -1    0    0  502    0  0.00000000000E+00  0.00000000000E+00  0.18624527256E+04  0.18624527256E+04  0.00000000000E+00 0. -1.
          1   -1    0    0  501    0 -0.00000000000E+00 -0.00000000000E+00 -0.52289124534E+03  0.52289124534E+03  0.00000000000E+00 0. -1.
         25    2    1    2    0    0  0.45411097688E+00 -0.69546556629E+02  0.31023865802E+03  0.34162373370E+03  0.12498728232E+03 0.  0.
          2    1    1    2  501    0 -0.18604647469E+02 -0.26058068433E+02 -0.50515058909E+03  0.50616427521E+03  0.00000000000E+00 0. -1.
          1    1    1    2  502    0  0.18150536492E+02  0.95604625062E+02  0.15344734113E+04  0.15375559620E+04  0.00000000000E+00 0. -1.
         22    1    3    3    0    0  0.44572585893E+02  0.13812507418E+02  0.76975447129E+02  0.90015111149E+02  0.00000000000E+00 0. -1.
         22    1    3    3    0    0 -0.44118474916E+02 -0.83359064047E+02  0.23326321089E+03  0.25160862255E+03  0.00000000000E+00 0. -1.
</event>
<event>
 7    1  0.5970484E-006  0.1073755E+03  0.7818608E-02  0.1272697E+00
          2   -1    0    0  502    0  0.00000000000E+00  0.00000000000E+00  0.87673557305E+03  0.87673557305E+03  0.00000000000E+00 0. -1.
          1   -1    0    0  501    0 -0.00000000000E+00 -0.00000000000E+00 -0.27827815808E+04  0.27827815808E+04  0.00000000000E+00 0. -1.
         25    2    1    2    0    0  0.14284131275E+03 -0.31554565242E+02 -0.12617362488E+03  0.23009652740E+03  0.12500118835E+03 0.  0.
          2    1    1    2  501    0 -0.60561099476E+02  0.88661267139E+02 -0.26004939984E+04  0.26027096462E+04  0.00000000000E+00 0. -1.
          1    1    1    2  502    0 -0.82280213271E+02 -0.57106701897E+02  0.82062161553E+03  0.82671098019E+03  0.00000000000E+00 0. -1.
         22    1    3    3    0    0 -0.20568096365E+02 -0.58501814112E+01 -0.35535950024E+02  0.41473786356E+02  0.00000000000E+00 0. -1.
         22    1    3    3    0    0  0.16340940911E+03 -0.25704383831E+02 -0.90637674859E+02  0.18862274104E+03  0.00000000000E+00 0. -1.
</event>
<event>
 7    1  0.5970484E-006  0.4940359E+02  0.7818608E-02  0.1451623E+00
          2   -1    0    0  502    0  0.00000000000E+00  0.00000000000E+00  0.57612980390E+03  0.57612980390E+03  0.00000000000E+00 0. -1.
          1   -1    0    0  501    0 -0.00000000000E+00 -0.00000000000E+00 -0.12861285611E+04  0.12861285611E+04  0.00000000000E+00 0. -1.
         25    2    1    2    0    0  0.29908069848E+02 -0.70895300840E+02 -0.40361488608E+03  0.42947735500E+03  0.12500074349E+03 0.  0.
          2    1    1    2  501    0  0.13028795707E+02  0.46520233705E+02 -0.86782724710E+03  0.86917087645E+03  0.00000000000E+00 0. -1.
          1    1    1    2  502    0 -0.42936865555E+02  0.24375067136E+02  0.56144337593E+03  0.56361013360E+03  0.00000000000E+00 0. -1.
         22    1    3    3    0    0  0.42699400396E+02 -0.99215689484E+02 -0.24360285892E+03  0.26647578634E+03  0.00000000000E+00 0.  1.
         22    1    3    3    0    0 -0.12791330548E+02  0.28320388644E+02 -0.16001202716E+03  0.16300156866E+03  0.00000000000E+00 0.  1.
</event>
<event>
 7    1  0.5970484E-006  0.7382466E+02  0.7818608E-02  0.1419880E+00
          2   -1    0    0  502    0  0.00000000000E+00  0.00000000000E+00  0.18394074316E+04  0.18394074316E+04  0.00000000000E+00 0. -1.
          1   -1    0    0  501    0 -0.00000000000E+00 -0.00000000000E+00 -0.14635465343E+03  0.14635465343E+03  0.00000000000E+00 0. -1.
         25    2    1    2    0    0 -0.69263625819E+02 -0.19178071149E+02  0.30813813861E+02  0.14744484794E+03  0.12500097513E+03 0.  0.
          2    1    1    2  501    0  0.19861505597E+02 -0.35919120445E+02 -0.82427923874E+02  0.92081622772E+02  0.00000000000E+00 0. -1.
          1    1    1    2  502    0  0.49402120222E+02  0.55097191594E+02  0.17446668882E+04  0.17462356143E+04  0.00000000000E+00 0. -1.
         22    1    3    3    0    0 -0.90106145980E+02  0.19485736026E+02  0.43198768570E+02  0.10180837420E+03  0.00000000000E+00 0. -1.
         22    1    3    3    0    0  0.20842520160E+02 -0.38663807175E+02 -0.12384954710E+02  0.45636473736E+02  0.00000000000E+00 0. -1.
</event>
<event>
 7    1  0.5970484E-006  0.1059309E+03  0.7818608E-02  0.1273754E+00
          2   -1    0    0  502    0  0.00000000000E+00  0.00000000000E+00  0.23525643123E+03  0.23525643123E+03  0.00000000000E+00 0. -1.
          1   -1    0    0  501    0 -0.00000000000E+00 -0.00000000000E+00 -0.41910542071E+03  0.41910542071E+03  0.00000000000E+00 0. -1.
         25    2    1    2    0    0 -0.60418129371E+02  0.18134111835E+01 -0.13679132312E+02  0.13951810029E+03  0.12499817131E+03 0.  0.
          2    1    1    2  501    0 -0.22213168031E+02 -0.98008364771E+02 -0.31011371113E+03  0.32599015051E+03  0.00000000000E+00 0. -1.
          1    1    1    2  502    0  0.82631297402E+02  0.96194953587E+02  0.13994385395E+03  0.18885360114E+03  0.00000000000E+00 0. -1.
         22    1    3    3    0    0  0.95082351020E+01 -0.29666662218E+02  0.36413469220E+02  0.47921374380E+02  0.00000000000E+00 0.  1.
         22    1    3    3    0    0 -0.69926364473E+02  0.31480073401E+02 -0.50092601531E+02  0.91596725913E+02  0.00000000000E+00 0.  1.
</event>
<event>
 7    1  0.5970484E-006  0.3553881E+02  0.7818608E-02  0.1566580E+00
          2   -1    0    0  502    0  0.00000000000E+00  0.00000000000E+00  0.17951008590E+04  0.17951008590E+04  0.00000000000E+00 0. -1.
          1   -1    0    0  501    0 -0.00000000000E+00 -0.00000000000E+00 -0.47508039987E+02  0.47508039987E+02  0.00000000000E+00 0. -1.
         25    2    1    2    0    0  0.24848330621E+02 -0.14425243947E+02  0.10468094476E+03  0.16555422016E+03  0.12499828967E+03 0.  0.
          2    1    1    2  501    0 -0.50201950279E+01  0.37922680113E+02  0.46850287125E+01  0.38539350268E+02  0.00000000000E+00 0. -1.
          1    1    1    2  502    0 -0.19828135593E+02 -0.23497436166E+02  0.16382268455E+04  0.16385153286E+04  0.00000000000E+00 0. -1.
         22    1    3    3    0    0 -0.11656328316E+02 -0.48902659615E+02  0.91861287761E+00  0.50281049679E+02  0.00000000000E+00 0.  1.
         22    1    3    3    0    0  0.36504658937E+02  0.34477415668E+02  0.10376233188E+03  0.11527317048E+03  0.00000000000E+00 0.  1.
</event>
<event>
 7    1  0.5970484E-006  0.7879898E+02  0.7818608E-02  0.1397176E+00
          2   -1    0    0  502    0  0.00000000000E+00  0.00000000000E+00  0.20923861407E+03  0.20923861407E+03  0.00000000000E+00 0. -1.
          1   -1    0    0  501    0 -0.00000000000E+00 -0.00000000000E+00 -0.17085500898E+04  0.17085500898E+04  0.00000000000E+00 0. -1.
         25    2    1    2    0    0  0.63584964129E+01 -0.50896485034E+02 -0.62142838792E+02  0.14871886258E+03  0.12499874003E+03 0.  0.
          2    1    1    2  501    0  0.34577279277E+02  0.71712883367E+02 -0.15989325111E+04  0.16009133333E+04  0.00000000000E+00 0. -1.
          1    1    1    2  502    0 -0.40935775690E+02 -0.20816398333E+02  0.16176387417E+03  0.16815650793E+03  0.00000000000E+00 0. -1.
         22    1    3    3    0    0 -0.22001333743E+02  0.18777444871E+02 -0.67365947451E+02  0.73313177522E+02  0.00000000000E+00 0.  1.
         22    1    3    3    0    0  0.28359830156E+02 -0.69673929905E+02  0.52231086591E+01  0.75405685057E+02  0.00000000000E+00 0.  1.
</event>
<event>
 7    1  0.5970484E-006  0.8369961E+02  0.7818608E-02  0.1460341E+00
          2   -1    0    0  502    0  0.00000000000E+00  0.00000000000E+00  0.11440737697E+04  0.11440737697E+04  0.00000000000E+00 0. -1.
          1   -1    0    0  501    0 -0.00000000000E+00 -0.00000000000E+00 -0.27386343875E+04  0.27386343875E+04  0.00000000000E+00 0. -1.
         25    2    1    2    0    0 -0.36810153784E+02  0.62487701158E+02  0.18413584413E+03  0.23407168715E+03  0.12499538157E+03 0.  0.
          2    1    1    2  501    0  0.18227385086E+02 -0.81737311698E+02 -0.27128287712E+04  0.27141210672E+04  0.00000000000E+00 0. -1.
          1    1    1    2  502    0  0.18582768698E+02  0.19249610540E+02  0.93413230935E+03  0.93451540285E+03  0.00000000000E+00 0. -1.
         22    1    3    3    0    0 -0.39071265328E+01  0.84975766542E+02  0.17285435852E+03  0.19265195508E+03  0.00000000000E+00 0. -1.
         22    1    3    3    0    0 -0.32903027251E+02 -0.22488065384E+02  0.11281485609E+02  0.41419732067E+02  0.00000000000E+00 0. -1.
</event>
<event>
 7    1  0.5970484E-006  0.4859656E+02  0.7818608E-02  0.1475960E+00
          2   -1    0    0  502    0  0.00000000000E+00  0.00000000000E+00  0.51626798949E+03  0.51626798949E+03  0.00000000000E+00 0. -1.
          1   -1    0    0  501    0 -0.00000000000E+00 -0.00000000000E+00 -0.37796786103E+03  0.37796786103E+03  0.00000000000E+00 0. -1.
         25    2    1    2    0    0  0.17445993226E+02  0.58164790837E+01 -0.75108871681E+02  0.14698361100E+03  0.12499858075E+03 0.  0.
          2    1    1    2  501    0  0.22140164607E+02 -0.34736989775E+02 -0.26406972551E+03  0.26726328831E+03  0.00000000000E+00 0. -1.
          1    1    1    2  502    0 -0.39586157832E+02  0.28920510691E+02  0.47747872566E+03  0.47998895121E+03  0.00000000000E+00 0. -1.
         22    1    3    3    0    0 -0.16624597067E+02  0.58360231534E+02 -0.53011695445E+02  0.80576260190E+02  0.00000000000E+00 0. -1.
         22    1    3    3    0    0  0.34070590293E+02 -0.52543752450E+02 -0.22097176236E+02  0.66407350813E+02  0.00000000000E+00 0. -1.
</event>
<event>
 7    1  0.5970484E-006  0.3880487E+02  0.7818608E-02  0.1534482E+00
          2   -1    0    0  502    0  0.00000000000E+00  0.00000000000E+00  0.22048072310E+04  0.22048072310E+04  0.00000000000E+00 0. -1.
          1   -1    0    0  501    0 -0.00000000000E+00 -0.00000000000E+00 -0.62046214508E+02  0.62046214508E+02  0.00000000000E+00 0. -1.
         25    2    1    2    0    0 -0.25237725552E+02  0.48637155585E+02  0.69674175467E+03  0.70998279098E+03  0.12499590029E+03 0.  0.
          2    1    1    2  501    0  0.35492492164E+02 -0.15591431200E+02 -0.48422384253E+02  0.62028517826E+02  0.00000000000E+00 0. -1.
          1    1    1    2  502    0 -0.10254766613E+02 -0.33045724386E+02  0.14944416461E+04  0.14948421367E+04  0.00000000000E+00 0. -1.
         22    1    3    3    0    0 -0.16373329416E+02  0.58503889567E+02  0.13449331686E+03  0.14757792277E+03  0.00000000000E+00 0. -1.
         22    1    3    3    0    0 -0.88643961352E+01 -0.98667339816E+01  0.56224843782E+03  0.56240486821E+03  0.00000000000E+00 0. -1.
</event>
<event>
 7    1  0.5970484E-006  0.3308759E+02  0.7818608E-02  0.1586497E+00
          2   -1    0    0  502    0  0.00000000000E+00  0.00000000000E+00  0.19685659861E+04  0.19685659861E+04  0.00000000000E+00 0. -1.
          1   -1    0    0  501    0 -0.00000000000E+00 -0.00000000000E+00 -0.61953287781E+03  0.61953287781E+03  0.00000000000E+00 0. -1.
         25    2    1    2    0    0 -0.19903021544E+01  0.87002920677E+01  0.75134765355E+03  0.76172698895E+03  0.12500021121E+03 0.  0.
          2    1    1    2  501    0  0.31040917080E+02 -0.11504365563E+02 -0.61372136084E+03  0.61461353525E+03  0.00000000000E+00 0. -1.
          1    1    1    2  502    0 -0.29050614925E+02  0.28040734957E+01  0.12114068155E+04  0.12117583397E+04  0.00000000000E+00 0. -1.
         22    1    3    3    0    0 -0.15915887283E+02  0.63424196535E+02  0.49033385971E+03  0.49467488126E+03  0.00000000000E+00 0. -1.
         22    1    3    3    0    0  0.13925585129E+02 -0.54723904467E+02  0.26101379384E+03  0.26705210768E+03  0.00000000000E+00 0. -1.
</event>
<event>
 7    1  0.5970484E-006  0.7833202E+02  0.7818608E-02  0.1491724E+00
          2   -1    0    0  502    0  0.00000000000E+00  0.00000000000E+00  0.81591509310E+03  0.81591509310E+03  0.00000000000E+00 0. -1.
          1   -1    0    0  501    0 -0.00000000000E+00 -0.00000000000E+00 -0.23074608279E+03  0.23074608279E+03  0.00000000000E+00 0. -1.
         25    2    1    2    0    0 -0.51833672639E+02 -0.80976841995E+02 -0.33637377156E+02  0.16124416945E+03  0.12499692189E+03 0.  0.
          2    1    1    2  501    0  0.47639798107E+02  0.58488303882E+02 -0.12244290294E+03  0.14381479943E+03  0.00000000000E+00 0. -1.
          1    1    1    2  502    0  0.41938745313E+01  0.22488538113E+02  0.74124929040E+03  0.74160220702E+03  0.00000000000E+00 0. -1.
         22    1    3    3    0    0 -0.60659362165E+02  0.12866346576E+02 -0.24015842524E+02  0.66497081024E+02  0.00000000000E+00 0.  1.
         22    1    3    3    0    0  0.88256895267E+01 -0.93843188571E+02 -0.96215346326E+01  0.94747088427E+02  0.00000000000E+00 0.  1.
</event>
<event>
 7    1  0.5970484E-006  0.8975627E+02  0.7818608E-02  0.1385359E+00
          2   -1    0    0  502    0  0.00000000000E+00  0.00000000000E+00  0.16002724106E+04  0.16002724106E+04  0.00000000000E+00 0. -1.
          1   -1    0    0  501    0 -0.00000000000E+00 -0.00000000000E+00 -0.87822819475E+03  0.87822819475E+03  0.00000000000E+00 0. -1.
         25    2    1    2    0    0  0.51505972238E+02  0.11374469197E+02  0.13450221467E+03  0.19104444085E+03  0.12499955561E+03 0.  0.
          2    1    1    2  501    0  0.39956975071E+02 -0.19189842321E+02 -0.84791209020E+03  0.84906991621E+03  0.00000000000E+00 0. -1.
          1    1    1    2  502    0 -0.91462947308E+02  0.78153731237E+01  0.14354540914E+04  0.14383862483E+04  0.00000000000E+00 0. -1.
         22    1    3    3    0    0 -0.38846702032E+02  0.24868238993E+01  0.68542537173E+02  0.78824678585E+02  0.00000000000E+00 0. -1.
         22    1    3    3    0    0  0.90352674270E+02  0.88876452980E+01  0.65959677496E+02  0.11221976226E+03  0.00000000000E+00 0. -1.
</event>
<event>
 7    1  0.5970484E-006  0.7321049E+02  0.7818608E-02  0.1508334E+00
          2   -1    0    0  502    0  0.00000000000E+00  0.00000000000E+00  0.31795381198E+03  0.31795381198E+03  0.00000000000E+00 0. -1.
          1   -1    0    0  501    0 -0.00000000000E+00 -0.00000000000E+00 -0.12331913163E+03  0.12331913163E+03  0.00000000000E+00 0. -1.
         25    2    1    2    0    0 -0.55546735541E+02 -0.33853361049E+02  0.23589445123E+02  0.14287556011E+03  0.12500189547E+03 0.  0.
          2    1    1    2  501    0 -0.16190946306E+02  0.14652248613E+02 -0.55685772960E+02  0.59814216051E+02  0.00000000000E+00 0. -1.
          1    1    1    2  502    0  0.71737681847E+02  0.19201112436E+02  0.22673100819E+03  0.23858316745E+03  0.00000000000E+00 0. -1.
         22    1    3    3    0    0 -0.39645185367E+02 -0.59203940081E+02  0.61815527979E+02  0.94329246489E+02  0.00000000000E+00 0.  1.
         22    1    3    3    0    0 -0.15901550174E+02  0.25350579032E+02 -0.38226082856E+02  0.48546313616E+02  0.00000000000E+00 0.  1.
</event>
<event>
 7    1  0.5970484E-006  0.7844786E+02  0.7818608E-02  0.1379794E+00
          2   -1    0    0  502    0  0.00000000000E+00  0.00000000000E+00  0.85102989580E+03  0.85102989580E+03  0.00000000000E+00 0. -1.
          1   -1    0    0  501    0 -0.00000000000E+00 -0.00000000000E+00 -0.25616308111E+03  0.25616308111E+03  0.00000000000E+00 0. -1.
         25    2    1    2    0    0 -0.23873650180E+02 -0.71936864185E+02 -0.26977028581E+01  0.14621140213E+03  0.12500253161E+03 0.  0.
          2    1    1    2  501    0 -0.43395222326E+02  0.30535232997E+02 -0.17577973051E+03  0.18361388682E+03  0.00000000000E+00 0. -1.
          1    1    1    2  502    0  0.67268872506E+02  0.41401631188E+02  0.77334424806E+03  0.77736768796E+03  0.00000000000E+00 0. -1.
         22    1    3    3    0    0  0.29067536385E+02 -0.67891014543E+02  0.34368821534E+02  0.81457519118E+02  0.00000000000E+00 0. -1.
         22    1    3    3    0    0 -0.52941186565E+02 -0.40458496415E+01 -0.37066524392E+02  0.64753883009E+02  0.00000000000E+00 0. -1.
</event>
<event>
 7    1  0.5970484E-006  0.1620322E+03  0.7818608E-02  0.1233140E+00
          2   -1    0    0  502    0  0.00000000000E+00  0.00000000000E+00  0.13560473391E+04  0.13560473391E+04  0.00000000000E+00 0. -1.
          1   -1    0    0  501    0 -0.00000000000E+00 -0.00000000000E+00 -0.23776271636E+03  0.23776271636E+03  0.00000000000E+00 0. -1.
         25    2    1    2    0    0 -0.13626123725E+03  0.36184432303E+02  0.20748196929E+03  0.28026676437E+03  0.12499701482E+03 0.  0.
          2    1    1    2  501    0  0.27522709136E+02  0.94428586104E+02 -0.18238901585E+03  0.20721971551E+03  0.00000000000E+00 0. -1.
          1    1    1    2  502    0  0.10873852811E+03 -0.13061301841E+03  0.10931916693E+04  0.11063235756E+04  0.00000000000E+00 0. -1.
         22    1    3    3    0    0 -0.14585550952E+03  0.62671256137E+02  0.18776925407E+03  0.24588373020E+03  0.00000000000E+00 0.  1.
         22    1    3    3    0    0  0.95942722763E+01 -0.26486823834E+02  0.19712715214E+02  0.34383034165E+02  0.00000000000E+00 0.  1.
</event>
<event>
 7    1  0.5970484E-006  0.5783098E+02  0.7818608E-02  0.1515905E+00
          2   -1    0    0  502    0  0.00000000000E+00  0.00000000000E+00  0.29090857313E+04  0.29090857313E+04  0.00000000000E+00 0. -1.
          1   -1    0    0  501    0 -0.00000000000E+00 -0.00000000000E+00 -0.99580692587E+01  0.99580692587E+01  0.00000000000E+00 0. -1.
         25    2    1    2    0    0  0.81811313907E+01  0.37068308214E+02  0.25496318663E+04  0.25529764470E+04  0.12500037858E+03 0.  0.
          2    1    1    2  501    0  0.71778164091E+01 -0.58374430727E+02  0.10653842764E+03  0.12169441965E+03  0.00000000000E+00 0. -1.
          1    1    1    2  502    0 -0.15358947800E+02  0.21306122513E+02  0.24295736807E+03  0.24437293392E+03  0.00000000000E+00 0. -1.
         22    1    3    3    0    0  0.20847228630E+02  0.67672983244E+02  0.82696177734E+03  0.82998796424E+03  0.00000000000E+00 0.  1.
         22    1    3    3    0    0 -0.12666097240E+02 -0.30604675030E+02  0.17226700890E+04  0.17229884827E+04  0.00000000000E+00 0.  1.
</event>
<event>
 7    1  0.5970484E-006  0.7384748E+02  0.7818608E-02  0.1394062E+00
          2   -1    0    0  502    0  0.00000000000E+00  0.00000000000E+00  0.11839137274E+04  0.11839137274E+04  0.00000000000E+00 0. -1.
          1   -1    0    0  501    0 -0.00000000000E+00 -0.00000000000E+00 -0.10491096443E+03  0.10491096443E+03  0.00000000000E+00 0. -1.
         25    2    1    2    0    0 -0.33021002360E+02 -0.64356839263E+01  0.12316366351E+03  0.17867787488E+03  0.12499876135E+03 0.  0.
          2    1    1    2  501    0  0.78160814516E+02 -0.15608994543E+02 -0.55778262109E+02  0.97282928412E+02  0.00000000000E+00 0. -1.
          1    1    1    2  502    0 -0.45139812156E+02  0.22044678470E+02  0.10116173616E+04  0.10128638886E+04  0.00000000000E+00 0. -1.
         22    1    3    3    0    0  0.21959564880E+02 -0.41508161553E+02  0.99150948994E+01  0.47994365004E+02  0.00000000000E+00 0. -1.
         22    1    3    3    0    0 -0.54980567241E+02  0.35072477627E+02  0.11324856862E+03  0.13068350988E+03  0.00000000000E+00 0. -1.
</event>
<event>
 7    1  0.5970484E-006  0.8154037E+02  0.7818608E-02  0.1325703E+00
          2   -1    0    0  502    0  0.00000000000E+00  0.00000000000E+00  0.16421524880E+04  0.16421524880E+04  0.00000000000E+00 0. -1.
          1   -1    0    0  501    0 -0.00000000000E+00 -0.00000000000E+00 -0.13689914053E+03  0.13689914053E+03  0.00000000000E+00 0. -1.
         25    2    1    2    0    0  0.11248703264E+02 -0.18043716681E+02  0.75640422653E+02  0.14764282219E+03  0.12499928147E+03 0.  0.
          2    1    1    2  501    0 -0.67770001836E+02 -0.44080976023E+02 -0.83349749681E+02  0.11611669289E+03  0.00000000000E+00 0. -1.
          1    1    1    2  502    0  0.56521298572E+02  0.62124692704E+02  0.15129626745E+04  0.15152921135E+04  0.00000000000E+00 0. -1.
         22    1    3    3    0    0  0.24900243916E+02 -0.35857269493E+01 -0.30568052043E+02  0.39588955411E+02  0.00000000000E+00 0.  1.
         22    1    3    3    0    0 -0.13651540651E+02 -0.14457989732E+02  0.10620847470E+03  0.10805386678E+03  0.00000000000E+00 0.  1.
</event>
<event>
 7    1  0.5970484E-006  0.7726897E+02  0.7818608E-02  0.1337347E+00
          2   -1    0    0  502    0  0.00000000000E+00  0.00000000000E+00  0.15025984860E+04  0.15025984860E+04  0.00000000000E+00 0. -1.
          1   -1    0    0  501    0 -0.00000000000E+00 -0.00000000000E+00 -0.62257163229E+02  0.62257163229E+02  0.00000000000E+00 0. -1.
         25    2    1    2    0    0  0.24957480299E+02  0.27974393121E+02  0.10735204264E+03  0.16898210179E+03  0.12500018869E+03 0.  0.
          2    1    1    2  501    0 -0.65965645784E+02  0.40237138489E+02  0.19124709636E+02  0.79600554371E+02  0.00000000000E+00 0. -1.
          1    1    1    2  502    0  0.41008165484E+02 -0.68211531610E+02  0.13138645705E+04  0.13162729931E+04  0.00000000000E+00 0. -1.
         22    1    3    3    0    0  0.70556530528E+02  0.42313185030E+01  0.31583645117E+02  0.77418697324E+02  0.00000000000E+00 0. -1.
         22    1    3    3    0    0 -0.45599050229E+02  0.23743074618E+02  0.75768397519E+02  0.91563404462E+02  0.00000000000E+00 0. -1.
</event>
<event>
 7    1  0.5970484E-006  0.4977396E+02  0.7818608E-02  0.1463178E+00
          2   -1    0    0  502    0  0.00000000000E+00  0.00000000000E+00  0.80268256232E+03  0.80268256232E+03  0.00000000000E+00 0. -1.
          1   -1    0    0  501    0 -0.00000000000E+00 -0.00000000000E+00 -0.81757399614E+02  0.81757399614E+02  0.00000000000E+00 0. -1.
         25    2    1    2    0    0  0.61932845421E+02  0.55860172690E+02  0.43622466325E+02  0.15647455914E+03  0.12500132742E+03 0.  0.
          2    1    1    2  501    0 -0.42848315180E+02 -0.10333810571E+02 -0.45655012589E+01  0.44312634276E+02  0.00000000000E+00 0. -1.
          1    1    1    2  502    0 -0.19084530241E+02 -0.45526362119E+02  0.68186819764E+03  0.68365276852E+03  0.00000000000E+00 0. -1.
         22    1    3    3    0    0  0.28374178554E+01  0.69567522148E+02  0.61851541315E+02  0.93130576295E+02  0.00000000000E+00 0.  1.
         22    1    3    3    0    0  0.59095427565E+02 -0.13707349459E+02 -0.18229074990E+02  0.63343982850E+02  0.00000000000E+00 0.  1.
</event>
<event>
 7    1  0.5970484E-006  0.1759296E+03  0.7818608E-02  0.1287443E+00
          2   -1    0    0  502    0  0.00000000000E+00  0.00000000000E+00  0.19149493827E+04  0.19149493827E+04  0.00000000000E+00 0. -1.
          1   -1    0    0  501    0 -0.00000000000E+00 -0.00000000000E+00 -0.36413857129E+03  0.36413857129E+03  0.00000000000E+00 0. -1.
         25    2    1    2    0    0  0.89199698220E+02  0.13190931758E+03  0.82787440261E+03  0.85226641016E+03  0.12500141259E+03 0.  0.
          2    1    1    2  501    0 -0.13777803736E+03 -0.11040291078E+03 -0.32908751471E+03  0.37345706932E+03  0.00000000000E+00 0. -1.
          1    1    1    2  502    0  0.48578339141E+02 -0.21506406801E+02  0.10520239235E+04  0.10533644745E+04  0.00000000000E+00 0. -1.
         22    1    3    3    0    0  0.29553269984E+02  0.11880241544E+03  0.35610983166E+03  0.37656556121E+03  0.00000000000E+00 0.  1.
         22    1    3    3    0    0  0.59646428236E+02  0.13106902141E+02  0.47176457095E+03  0.47570084895E+03  0.00000000000E+00 0.  1.
</event>
<event>
 7    1  0.5970484E-006  0.6726870E+02  0.7818608E-02  0.1406836E+00
          2   -1    0    0  502    0  0.00000000000E+00  0.00000000000E+00  0.38455185506E+03  0.38455185506E+03  0.00000000000E+00 0. -1.
          1   -1    0    0  501    0 -0.00000000000E+00 -0.00000000000E+00 -0.70930322239E+03  0.70930322239E+03  0.00000000000E+00 0. -1.
         25    2    1    2    0    0  0.79312785116E+02 -0.36062866047E+02 -0.11641036789E+03  0.19174579337E+03  0.12499610926E+03 0.  0.
          2    1    1    2  501    0 -0.65910668924E+02 -0.11947985286E+02 -0.55139700520E+03  0.55545083308E+03  0.00000000000E+00 0. -1.
          1    1    1    2  502    0 -0.13402116191E+02  0.48010851334E+02  0.34305600576E+03  0.34665845100E+03  0.00000000000E+00 0. -1.
         22    1    3    3    0    0  0.12788904748E+02 -0.70527436750E+02 -0.30894046263E+02  0.78052017999E+02  0.00000000000E+00 0.  1.
         22    1    3    3    0    0  0.66523880368E+02  0.34464570703E+02 -0.85516321626E+02  0.11369377537E+03  0.00000000000E+00 0.  1.
</event>
<event>
 7    1  0.5970484E-006  0.7790742E+02  0.7818608E-02  0.1378488E+00
          2   -1    0    0  502    0  0.00000000000E+00  0.00000000000E+00  0.47087144380E+03  0.47087144380E+03  0.00000000000E+00 0. -1.
          1   -1    0    0  501    0 -0.00000000000E+00 -0.00000000000E+00 -0.27711426846E+04  0.27711426846E+04  0.00000000000E+00 0. -1.
         25    2    1    2    0    0  0.15489570596E+02 -0.94698413990E+02 -0.14092190001E+03  0.21139905955E+03  0.12499145598E+03 0.  0.
          2    1    1    2  501    0 -0.53631341825E+02  0.56469225424E+02 -0.25927216883E+04  0.25938910631E+04  0.00000000000E+00 0. -1.
          1    1    1    2  502    0  0.38141771230E+02  0.38229188566E+02  0.43337234753E+03  0.43672400572E+03  0.00000000000E+00 0. -1.
         22    1    3    3    0    0 -0.37405562433E+02 -0.60646476334E+02 -0.12900055215E+03  0.14737134609E+03  0.00000000000E+00 0.  1.
         22    1    3    3    0    0  0.52895133029E+02 -0.34051937655E+02 -0.11921347853E+02  0.64027713460E+02  0.00000000000E+00 0.  1.
</event>
<event>
 7    1  0.5970484E-006  0.1164649E+03  0.7818608E-02  0.1452369E+00
          2   -1    0    0  502    0  0.00000000000E+00  0.00000000000E+00  0.10782510919E+04  0.10782510919E+04  0.00000000000E+00 0. -1.
          1   -1    0    0  501    0 -0.00000000000E+00 -0.00000000000E+00 -0.10451852081E+04  0.10451852081E+04  0.00000000000E+00 0. -1.
         25    2    1    2    0    0  0.81489430444E+02 -0.10292006896E+03  0.13227260407E+03  0.22439508407E+03  0.12499617634E+03 0.  0.
          2    1    1    2  501    0 -0.19593971325E+02  0.56085865950E+01 -0.99532427465E+03  0.99553291842E+03  0.00000000000E+00 0. -1.
          1    1    1    2  502    0 -0.61895459119E+02  0.97311482367E+02  0.89611755436E+03  0.90350829752E+03  0.00000000000E+00 0. -1.
         22    1    3    3    0    0  0.20216611913E+02 -0.11666473345E+03  0.83528041664E+02  0.14490101853E+03  0.00000000000E+00 0. -1.
         22    1    3    3    0    0  0.61272818531E+02  0.13744664485E+02  0.48744562403E+02  0.79494065542E+02  0.00000000000E+00 0. -1.
</event>
<event>
 7    1  0.5970484E-006  0.7663500E+02  0.7818608E-02  0.1387579E+00
          2   -1    0    0  502    0  0.00000000000E+00  0.00000000000E+00  0.14054947560E+04  0.14054947560E+04  0.00000000000E+00 0. -1.
          1   -1    0    0  501    0 -0.00000000000E+00 -0.00000000000E+00 -0.39755571944E+03  0.39755571944E+03  0.00000000000E+00 0. -1.
         25    2    1    2    0    0  0.93697352540E+02  0.65920246121E+02  0.23578834023E+03  0.29042001140E+03  0.12499187539E+03 0.  0.
          2    1    1    2  501    0 -0.73774941030E+02 -0.18979730962E+02 -0.36574443191E+03  0.37359331042E+03  0.00000000000E+00 0. -1.
          1    1    1    2  502    0 -0.19922411510E+02 -0.46940515158E+02  0.11378951282E+04  0.11390371536E+04  0.00000000000E+00 0. -1.
         22    1    3    3    0    0  0.41199413333E+02  0.22745570693E+02  0.21389333360E+03  0.21900938520E+03  0.00000000000E+00 0. -1.
         22    1    3    3    0    0  0.52497939207E+02  0.43174675428E+02  0.21895006624E+02  0.71410626200E+02  0.00000000000E+00 0. -1.
</event>
<event>
 7    1  0.5970484E-006  0.5759940E+02  0.7818608E-02  0.1557745E+00
          2   -1    0    0  502    0  0.00000000000E+00  0.00000000000E+00  0.86569043023E+03  0.86569043023E+03  0.00000000000E+00 0. -1.
          1   -1    0    0  501    0 -0.00000000000E+00 -0.00000000000E+00 -0.58007042864E+02  0.58007042864E+02  0.00000000000E+00 0. -1.
         25    2    1    2    0    0  0.33568002113E+02 -0.68950075314E+02  0.14137223735E+03  0.20369720303E+03  0.12500206949E+03 0.  0.
          2    1    1    2  501    0 -0.62252166545E+01  0.19068934577E+02 -0.21752269033E+02  0.29589504835E+02  0.00000000000E+00 0. -1.
          1    1    1    2  502    0 -0.27342785459E+02  0.49881140737E+02  0.68806341904E+03  0.69041076523E+03  0.00000000000E+00 0. -1.
         22    1    3    3    0    0  0.43278718624E+02 -0.97964278802E+01 -0.58320431280E+01  0.44755225527E+02  0.00000000000E+00 0.  1.
         22    1    3    3    0    0 -0.97107165111E+01 -0.59153647434E+02  0.14720428048E+03  0.15894197750E+03  0.00000000000E+00 0.  1.
</event>
<event>
 7    1  0.5970484E-006  0.1964124E+03  0.7818608E-02  0.1265902E+00
          2   -1    0    0  502    0  0.00000000000E+00  0.00000000000E+00  0.17051429463E+04  0.17051429463E+04  0.00000000000E+00 0. -1.
          1   -1    0    0  501    0 -0.00000000000E+00 -0.00000000000E+00 -0.16800553503E+03  0.16800553503E+03  0.00000000000E+00 0. -1.
         25    2    1    2    0    0  0.16525415130E+03  0.74537897760E+02  0.14806760759E+03  0.26535638858E+03  0.12500065526E+03 0.  0.
          2    1    1    2  501    0 -0.15750751468E+03 -0.13249860716E+03 -0.11362210510E+02  0.20613975334E+03  0.00000000000E+00 0. -1.
          1    1    1    2  502    0 -0.77466366222E+01  0.57960709400E+02  0.14004320142E+04  0.14016523394E+04  0.00000000000E+00 0. -1.
         22    1    3    3    0    0  0.16471789621E+03  0.69884657369E+02  0.78099405687E+02  0.19523157490E+03  0.00000000000E+00 0.  1.
         22    1    3    3    0    0  0.53625508998E+00  0.46532403910E+01  0.69968201907E+02  0.70124813680E+02  0.00000000000E+00 0.  1.
</event>
<event>
 7    1  0.5970484E-006  0.5281514E+02  0.7818608E-02  0.1541746E+00
          2   -1    0    0  502    0  0.00000000000E+00  0.00000000000E+00  0.30872021680E+03  0.30872021680E+03  0.00000000000E+00 0. -1.
          1   -1    0    0  501    0 -0.00000000000E+00 -0.00000000000E+00 -0.22118342418E+03  0.22118342418E+03  0.00000000000E+00 0. -1.
         25    2    1    2    0    0  0.35732922052E+02 -0.78877127104E+01 -0.94055049354E+02  0.16065624234E+03  0.12500007265E+03 0.  0.
          2    1    1    2  501    0  0.16555024357E+02  0.17712849094E+02 -0.89632780797E+02  0.92853913476E+02  0.00000000000E+00 0. -1.
          1    1    1    2  502    0 -0.52287946409E+02 -0.98251363836E+01  0.27122462277E+03  0.27639348517E+03  0.00000000000E+00 0. -1.
         22    1    3    3    0    0 -0.11566371037E+01  0.50451027004E+02 -0.92381549128E+01  0.51302898957E+02  0.00000000000E+00 0.  1.
         22    1    3    3    0    0  0.36889559155E+02 -0.58338739715E+02 -0.84816894442E+02  0.10935334338E+03  0.00000000000E+00 0.  1.
</event>
<event>
 7    1  0.5970484E-006  0.2384770E+03  0.7818608E-02  0.1271334E+00
          2   -1    0    0  502    0  0.00000000000E+00  0.00000000000E+00  0.41119053668E+03  0.41119053668E+03  0.00000000000E+00 0. -1.
          1   -1    0    0  501    0 -0.00000000000E+00 -0.00000000000E+00 -0.48454991351E+03  0.48454991351E+03  0.00000000000E+00 0. -1.
         25    2    1    2    0    0 -0.39470859304E+02 -0.24328094415E+03 -0.74920503065E+02  0.28631807970E+03  0.12498557702E+03 0.  0.
          2    1    1    2  501    0 -0.41045109752E+02  0.20075531830E+02 -0.25552026902E+03  0.25957337285E+03  0.00000000000E+00 0. -1.
          1    1    1    2  502    0  0.80515969056E+02  0.22320541232E+03  0.25708139525E+03  0.34984899763E+03  0.00000000000E+00 0. -1.
         22    1    3    3    0    0  0.32542728572E+02 -0.27484530220E+02 -0.35463743503E+02  0.55426579252E+02  0.00000000000E+00 0.  1.
         22    1    3    3    0    0 -0.72013587876E+02 -0.21579641393E+03 -0.39456759562E+02  0.23089150044E+03  0.00000000000E+00 0.  1.
</event>
<event>
 7    1  0.5970484E-006  0.4776151E+02  0.7818608E-02  0.1511480E+00
          2   -1    0    0  502    0  0.00000000000E+00  0.00000000000E+00  0.15614110103E+04  0.15614110103E+04  0.00000000000E+00 0. -1.
          1   -1    0    0  501    0 -0.00000000000E+00 -0.00000000000E+00 -0.49143119563E+02  0.49143119563E+02  0.00000000000E+00 0. -1.
         25    2    1    2    0    0  0.45549118703E+02  0.44450446111E+02  0.52703873540E+03  0.54538536733E+03  0.12499922363E+03 0.  0.
          2    1    1    2  501    0 -0.32748138701E+02  0.10691780613E+01 -0.32612458452E+02  0.46229386502E+02  0.00000000000E+00 0. -1.
          1    1    1    2  502    0 -0.12800980002E+02 -0.45519624173E+02  0.10178416138E+04  0.10189393760E+04  0.00000000000E+00 0. -1.
         22    1    3    3    0    0  0.78583971583E+02  0.45246331532E+02  0.47616081670E+03  0.48471826299E+03  0.00000000000E+00 0.  1.
         22    1    3    3    0    0 -0.33034852879E+02 -0.79588542080E+00  0.50877918699E+02  0.60667104344E+02  0.00000000000E+00 0.  1.
</event>
<event>
 7    1  0.5970484E-006  0.1128472E+03  0.7818608E-02  0.1272462E+00
          2   -1    0    0  502    0  0.00000000000E+00  0.00000000000E+00  0.36893964104E+04  0.36893964104E+04  0.00000000000E+00 0. -1.
          1   -1    0    0  501    0 -0.00000000000E+00 -0.00000000000E+00 -0.59677976079E+03  0.59677976079E+03  0.00000000000E+00 0. -1.
         25    2    1    2    0    0  0.45415733928E+02 -0.72695045779E+02  0.28739898287E+04  0.28779837330E+04  0.12500269344E+03 0.  0.
          2    1    1    2  501    0  0.11043715367E+03  0.23197414048E+02 -0.58108097675E+03  0.59193714740E+03  0.00000000000E+00 0. -1.
          1    1    1    2  502    0 -0.15585288760E+03  0.49497631731E+02  0.79970779761E+03  0.81625529075E+03  0.00000000000E+00 0. -1.
         22    1    3    3    0    0  0.54762835760E+02 -0.72986899919E+02  0.10466431493E+04  0.10506131247E+04  0.00000000000E+00 0.  1.
         22    1    3    3    0    0 -0.93471018314E+01  0.29185414045E+00  0.18273466794E+04  0.18273706083E+04  0.00000000000E+00 0.  1.
</event>
<event>
 7    1  0.5970484E-006  0.1148212E+03  0.7818608E-02  0.1255269E+00
          2   -1    0    0  502    0  0.00000000000E+00  0.00000000000E+00  0.22086023052E+04  0.22086023052E+04  0.00000000000E+00 0. -1.
          1   -1    0    0  501    0 -0.00000000000E+00 -0.00000000000E+00 -0.42096114184E+03  0.42096114184E+03  0.00000000000E+00 0. -1.
         25    2    1    2    0    0 -0.34726477234E+02  0.65237940995E+02  0.13001299593E+03  0.19491235449E+03  0.12500211860E+03 0.  0.
          2    1    1    2  501    0  0.10700343430E+03  0.29654184724E+02 -0.37879685883E+03  0.39473556450E+03  0.00000000000E+00 0. -1.
          1    1    1    2  502    0 -0.72276957067E+02 -0.94892125719E+02  0.20364250263E+04  0.20399155281E+04  0.00000000000E+00 0. -1.
         22    1    3    3    0    0  0.32503995544E+02  0.57825039215E+02  0.10206634733E+03  0.12172832105E+03  0.00000000000E+00 0.  1.
         22    1    3    3    0    0 -0.67230472778E+02  0.74129017803E+01  0.27946648599E+02  0.73184033441E+02  0.00000000000E+00 0.  1.
</event>
<event>
 7    1  0.5970484E-006  0.1706452E+03  0.7818608E-02  0.1354092E+00
          2   -1    0    0  502    0  0.00000000000E+00  0.00000000000E+00  0.49083797665E+03  0.49083797665E+03  0.00000000000E+00 0. -1.
          1   -1    0    0  501    0 -0.00000000000E+00 -0.00000000000E+00 -0.89699061858E+03  0.89699061858E+03  0.00000000000E+00 0. -1.
         25    2    1    2    0    0 -0.16009752582E+03 -0.62073195933E+01 -0.82891086218E+02  0.21946549514E+03  0.12499769115E+03 0.  0.
          2    1    1    2  501    0  0.17105150515E+03 -0.21943083381E+02 -0.73528300608E+03  0.75523586737E+03  0.00000000000E+00 0. -1.
          1    1    1    2  502    0 -0.10953979326E+02  0.28150402974E+02  0.41202145037E+03  0.41312723272E+03  0.00000000000E+00 0. -1.
         22    1    3    3    0    0  0.18209379732E+02 -0.14702087054E+02 -0.20163168836E+01  0.23490389689E+02  0.00000000000E+00 0. -1.
         22    1    3    3    0    0 -0.17830690555E+03  0.84947674604E+01 -0.80874769334E+02  0.19597510545E+03  0.00000000000E+00 0. -1.
</event>
<event>
 7    1  0.5970484E-006  0.8152787E+02  0.7818608E-02  0.1449623E+00
          2   -1    0    0  502    0  0.00000000000E+00  0.00000000000E+00  0.30154778929E+03  0.30154778929E+03  0.00000000000E+00 0. -1.
          1   -1    0    0  501    0 -0.00000000000E+00 -0.00000000000E+00 -0.31018487755E+03  0.31018487755E+03  0.00000000000E+00 0. -1.
         25    2    1    2    0    0  0.53105611075E+02 -0.52947701726E+02 -0.17449732919E+02  0.14681083533E+03  0.12500105257E+03 0.  0.
          2    1    1    2  501    0 -0.75678981164E+02  0.33632990710E+02 -0.21954204488E+03  0.23464269800E+03  0.00000000000E+00 0. -1.
          1    1    1    2  502    0  0.22573370089E+02  0.19314711016E+02  0.22835468954E+03  0.23027913351E+03  0.00000000000E+00 0. -1.
         22    1    3    3    0    0 -0.53185283472E+01  0.32024492859E+02  0.18789652738E+02  0.37508744803E+02  0.00000000000E+00 0.  1.
         22    1    3    3    0    0  0.58424139423E+02 -0.84972194585E+02 -0.36239385656E+02  0.10930209052E+03  0.00000000000E+00 0.  1.
</event>
<event>
 7    1  0.5970484E-006  0.5697460E+02  0.7818608E-02  0.1418960E+00
          2   -1    0    0  502    0  0.00000000000E+00  0.00000000000E+00  0.22480861341E+03  0.22480861341E+03  0.00000000000E+00 0. -1.
          1   -1    0    0  501    0 -0.00000000000E+00 -0.00000000000E+00 -0.85694642740E+03  0.85694642740E+03  0.00000000000E+00 0. -1.
         25    2    1    2    0    0 -0.27956676646E+02 -0.99131119804E+02 -0.18194224269E+03  0.24359172684E+03  0.12500158010E+03 0.  0.
          2    1    1    2  501    0 -0.46542454742E+01  0.53358655969E+02 -0.63896462671E+03  0.64120558509E+03  0.00000000000E+00 0. -1.
          1    1    1    2  502    0  0.32610922120E+02  0.45772463835E+02  0.18876905540E+03  0.19695772888E+03  0.00000000000E+00 0. -1.
         22    1    3    3    0    0  0.35178910129E+02 -0.17261906324E+02 -0.11229209649E+03  0.11893293935E+03  0.00000000000E+00 0.  1.
         22    1    3    3    0    0 -0.63135586775E+02 -0.81869213479E+02 -0.69650146196E+02  0.12465878749E+03  0.00000000000E+00 0.  1.
</event>
<event>
 7    1  0.5970484E-006  0.8319910E+02  0.7818608E-02  0.1478517E+00
          2   -1    0    0  502    0  0.00000000000E+00  0.00000000000E+00  0.24612864031E+03  0.24612864031E+03  0.00000000000E+00 0. -1.
          1   -1    0    0  501    0 -0.00000000000E+00 -0.00000000000E+00 -0.23715727204E+03  0.23715727204E+03  0.00000000000E+00 0. -1.
         25    2    1    2    0    0 -0.36303946956E+02 -0.54287814097E+02  0.34708986229E+02  0.14524036889E+03  0.12499963083E+03 0.  0.
          2    1    1    2  501    0  0.58668815930E+02  0.61911209626E+02 -0.17088432779E+03  0.19098817064E+03  0.00000000000E+00 0. -1.
          1    1    1    2  502    0 -0.22364868973E+02 -0.76233955287E+01  0.14514670983E+03  0.14705737281E+03  0.00000000000E+00 0. -1.
         22    1    3    3    0    0 -0.76996716764E+02 -0.37061246435E+02  0.49363037412E+02  0.98685053794E+02  0.00000000000E+00 0.  1.
         22    1    3    3    0    0  0.40692769808E+02 -0.17226567662E+02 -0.14654051183E+02  0.46555315101E+02  0.00000000000E+00 0.  1.
</event>
<event>
 7    1  0.5970484E-006  0.3883738E+02  0.7818608E-02  0.1597717E+00
          2   -1    0    0  502    0  0.00000000000E+00  0.00000000000E+00  0.10280581640E+04  0.10280581640E+04  0.00000000000E+00 0. -1.
          1   -1    0    0  501    0 -0.00000000000E+00 -0.00000000000E+00 -0.37263849052E+02  0.37263849052E+02  0.00000000000E+00 0. -1.
         25    2    1    2    0    0  0.55476582054E+02  0.15479580449E+02  0.75411885491E+03  0.76657529204E+03  0.12500064987E+03 0.  0.
          2    1    1    2  501    0 -0.38570074904E+02  0.44515560880E+00 -0.18315511245E+02  0.42700196648E+02  0.00000000000E+00 0. -1.
          1    1    1    2  502    0 -0.16906507151E+02 -0.15924736058E+02  0.25499097128E+03  0.25604652436E+03  0.00000000000E+00 0. -1.
         22    1    3    3    0    0  0.14745235269E+02  0.58225379474E+02  0.18742981061E+03  0.19681857301E+03  0.00000000000E+00 0.  1.
         22    1    3    3    0    0  0.40731346785E+02 -0.42745799024E+02  0.56668904430E+03  0.56975671902E+03  0.00000000000E+00 0.  1.
</event>
<event>
 7    1  0.5970484E-006  0.1019539E+03  0.7818608E-02  0.1371466E+00
          2   -1    0    0  502    0  0.00000000000E+00  0.00000000000E+00  0.26808768094E+03  0.26808768094E+03  0.00000000000E+00 0. -1.
          1   -1    0    0  501    0 -0.00000000000E+00 -0.00000000000E+00 -0.26628705234E+04  0.26628705234E+04  0.00000000000E+00 0. -1.
         25    2    1    2    0    0  0.11652678227E+03 -0.11323438747E+02 -0.73183673589E+03  0.75160878639E+03  0.12499619406E+03 0.  0.
          2    1    1    2  501    0 -0.96978259224E+02 -0.27778775509E+02 -0.19179622424E+04  0.19206133412E+04  0.00000000000E+00 0. -1.
          1    1    1    2  502    0 -0.19548523045E+02  0.39102214256E+02  0.25501613579E+03  0.25873607678E+03  0.00000000000E+00 0. -1.
         22    1    3    3    0    0  0.10454984967E+03  0.21957876966E+02 -0.30236063588E+03  0.32067861412E+03  0.00000000000E+00 0.  1.
         22    1    3    3    0    0  0.11976932603E+02 -0.33281315713E+02 -0.42947610001E+03  0.43093017227E+03  0.00000000000E+00 0.  1.
</event>
<event>
 7    1  0.5970484E-006  0.4943732E+02  0.7818608E-02  0.1574263E+00
          2   -1    0    0  502    0  0.00000000000E+00  0.00000000000E+00  0.12254987504E+04  0.12254987504E+04  0.00000000000E+00 0. -1.
          1   -1    0    0  501    0 -0.00000000000E+00 -0.00000000000E+00 -0.25940590846E+03  0.25940590846E+03  0.00000000000E+00 0. -1.
         25    2    1    2    0    0 -0.12583276430E+02 -0.65257047203E+02  0.75752623155E+03  0.77064098388E+03  0.12499885399E+03 0.  0.
          2    1    1    2  501    0  0.19520696500E+02  0.45366900710E+02 -0.25019280012E+03  0.25502088249E+03  0.00000000000E+00 0. -1.
          1    1    1    2  502    0 -0.69374200706E+01  0.19890146494E+02  0.45875941050E+03  0.45924279249E+03  0.00000000000E+00 0. -1.
         22    1    3    3    0    0 -0.61451713476E+02 -0.68736658718E+02  0.46737624982E+03  0.47638387907E+03  0.00000000000E+00 0.  1.
         22    1    3    3    0    0  0.48868437046E+02  0.34796115145E+01  0.29014998173E+03  0.29425710481E+03  0.00000000000E+00 0.  1.
</event>
<event>
 7    1  0.5970484E-006  0.1047400E+03  0.7818608E-02  0.1385526E+00
          2   -1    0    0  502    0  0.00000000000E+00  0.00000000000E+00  0.41807097752E+02  0.41807097752E+02  0.00000000000E+00 0. -1.
          1   -1    0    0  501    0 -0.00000000000E+00 -0.00000000000E+00 -0.10041222036E+04  0.10041222036E+04  0.00000000000E+00 0. -1.
         25    2    1    2    0    0 -0.74042820155E+01 -0.96746486494E+02 -0.68594891425E+03  0.70396400430E+03  0.12499880139E+03 0.  0.
          2    1    1    2  501    0 -0.26009879875E+02  0.11470368983E+03 -0.28015530844E+03  0.30384280007E+03  0.00000000000E+00 0. -1.
          1    1    1    2  502    0  0.33414161891E+02 -0.17957203337E+02  0.37891168711E+01  0.38122496943E+02  0.00000000000E+00 0. -1.
         22    1    3    3    0    0  0.40677537208E+02 -0.76018421545E+02 -0.57323235250E+03  0.57967990512E+03  0.00000000000E+00 0.  1.
         22    1    3    3    0    0 -0.48081819224E+02 -0.20728064949E+02 -0.11271656174E+03  0.12428409918E+03  0.00000000000E+00 0.  1.
</event>
<event>
 7    1  0.5970484E-006  0.1513175E+03  0.7818608E-02  0.1285517E+00
          2   -1    0    0  502    0  0.00000000000E+00  0.00000000000E+00  0.44268823911E+04  0.44268823911E+04  0.00000000000E+00 0. -1.
          1   -1    0    0  501    0 -0.00000000000E+00 -0.00000000000E+00 -0.22077675765E+03  0.22077675765E+03  0.00000000000E+00 0. -1.
         25    2    1    2    0    0  0.52836295017E+02 -0.92954569314E+02  0.25098374259E+03  0.30006840919E+03  0.12496393527E+03 0.  0.
          2    1    1    2  501    0 -0.11395635396E+03  0.10780355441E+03 -0.16460614460E+03  0.22738258463E+03  0.00000000000E+00 0. -1.
          1    1    1    2  502    0  0.61120058940E+02 -0.14848985095E+02  0.41197280354E+04  0.41202081549E+04  0.00000000000E+00 0. -1.
         22    1    3    3    0    0  0.30189620263E+01 -0.10843246267E+03  0.19767429840E+03  0.22548135475E+03  0.00000000000E+00 0.  1.
         22    1    3    3    0    0  0.49817332990E+02  0.15477893354E+02  0.53309444192E+02  0.74587054433E+02  0.00000000000E+00 0.  1.
</event>
<event>
 7    1  0.5970484E-006  0.7151458E+02  0.7818608E-02  0.1380298E+00
          2   -1    0    0  502    0  0.00000000000E+00  0.00000000000E+00  0.22136625357E+03  0.22136625357E+03  0.00000000000E+00 0. -1.
          1   -1    0    0  501    0 -0.00000000000E+00 -0.00000000000E+00 -0.37671055813E+04  0.37671055813E+04  0.00000000000E+00 0. -1.
         25    2    1    2    0    0 -0.58531667153E+02  0.53062911551E+02 -0.65662900982E+03  0.67307351096E+03  0.12499866385E+03 0.  0.
          2    1    1    2  501    0  0.37980326142E+01 -0.72151995854E+02 -0.30978841019E+04  0.30987265520E+04  0.00000000000E+00 0. -1.
          1    1    1    2  502    0  0.54733634539E+02  0.19089084304E+02  0.20877378393E+03  0.21667177192E+03  0.00000000000E+00 0. -1.
         22    1    3    3    0    0  0.36303758074E+02  0.36140981868E+02 -0.20753748823E+03  0.21376609283E+03  0.00000000000E+00 0. -1.
         22    1    3    3    0    0 -0.94835425227E+02  0.16921929683E+02 -0.44909152159E+03  0.45930741813E+03  0.00000000000E+00 0. -1.
</event>
<event>
 7    1  0.5970484E-006  0.7199749E+02  0.7818608E-02  0.1402387E+00
          2   -1    0    0  502    0  0.00000000000E+00  0.00000000000E+00  0.46754639043E+03  0.46754639043E+03  0.00000000000E+00 0. -1.
          1   -1    0    0  501    0 -0.00000000000E+00 -0.00000000000E+00 -0.11151876137E+04  0.11151876137E+04  0.00000000000E+00 0. -1.
         25    2    1    2    0    0  0.67152673086E+02  0.26727956573E+02 -0.34752089851E+03  0.37632530767E+03  0.12500438842E+03 0.  0.
          2    1    1    2  501    0 -0.36579964609E+02 -0.64030726036E+02 -0.75016809801E+03  0.75378392326E+03  0.00000000000E+00 0. -1.
          1    1    1    2  502    0 -0.30572708477E+02  0.37302769463E+02  0.45004777325E+03  0.45262477320E+03  0.00000000000E+00 0. -1.
         22    1    3    3    0    0  0.13614470871E+02  0.48813252179E+02 -0.29107538751E+03  0.29545383501E+03  0.00000000000E+00 0.  1.
         22    1    3    3    0    0  0.53538202214E+02 -0.22085295606E+02 -0.56445510996E+02  0.80871472658E+02  0.00000000000E+00 0.  1.
</event>
<event>
 7    1  0.5970484E-006  0.9690893E+02  0.7818608E-02  0.1295748E+00
          2   -1    0    0  502    0  0.00000000000E+00  0.00000000000E+00  0.15393461114E+04  0.15393461114E+04  0.00000000000E+00 0. -1.
          1   -1    0    0  501    0 -0.00000000000E+00 -0.00000000000E+00 -0.13404680261E+04  0.13404680261E+04  0.00000000000E+00 0. -1.
         25    2    1    2    0    0  0.84706435701E+02  0.58661928404E+01  0.80170501907E+03  0.81582216120E+03  0.12500107453E+03 0.  0.
          2    1    1    2  501    0 -0.34454040916E+02  0.90577366388E+02 -0.13275865009E+04  0.13311187993E+04  0.00000000000E+00 0. -1.
          1    1    1    2  502    0 -0.50252394785E+02 -0.96443559229E+02  0.72475956726E+03  0.73287317704E+03  0.00000000000E+00 0. -1.
         22    1    3    3    0    0  0.14770914100E+02 -0.49174776419E+02  0.45455793080E+03  0.45744863208E+03  0.00000000000E+00 0. -1.
         22    1    3    3    0    0  0.69935521600E+02  0.55040969260E+02  0.34714708827E+03  0.35837352912E+03  0.00000000000E+00 0. -1.
</event>
<event>
 7    1  0.5970484E-006  0.1108479E+03  0.7818608E-02  0.1368433E+00
          2   -1    0    0  502    0  0.00000000000E+00  0.00000000000E+00  0.25769288875E+04  0.25769288875E+04  0.00000000000E+00 0. -1.
          1   -1    0    0  501    0 -0.00000000000E+00 -0.00000000000E+00 -0.57233901796E+03  0.57233901796E+03  0.00000000000E+00 0. -1.
         25    2    1    2    0    0  0.13823516382E+03  0.55492281674E+02  0.25992741486E+03  0.32459942847E+03  0.12495668900E+03 0.  0.
          2    1    1    2  501    0 -0.97165741858E+02 -0.51844361880E+02 -0.53419933409E+03  0.54543372448E+03  0.00000000000E+00 0. -1.
          1    1    1    2  502    0 -0.41069421959E+02 -0.36479197941E+01  0.22788617888E+04  0.22792347525E+04  0.00000000000E+00 0. -1.
         22    1    3    3    0    0  0.40207450463E+02 -0.38237303203E+02  0.50116658167E+02  0.74769043426E+02  0.00000000000E+00 0. -1.
         22    1    3    3    0    0  0.98027713354E+02  0.93729584877E+02  0.20981075670E+03  0.24983038504E+03  0.00000000000E+00 0. -1.
</event>
<event>
 7    1  0.5970484E-006  0.1014219E+03  0.7818608E-02  0.1300366E+00
          2   -1    0    0  502    0  0.00000000000E+00  0.00000000000E+00  0.40448784087E+03  0.40448784087E+03  0.00000000000E+00 0. -1.
          1   -1    0    0  501    0 -0.00000000000E+00 -0.00000000000E+00 -0.53306158465E+03  0.53306158465E+03  0.00000000000E+00 0. -1.
         25    2    1    2    0    0 -0.86503145672E+02  0.19179767331E+01  0.63524553170E+02  0.16476267255E+03  0.12499958625E+03 0.  0.
          2    1    1    2  501    0  0.64961366154E+02 -0.80737837309E+02 -0.47094675222E+03  0.48221304513E+03  0.00000000000E+00 0. -1.
          1    1    1    2  502    0  0.21541779518E+02  0.78819860576E+02  0.27884845527E+03  0.29057370785E+03  0.00000000000E+00 0. -1.
         22    1    3    3    0    0 -0.14591539730E+01  0.36972982533E+02 -0.18633452864E+02  0.41428687323E+02  0.00000000000E+00 0.  1.
         22    1    3    3    0    0 -0.85043991699E+02 -0.35055005800E+02  0.82158006034E+02  0.12333398522E+03  0.00000000000E+00 0.  1.
</event>
<event>
 7    1  0.5970484E-006  0.3341344E+02  0.7818608E-02  0.1605353E+00
          2   -1    0    0  502    0  0.00000000000E+00  0.00000000000E+00  0.15433202790E+04  0.15433202790E+04  0.00000000000E+00 0. -1.
          1   -1    0    0  501    0 -0.00000000000E+00 -0.00000000000E+00 -0.12770439536E+03  0.12770439536E+03  0.00000000000E+00 0. -1.
         25    2    1    2    0    0  0.44663047895E+02  0.51637148246E+01  0.52962994159E+03  0.54603511045E+03  0.12500006009E+03 0.  0.
          2    1    1    2  501    0 -0.29486427510E+02  0.15682893287E+02 -0.11699942246E+03  0.12167278826E+03  0.00000000000E+00 0. -1.
          1    1    1    2  502    0 -0.15176620385E+02 -0.20846608112E+02  0.10029853645E+04  0.10033167757E+04  0.00000000000E+00 0. -1.
         22    1    3    3    0    0  0.39582856830E+02 -0.27685475530E+02  0.49738527890E+03  0.49972532833E+03  0.00000000000E+00 0. -1.
         22    1    3    3    0    0  0.50801910648E+01  0.32849190355E+02  0.32244662686E+02  0.46309782119E+02  0.00000000000E+00 0. -1.
</event>
<event>
 7    1  0.5970484E-006  0.1214816E+03  0.7818608E-02  0.1369575E+00
          2   -1    0    0  502    0  0.00000000000E+00  0.00000000000E+00  0.92554320588E+03  0.92554320588E+03  0.00000000000E+00 0. -1.
          1   -1    0    0  501    0 -0.00000000000E+00 -0.00000000000E+00 -0.91017669878E+03  0.91017669878E+03  0.00000000000E+00 0. -1.
         25    2    1    2    0    0 -0.11346590548E+03  0.36755872694E+02  0.43309369525E+01  0.17282640414E+03  0.12499881226E+03 0.  0.
          2    1    1    2  501    0 -0.84158168801E+01 -0.36304855580E+02 -0.82106678330E+03  0.82191211887E+03  0.00000000000E+00 0. -1.
          1    1    1    2  502    0  0.12188172236E+03 -0.45101711355E+00  0.83210235345E+03  0.84098138165E+03  0.00000000000E+00 0. -1.
         22    1    3    3    0    0  0.18432833054E+02 -0.11193146636E+02  0.22670850552E+02  0.31289348519E+02  0.00000000000E+00 0. -1.
         22    1    3    3    0    0 -0.13189873854E+03  0.47949019329E+02 -0.18339913599E+02  0.14153705562E+03  0.00000000000E+00 0. -1.
</event>
<event>
 7    1  0.5970484E-006  0.8171559E+02  0.7818608E-02  0.1398666E+00
          2   -1    0    0  502    0  0.00000000000E+00  0.00000000000E+00  0.66795910144E+03  0.66795910144E+03  0.00000000000E+00 0. -1.
          1   -1    0    0  501    0 -0.00000000000E+00 -0.00000000000E+00 -0.18818854053E+03  0.18818854053E+03  0.00000000000E+00 0. -1.
         25    2    1    2    0    0  0.10181039565E+03 -0.11097955504E+02  0.79733099446E+02  0.18019729314E+03  0.12500070411E+03 0.  0.
          2    1    1    2  501    0 -0.76672973040E+02 -0.24727083162E+02 -0.12520701269E+03  0.14888575978E+03  0.00000000000E+00 0. -1.
          1    1    1    2  502    0 -0.25137422606E+02  0.35825038666E+02  0.52524447415E+03  0.52706458905E+03  0.00000000000E+00 0. -1.
         22    1    3    3    0    0  0.10542721909E+03 -0.31621065128E+02  0.10174223556E+03  0.14988753377E+03  0.00000000000E+00 0.  1.
         22    1    3    3    0    0 -0.36168234437E+01  0.20523109624E+02 -0.22009136110E+02  0.30309759365E+02  0.00000000000E+00 0.  1.
</event>
<event>
 7    1  0.5970484E-006  0.7906322E+02  0.7818608E-02  0.1369927E+00
          2   -1    0    0  502    0  0.00000000000E+00  0.00000000000E+00  0.19918440659E+04  0.19918440659E+04  0.00000000000E+00 0. -1.
          1   -1    0    0  501    0 -0.00000000000E+00 -0.00000000000E+00 -0.22777519720E+03  0.22777519720E+03  0.00000000000E+00 0. -1.
         25    2    1    2    0    0  0.26831888459E+02 -0.73957636075E+01  0.13650208757E+03  0.18717000658E+03  0.12500057559E+03 0.  0.
          2    1    1    2  501    0  0.34446073690E+02 -0.45534514730E+02 -0.19749985039E+03  0.20558724408E+03  0.00000000000E+00 0. -1.
          1    1    1    2  502    0 -0.61277962149E+02  0.52930278337E+02  0.18250666315E+04  0.18268620124E+04  0.00000000000E+00 0. -1.
         22    1    3    3    0    0  0.42075439469E+02  0.51883361974E+02  0.73947365231E+02  0.99651586444E+02  0.00000000000E+00 0.  1.
         22    1    3    3    0    0 -0.15243551010E+02 -0.59279125582E+02  0.62554722338E+02  0.87518420141E+02  0.00000000000E+00 0.  1.
</event>
<event>
 7    1  0.5970484E-006  0.5887166E+02  0.7818608E-02  0.1486493E+00
          2   -1    0    0  502    0  0.00000000000E+00  0.00000000000E+00  0.16553425119E+04  0.16553425119E+04  0.00000000000E+00 0. -1.
          1   -1    0    0  501    0 -0.00000000000E+00 -0.00000000000E+00 -0.69828122843E+03  0.69828122843E+03  0.00000000000E+00 0. -1.
         25    2    1    2    0    0 -0.29534563468E+02  0.11958925868E+02  0.35951397666E+03  0.38195601132E+03  0.12499915527E+03 0.  0.
          2    1    1    2  501    0  0.58968902638E+02 -0.54697829381E+00 -0.68560030690E+03  0.68813182711E+03  0.00000000000E+00 0. -1.
          1    1    1    2  502    0 -0.29434339170E+02 -0.11411947574E+02  0.12831476137E+04  0.12835359019E+04  0.00000000000E+00 0. -1.
         22    1    3    3    0    0  0.47182948430E+02  0.13722067412E+02  0.18301476106E+03  0.18949651322E+03  0.00000000000E+00 0.  1.
         22    1    3    3    0    0 -0.76717511898E+02 -0.17631415437E+01  0.17649921560E+03  0.19245949810E+03  0.00000000000E+00 0.  1.
</event>
<event>
 7    1  0.5970484E-006  0.8868940E+02  0.7818608E-02  0.1395420E+00
          2   -1    0    0  502    0  0.00000000000E+00  0.00000000000E+00  0.47715208233E+03  0.47715208233E+03  0.00000000000E+00 0. -1.
          1   -1    0    0  501    0 -0.00000000000E+00 -0.00000000000E+00 -0.11619506719E+04  0.11619506719E+04  0.00000000000E+00 0. -1.
         25    2    1    2    0    0 -0.74447876543E+02  0.39399125880E+01  0.75845996645E+02  0.16411969922E+03  0.12499860492E+03 0.  0.
          2    1    1    2  501    0  0.81007413277E+02  0.36914574262E+02 -0.11148351252E+04  0.11183837638E+04  0.00000000000E+00 0. -1.
          1    1    1    2  502    0 -0.65595367337E+01 -0.40854486850E+02  0.35419053894E+03  0.35659929122E+03  0.00000000000E+00 0. -1.
         22    1    3    3    0    0  0.34693755976E+02  0.96124215525E+01  0.14682121465E+02  0.38879558158E+02  0.00000000000E+00 0. -1.
         22    1    3    3    0    0 -0.10914163252E+03 -0.56725089644E+01  0.61163875180E+02  0.12524014107E+03  0.00000000000E+00 0. -1.
</event>
<event>
 7    1  0.5970484E-006  0.1858576E+03  0.7818608E-02  0.1341759E+00
          2   -1    0    0  502    0  0.00000000000E+00  0.00000000000E+00  0.49449198580E+04  0.49449198580E+04  0.00000000000E+00 0. -1.
          1   -1    0    0  501    0 -0.00000000000E+00 -0.00000000000E+00 -0.13489929157E+03  0.13489929157E+03  0.00000000000E+00 0. -1.
         25    2    1    2    0    0 -0.19799986499E+03 -0.32952217585E+02  0.25130397689E+03  0.34505949847E+03  0.12499029363E+03 0.  0.
          2    1    1    2  501    0  0.21127125945E+02 -0.22441322157E+02 -0.83416217212E+02  0.88928250207E+02  0.00000000000E+00 0. -1.
          1    1    1    2  502    0  0.17687273904E+03  0.55393539742E+02  0.46421328068E+04  0.46458314009E+04  0.00000000000E+00 0. -1.
         22    1    3    3    0    0 -0.97941188077E+02  0.19436303282E+02  0.19450547538E+03  0.21863811690E+03  0.00000000000E+00 0.  1.
         22    1    3    3    0    0 -0.10005867691E+03 -0.52388520866E+02  0.56798501511E+02  0.12642138157E+03  0.00000000000E+00 0.  1.
</event>
<event>
 7    1  0.5970484E-006  0.1086460E+03  0.7818608E-02  0.1368118E+00
          2   -1    0    0  502    0  0.00000000000E+00  0.00000000000E+00  0.52149631077E+03  0.52149631077E+03  0.00000000000E+00 0. -1.
          1   -1    0    0  501    0 -0.00000000000E+00 -0.00000000000E+00 -0.28008258341E+04  0.28008258341E+04  0.00000000000E+00 0. -1.
         25    2    1    2    0    0 -0.13583394791E+03  0.20006272249E+02 -0.50745104685E+02  0.19248695257E+03  0.12500019570E+03 0.  0.
          2    1    1    2  501    0  0.29017073849E+02 -0.30609115789E+02 -0.26726486808E+04  0.26729814588E+04  0.00000000000E+00 0. -1.
          1    1    1    2  502    0  0.10681687406E+03  0.10602843541E+02  0.44406426212E+03  0.45685373345E+03  0.00000000000E+00 0. -1.
         22    1    3    3    0    0  0.10558903951E+02 -0.16279110383E+02  0.18245025362E+02  0.26634204286E+02  0.00000000000E+00 0.  1.
         22    1    3    3    0    0 -0.14639285186E+03  0.36285382631E+02 -0.68990130048E+02  0.16585274828E+03  0.00000000000E+00 0.  1.
</event>
<event>
 7    1  0.5970484E-006  0.3142172E+02  0.7818608E-02  0.1604285E+00
          2   -1    0    0  502    0  0.00000000000E+00  0.00000000000E+00  0.62653029702E+03  0.62653029702E+03  0.00000000000E+00 0. -1.
          1   -1    0    0  501    0 -0.00000000000E+00 -0.00000000000E+00 -0.10617166141E+04  0.10617166141E+04  0.00000000000E+00 0. -1.
         25    2    1    2    0    0  0.46889510395E+01 -0.54498289156E+01 -0.70196959887E+03  0.71304831988E+03  0.12499960741E+03 0.  0.
          2    1    1    2  501    0 -0.10833424608E+02 -0.25380750750E+02 -0.35327134157E+03  0.35434755026E+03  0.00000000000E+00 0. -1.
          1    1    1    2  502    0  0.61444735685E+01  0.30830579666E+02  0.62005462333E+03  0.62085104100E+03  0.00000000000E+00 0. -1.
         22    1    3    3    0    0  0.32470654964E+02 -0.47068342700E+02 -0.18432759855E+03  0.19299335716E+03  0.00000000000E+00 0. -1.
         22    1    3    3    0    0 -0.27781703925E+02  0.41618513785E+02 -0.51764200031E+03  0.52005496272E+03  0.00000000000E+00 0. -1.
</event>
<event>
 7    1  0.5970484E-006  0.1293306E+03  0.7818608E-02  0.1335651E+00
          2   -1    0    0  502    0  0.00000000000E+00  0.00000000000E+00  0.12203931236E+03  0.12203931236E+03  0.00000000000E+00 0. -1.
          1   -1    0    0  501    0 -0.00000000000E+00 -0.00000000000E+00 -0.41562153353E+03  0.41562153353E+03  0.00000000000E+00 0. -1.
         25    2    1    2    0    0 -0.93325627220E+02 -0.82463835575E+02 -0.28924930843E+03  0.33882305013E+03  0.12500375995E+03 0.  0.
          2    1    1    2  501    0 -0.29470234609E+02  0.36232745317E+02 -0.41485679531E+02  0.62468937619E+02  0.00000000000E+00 0. -1.
          1    1    1    2  502    0  0.12279586183E+03  0.46231090258E+02  0.37152766794E+02  0.13636885814E+03  0.00000000000E+00 0. -1.
         22    1    3    3    0    0 -0.53583213837E+02 -0.90939267770E+02 -0.27692550270E+03  0.29635931784E+03  0.00000000000E+00 0.  1.
         22    1    3    3    0    0 -0.39742413383E+02  0.84754321949E+01 -0.12323805729E+02  0.42463732291E+02  0.00000000000E+00 0.  1.
</event>
<event>
 7    1  0.5970484E-006  0.1261689E+03  0.7818608E-02  0.1367939E+00
          2   -1    0    0  502    0  0.00000000000E+00  0.00000000000E+00  0.76308722190E+03  0.76308722190E+03  0.00000000000E+00 0. -1.
          1   -1    0    0  501    0 -0.00000000000E+00 -0.00000000000E+00 -0.23958641720E+04  0.23958641720E+04  0.00000000000E+00 0. -1.
         25    2    1    2    0    0  0.12615980959E+03 -0.11392864783E+02 -0.16083102937E+03  0.23986920404E+03  0.12499808046E+03 0.  0.
          2    1    1    2  501    0 -0.11742983002E+03  0.46702991362E+02 -0.21932368208E+04  0.21968747543E+04  0.00000000000E+00 0. -1.
          1    1    1    2  502    0 -0.87299795639E+01 -0.35310126579E+02  0.72129089998E+03  0.72220743555E+03  0.00000000000E+00 0. -1.
         22    1    3    3    0    0  0.13297284184E+03  0.16981141460E+02 -0.85282930841E+02  0.15888144676E+03  0.00000000000E+00 0.  1.
         22    1    3    3    0    0 -0.68130322521E+01 -0.28374006243E+02 -0.75548098526E+02  0.80987757283E+02  0.00000000000E+00 0.  1.
</event>
<event>
 7    1  0.5970484E-006  0.7323924E+02  0.7818608E-02  0.1429573E+00
          2   -1    0    0  502    0  0.00000000000E+00  0.00000000000E+00  0.10011762360E+04  0.10011762360E+04  0.00000000000E+00 0. -1.
          1   -1    0    0  501    0 -0.00000000000E+00 -0.00000000000E+00 -0.84026684513E+03  0.84026684513E+03  0.00000000000E+00 0. -1.
         25    2    1    2    0    0  0.10397916538E+03 -0.18262894335E+02  0.41641420638E+03  0.44740656703E+03  0.12500657902E+03 0.  0.
          2    1    1    2  501    0 -0.38312115529E+02 -0.28799380082E+01 -0.82223039591E+03  0.82312753338E+03  0.00000000000E+00 0. -1.
          1    1    1    2  502    0 -0.65667049854E+02  0.21142832344E+02  0.56672558037E+03  0.57090898070E+03  0.00000000000E+00 0. -1.
         22    1    3    3    0    0  0.44649872228E+02  0.18284634740E+02  0.34228002223E+03  0.34566393010E+03  0.00000000000E+00 0. -1.
         22    1    3    3    0    0  0.59329293155E+02 -0.36547529076E+02  0.74134184156E+02  0.10174263692E+03  0.00000000000E+00 0. -1.
</event>
<event>
 7    1  0.5970484E-006  0.6661928E+02  0.7818608E-02  0.1442448E+00
          2   -1    0    0  502    0  0.00000000000E+00  0.00000000000E+00  0.73835186559E+03  0.73835186559E+03  0.00000000000E+00 0. -1.
          1   -1    0    0  501    0 -0.00000000000E+00 -0.00000000000E+00 -0.10634212139E+04  0.10634212139E+04  0.00000000000E+00 0. -1.
         25    2    1    2    0    0  0.10877429561E+01 -0.36305141770E+02 -0.70991737226E+02  0.14827143129E+03  0.12500137631E+03 0.  0.
          2    1    1    2  501    0 -0.31188574709E+02  0.60055449721E+02 -0.95206248593E+03  0.95446443692E+03  0.00000000000E+00 0. -1.
          1    1    1    2  502    0  0.30100831753E+02 -0.23750307951E+02  0.69798487486E+03  0.69903721127E+03  0.00000000000E+00 0. -1.
         22    1    3    3    0    0  0.37431669112E+01  0.45724667601E+02 -0.12695808119E+02  0.47601891449E+02  0.00000000000E+00 0. -1.
         22    1    3    3    0    0 -0.26554239551E+01 -0.82029809371E+02 -0.58295929107E+02  0.10066953984E+03  0.00000000000E+00 0. -1.
</event>
<event>
 7    1  0.5970484E-006  0.1151061E+03  0.7818608E-02  0.1420429E+00
          2   -1    0    0  502    0  0.00000000000E+00  0.00000000000E+00  0.21656949859E+04  0.21656949859E+04  0.00000000000E+00 0. -1.
          1   -1    0    0  501    0 -0.00000000000E+00 -0.00000000000E+00 -0.25673559015E+03  0.25673559015E+03  0.00000000000E+00 0. -1.
         25    2    1    2    0    0 -0.62392068343E+02  0.10352157622E+03  0.76741373929E+03  0.78686508845E+03  0.12499333278E+03 0.  0.
          2    1    1    2  501    0  0.79228237694E+02 -0.83429527525E+02 -0.23348037181E+03  0.26028961511E+03  0.00000000000E+00 0. -1.
          1    1    1    2  502    0 -0.16836169351E+02 -0.20092048694E+02  0.13750260283E+04  0.13752758725E+04  0.00000000000E+00 0. -1.
         22    1    3    3    0    0 -0.76428857707E+02  0.11861997556E+03  0.73520087107E+03  0.74862032414E+03  0.00000000000E+00 0.  1.
         22    1    3    3    0    0  0.14036789365E+02 -0.15098399342E+02  0.32212868214E+02  0.38244764307E+02  0.00000000000E+00 0.  1.
</event>
<event>
 7    1  0.5970484E-006  0.1072936E+03  0.7818608E-02  0.1318925E+00
          2   -1    0    0  502    0  0.00000000000E+00  0.00000000000E+00  0.12242981237E+03  0.12242981237E+03  0.00000000000E+00 0. -1.
          1   -1    0    0  501    0 -0.00000000000E+00 -0.00000000000E+00 -0.26914127705E+04  0.26914127705E+04  0.00000000000E+00 0. -1.
         25    2    1    2    0    0  0.13601314446E+02  0.15175208709E+03 -0.19789561261E+03  0.27927806078E+03  0.12497947853E+03 0.  0.
          2    1    1    2  501    0  0.28572777704E+02 -0.58673839208E+02 -0.24202754531E+04  0.24211551565E+04  0.00000000000E+00 0. -1.
          1    1    1    2  502    0 -0.42174092151E+02 -0.93078247880E+02  0.49188107565E+02  0.11340936559E+03  0.00000000000E+00 0. -1.
         22    1    3    3    0    0 -0.12610375543E+02 -0.19225439177E+02 -0.33593485964E+02  0.40708247102E+02  0.00000000000E+00 0. -1.
         22    1    3    3    0    0  0.26211689989E+02  0.17097752627E+03 -0.16430212665E+03  0.23856981368E+03  0.00000000000E+00 0. -1.
</event>
<event>
 7    1  0.5970484E-006  0.4676073E+02  0.7818608E-02  0.1502426E+00
          2   -1    0    0  502    0  0.00000000000E+00  0.00000000000E+00  0.76700554395E+03  0.76700554395E+03  0.00000000000E+00 0. -1.
          1   -1    0    0  501    0 -0.00000000000E+00 -0.00000000000E+00 -0.18543346759E+04  0.18543346759E+04  0.00000000000E+00 0. -1.
         25    2    1    2    0    0 -0.10088242952E+02 -0.59245634896E+01  0.15125359198E+03  0.19657019515E+03  0.12500127773E+03 0.  0.
          2    1    1    2  501    0  0.44951285449E+02  0.13101590805E+02 -0.18308427617E+04  0.18314413689E+04  0.00000000000E+00 0. -1.
          1    1    1    2  502    0 -0.34863042498E+02 -0.71770273158E+01  0.59226003776E+03  0.59332865579E+03  0.00000000000E+00 0. -1.
         22    1    3    3    0    0 -0.40414998550E+02 -0.48763451551E+02  0.43865895770E+02  0.77041956924E+02  0.00000000000E+00 0.  1.
         22    1    3    3    0    0  0.30326755598E+02  0.42838888062E+02  0.10738769621E+03  0.11952823822E+03  0.00000000000E+00 0.  1.
</event>
<event>
 7    1  0.5970484E-006  0.1380553E+03  0.7818608E-02  0.1276865E+00
          2   -1    0    0  502    0  0.00000000000E+00  0.00000000000E+00  0.40141256877E+04  0.40141256877E+04  0.00000000000E+00 0. -1.
          1   -1    0    0  501    0 -0.00000000000E+00 -0.00000000000E+00 -0.48352816551E+03  0.48352816551E+03  0.00000000000E+00 0. -1.
         25    2    1    2    0    0 -0.12230718510E+02 -0.17053666362E+03 -0.80363752229E+02  0.22652984319E+03  0.12500037228E+03 0.  0.
          2    1    1    2  501    0 -0.47610867253E+02  0.12558538522E+03 -0.31604786679E+03  0.34340171486E+03  0.00000000000E+00 0. -1.
          1    1    1    2  502    0  0.59841585763E+02  0.44951278392E+02  0.39270091412E+04  0.39277222952E+04  0.00000000000E+00 0. -1.
         22    1    3    3    0    0  0.33333951667E+02 -0.39359853962E+02  0.19865092649E+02  0.55271804237E+02  0.00000000000E+00 0.  1.
         22    1    3    3    0    0 -0.45564670177E+02 -0.13117680966E+03 -0.10022884488E+03  0.17125803895E+03  0.00000000000E+00 0.  1.
</event>
<event>
 7    1  0.5970484E-006  0.1585065E+03  0.7818608E-02  0.1213388E+00
          2   -1    0    0  502    0  0.00000000000E+00  0.00000000000E+00  0.17856828515E+03  0.17856828515E+03  0.00000000000E+00 0. -1.
          1   -1    0    0  501    0 -0.00000000000E+00 -0.00000000000E+00 -0.78591794294E+03  0.78591794294E+03  0.00000000000E+00 0. -1.
         25    2    1    2    0    0 -0.13958326714E+03  0.11998411037E+03 -0.38025352072E+03  0.44056376400E+03  0.12499605961E+03 0.  0.
          2    1    1    2  501    0  0.15987281560E+03  0.19156217730E+01 -0.32766681456E+03  0.36459364797E+03  0.00000000000E+00 0. -1.
          1    1    1    2  502    0 -0.20289548463E+02 -0.12189973214E+03  0.10057067749E+03  0.15932881612E+03  0.00000000000E+00 0. -1.
         22    1    3    3    0    0 -0.11667863415E+03  0.13300986165E+03 -0.24177608963E+03  0.29960174312E+03  0.00000000000E+00 0. -1.
         22    1    3    3    0    0 -0.22904632991E+02 -0.13025751277E+02 -0.13847743109E+03  0.14096202088E+03  0.00000000000E+00 0. -1.
</event>
<event>
 7    1  0.5970484E-006  0.6375464E+02  0.7818608E-02  0.1438295E+00
          2   -1    0    0  502    0  0.00000000000E+00  0.00000000000E+00  0.14758566564E+04  0.14758566564E+04  0.00000000000E+00 0. -1.
          1   -1    0    0  501    0 -0.00000000000E+00 -0.00000000000E+00 -0.65915983519E+02  0.65915983519E+02  0.00000000000E+00 0. -1.
         25    2    1    2    0    0  0.12358022040E+02  0.10167509159E+03  0.38872535575E+03  0.42097828334E+03  0.12499907153E+03 0.  0.
          2    1    1    2  501    0  0.14326894931E+00 -0.41327036894E+02 -0.40163040007E+02  0.57628242096E+02  0.00000000000E+00 0. -1.
          1    1    1    2  502    0 -0.12501290990E+02 -0.60348054695E+02  0.10613783571E+04  0.10631661145E+04  0.00000000000E+00 0. -1.
         22    1    3    3    0    0 -0.26051047939E+02  0.74169553124E+02  0.35327150023E+03  0.36191232720E+03  0.00000000000E+00 0. -1.
         22    1    3    3    0    0  0.38409069980E+02  0.27505538465E+02  0.35453855523E+02  0.59065956137E+02  0.00000000000E+00 0. -1.
</event>
<event>
 7    1  0.5970484E-006  0.8130565E+02  0.7818608E-02  0.1498143E+00
          2   -1    0    0  502    0  0.00000000000E+00  0.00000000000E+00  0.57610265906E+03  0.57610265906E+03  0.00000000000E+00 0. -1.
          1   -1    0    0  501    0 -0.00000000000E+00 -0.00000000000E+00 -0.33797872283E+03  0.33797872283E+03  0.00000000000E+00 0. -1.
         25    2    1    2    0    0 -0.42697939964E+02 -0.90500969211E+02 -0.28416787185E+03  0.32617601703E+03  0.12500350072E+03 0.  0.
          2    1    1    2  501    0  0.15793714933E+02  0.13964710013E+02 -0.26096750654E+02  0.33548397157E+02  0.00000000000E+00 0. -1.
          1    1    1    2  502    0  0.26904225032E+02  0.76536259199E+02  0.54838855873E+03  0.55435696770E+03  0.00000000000E+00 0. -1.
         22    1    3    3    0    0 -0.20330247165E+01  0.21763505279E+02 -0.12662486317E+03  0.12849762381E+03  0.00000000000E+00 0. -1.
         22    1    3    3    0    0 -0.40664915248E+02 -0.11226447449E+03 -0.15754300868E+03  0.19767839323E+03  0.00000000000E+00 0. -1.
</event>
<event>
 7    1  0.5970484E-006  0.1351591E+03  0.7818608E-02  0.1320327E+00
          2   -1    0    0  502    0  0.00000000000E+00  0.00000000000E+00  0.10564611072E+04  0.10564611072E+04  0.00000000000E+00 0. -1.
          1   -1    0    0  501    0 -0.00000000000E+00 -0.00000000000E+00 -0.54341182464E+02  0.54341182464E+02  0.00000000000E+00 0. -1.
         25    2    1    2    0    0  0.33413597017E+02 -0.11293106427E+03  0.18108690238E+03  0.24957442758E+03  0.12500013977E+03 0.  0.
          2    1    1    2  501    0 -0.25596220639E+02  0.16349116608E+03  0.34696966500E+03  0.38441185768E+03  0.00000000000E+00 0. -1.
          1    1    1    2  502    0 -0.78173763775E+01 -0.50560101811E+02  0.47406335740E+03  0.47681600445E+03  0.00000000000E+00 0. -1.
         22    1    3    3    0    0  0.35652814744E+02 -0.13945527592E+03  0.14129900019E+03  0.20170350675E+03  0.00000000000E+00 0.  1.
         22    1    3    3    0    0 -0.22392177276E+01  0.26524211652E+02  0.39787902189E+02  0.47870920822E+02  0.00000000000E+00 0.  1.
</event>
<event>
 7    1  0.5970484E-006  0.1300360E+03  0.7818608E-02  0.1282245E+00
          2   -1    0    0  502    0  0.00000000000E+00  0.00000000000E+00  0.10177794706E+03  0.10177794706E+03  0.00000000000E+00 0. -1.
          1   -1    0    0  501    0 -0.00000000000E+00 -0.00000000000E+00 -0.30393536750E+04  0.30393536750E+04  0.00000000000E+00 0. -1.
         25    2    1    2    0    0  0.18638752728E+03  0.48249279105E+02 -0.47121327664E+03  0.52415418445E+03  0.12500941459E+03 0.  0.
          2    1    1    2  501    0 -0.12656082297E+03 -0.22084083157E+01 -0.25207552440E+04  0.25239313618E+04  0.00000000000E+00 0. -1.
          1    1    1    2  502    0 -0.59826704308E+02 -0.46040870789E+02  0.54392792675E+02  0.93046075825E+02  0.00000000000E+00 0. -1.
         22    1    3    3    0    0  0.18896653769E+03  0.53712608950E+02 -0.47694917633E+03  0.51582352944E+03  0.00000000000E+00 0.  1.
         22    1    3    3    0    0 -0.25790104146E+01 -0.54633298448E+01  0.57358996844E+01  0.83306550103E+01  0.00000000000E+00 0.  1.
</event>
<event>
 7    1  0.5970484E-006  0.1027052E+03  0.7818608E-02  0.1416068E+00
          2   -1    0    0  502    0  0.00000000000E+00  0.00000000000E+00  0.61505909311E+03  0.61505909311E+03  0.00000000000E+00 0. -1.
          1   -1    0    0  501    0 -0.00000000000E+00 -0.00000000000E+00 -0.95166351635E+02  0.95166351635E+02  0.00000000000E+00 0. -1.
         25    2    1    2    0    0  0.34794898670E+02  0.10947353540E+03  0.10000421128E+03  0.19703156700E+03  0.12500182476E+03 0.  0.
          2    1    1    2  501    0 -0.62724862085E+01 -0.99004288111E+02  0.72814564549E+01  0.99469657463E+02  0.00000000000E+00 0. -1.
          1    1    1    2  502    0 -0.28522412461E+02 -0.10469247287E+02  0.41260707374E+03  0.41372422028E+03  0.00000000000E+00 0. -1.
         22    1    3    3    0    0 -0.69793575424E+01  0.58826140801E+02 -0.18069165303E+02  0.61933197948E+02  0.00000000000E+00 0.  1.
         22    1    3    3    0    0  0.41774256212E+02  0.50647394597E+02  0.11807337658E+03  0.13509836905E+03  0.00000000000E+00 0.  1.
</event>
<event>
 7    1  0.5970484E-006  0.1415012E+03  0.7818608E-02  0.1405197E+00
          2   -1    0    0  502    0  0.00000000000E+00  0.00000000000E+00  0.61402161029E+03  0.61402161029E+03  0.00000000000E+00 0. -1.
          1   -1    0    0  501    0 -0.00000000000E+00 -0.00000000000E+00 -0.62947635990E+03  0.62947635990E+03  0.00000000000E+00 0. -1.
         25    2    1    2    0    0  0.69640857886E+02 -0.14854800893E+03  0.64111584724E+02  0.21598896766E+03  0.12499831524E+03 0.  0.
          2    1    1    2  501    0 -0.58760647229E+02  0.12715209303E+03 -0.54436161492E+03  0.56209433036E+03  0.00000000000E+00 0. -1.
          1    1    1    2  502    0 -0.10880210657E+02  0.21395915905E+02  0.46479528060E+03  0.46541467216E+03  0.00000000000E+00 0. -1.
         22    1    3    3    0    0  0.79516705585E+02 -0.15134718158E+03  0.21680314349E+02  0.17233372238E+03  0.00000000000E+00 0.  1.
         22    1    3    3    0    0 -0.98758476997E+01  0.27991726461E+01  0.42431270374E+02  0.43655245285E+02  0.00000000000E+00 0.  1.
</event>
<event>
 7    1  0.5970484E-006  0.8670379E+02  0.7818608E-02  0.1369827E+00
          2   -1    0    0  502    0  0.00000000000E+00  0.00000000000E+00  0.15338319773E+03  0.15338319773E+03  0.00000000000E+00 0. -1.
          1   -1    0    0  501    0 -0.00000000000E+00 -0.00000000000E+00 -0.20201414589E+04  0.20201414589E+04  0.00000000000E+00 0. -1.
         25    2    1    2    0    0 -0.57880517051E+02 -0.12229506489E+03 -0.27313922745E+03  0.32944856813E+03  0.12500033729E+03 0.  0.
          2    1    1    2  501    0  0.26530719030E+02  0.80673730080E+02 -0.17123289212E+04  0.17144335695E+04  0.00000000000E+00 0. -1.
          1    1    1    2  502    0  0.31349798021E+02  0.41621334810E+02  0.11870988749E+03  0.12964251901E+03  0.00000000000E+00 0. -1.
         22    1    3    3    0    0 -0.68436955308E+01  0.15589056855E+02  0.23444486736E+01  0.17185787783E+02  0.00000000000E+00 0. -1.
         22    1    3    3    0    0 -0.51036821520E+02 -0.13788412175E+03 -0.27548367612E+03  0.31226278035E+03  0.00000000000E+00 0. -1.
</event>
<event>
 7    1  0.5970484E-006  0.1539615E+03  0.7818608E-02  0.1251427E+00
          2   -1    0    0  502    0  0.00000000000E+00  0.00000000000E+00  0.69648205847E+03  0.69648205847E+03  0.00000000000E+00 0. -1.
          1   -1    0    0  501    0 -0.00000000000E+00 -0.00000000000E+00 -0.53106451932E+03  0.53106451932E+03  0.00000000000E+00 0. -1.
         25    2    1    2    0    0 -0.18350124542E+03 -0.49058323525E+02 -0.54885576065E+02  0.23391781363E+03  0.12500276355E+03 0.  0.
          2    1    1    2  501    0  0.68718431091E+02 -0.51758274684E+02 -0.37206315245E+03  0.38187973392E+03  0.00000000000E+00 0. -1.
          1    1    1    2  502    0  0.11478281433E+03  0.10081659821E+03  0.59236626766E+03  0.61174903024E+03  0.00000000000E+00 0. -1.
         22    1    3    3    0    0 -0.15543063732E+03 -0.85698897669E+02 -0.60276937157E+02  0.18744677440E+03  0.00000000000E+00 0. -1.
         22    1    3    3    0    0 -0.28070608093E+02  0.36640574143E+02  0.53913610928E+01  0.46471039226E+02  0.00000000000E+00 0. -1.
</event>
<event>
 7    1  0.5970484E-006  0.5146183E+02  0.7818608E-02  0.1523921E+00
          2   -1    0    0  502    0  0.00000000000E+00  0.00000000000E+00  0.31157722509E+03  0.31157722509E+03  0.00000000000E+00 0. -1.
          1   -1    0    0  501    0 -0.00000000000E+00 -0.00000000000E+00 -0.37706782190E+03  0.37706782190E+03  0.00000000000E+00 0. -1.
         25    2    1    2    0    0  0.40033391369E+02  0.49059144805E+02  0.20625795996E+01  0.14014640059E+03  0.12500914866E+03 0.  0.
          2    1    1    2  501    0 -0.12069413898E+02 -0.49845212576E+02 -0.30506455628E+03  0.30934543712E+03  0.00000000000E+00 0. -1.
          1    1    1    2  502    0 -0.27963977471E+02  0.78606777097E+00  0.23751137987E+03  0.23915320928E+03  0.00000000000E+00 0. -1.
         22    1    3    3    0    0 -0.33601364698E+02  0.25417565245E+02  0.36259225097E+02  0.55586290911E+02  0.00000000000E+00 0.  1.
         22    1    3    3    0    0  0.73634756068E+02  0.23641579560E+02 -0.34196645497E+02  0.84560109676E+02  0.00000000000E+00 0.  1.
</event>
<event>
 7    1  0.5970484E-006  0.7687321E+02  0.7818608E-02  0.1343156E+00
          2   -1    0    0  502    0  0.00000000000E+00  0.00000000000E+00  0.44374364347E+03  0.44374364347E+03  0.00000000000E+00 0. -1.
          1   -1    0    0  501    0 -0.00000000000E+00 -0.00000000000E+00 -0.67828776787E+03  0.67828776787E+03  0.00000000000E+00 0. -1.
         25    2    1    2    0    0 -0.66957738704E+02  0.87324896076E+02  0.63049267064E+02  0.17807481461E+03  0.12500581296E+03 0.  0.
          2    1    1    2  501    0 -0.79898676497E+01 -0.73189634851E+02 -0.61404538344E+03  0.61844344410E+03  0.00000000000E+00 0. -1.
          1    1    1    2  502    0  0.74947606353E+02 -0.14135261225E+02  0.31645199198E+03  0.32551315263E+03  0.00000000000E+00 0. -1.
         22    1    3    3    0    0 -0.84541465783E+02  0.51167780537E+02  0.86671137771E+02  0.13144309538E+03  0.00000000000E+00 0.  1.
         22    1    3    3    0    0  0.17583727079E+02  0.36157115539E+02 -0.23621870708E+02  0.46631719224E+02  0.00000000000E+00 0.  1.
</event>
<event>
 7    1  0.5970484E-006  0.7118769E+02  0.7818608E-02  0.1491441E+00
          2   -1    0    0  502    0  0.00000000000E+00  0.00000000000E+00  0.16376367720E+04  0.16376367720E+04  0.00000000000E+00 0. -1.
          1   -1    0    0  501    0 -0.00000000000E+00 -0.00000000000E+00 -0.42675614088E+03  0.42675614088E+03  0.00000000000E+00 0. -1.
         25    2    1    2    0    0  0.71557058202E+02 -0.44207156134E+02  0.84628432961E+02  0.17279835980E+03  0.12499046464E+03 0.  0.
          2    1    1    2  501    0 -0.47730424511E+02  0.52479177181E+02 -0.37927705819E+03  0.38585404538E+03  0.00000000000E+00 0. -1.
          1    1    1    2  502    0 -0.23826633691E+02 -0.82720210477E+01  0.15055292563E+04  0.15057405077E+04  0.00000000000E+00 0. -1.
         22    1    3    3    0    0 -0.31840013062E+02 -0.36547064315E+01  0.44215866940E+02  0.54609396629E+02  0.00000000000E+00 0.  1.
         22    1    3    3    0    0  0.10339707126E+03 -0.40552449702E+02  0.40412566022E+02  0.11818896317E+03  0.00000000000E+00 0.  1.
</event>
<event>
 7    1  0.5970484E-006  0.1276272E+03  0.7818608E-02  0.1327575E+00
          2   -1    0    0  502    0  0.00000000000E+00  0.00000000000E+00  0.27480686337E+04  0.27480686337E+04  0.00000000000E+00 0. -1.
          1   -1    0    0  501    0 -0.00000000000E+00 -0.00000000000E+00 -0.62729201196E+03  0.62729201196E+03  0.00000000000E+00 0. -1.
         25    2    1    2    0    0  0.17151096066E+03 -0.43088862442E+02  0.20688977384E+04  0.20802008162E+04  0.12499969562E+03 0.  0.
          2    1    1    2  501    0 -0.12571677056E+03  0.21091426872E+02 -0.61412791158E+03  0.62721818092E+03  0.00000000000E+00 0. -1.
          1    1    1    2  502    0 -0.45794190098E+02  0.21997435570E+02  0.66600679488E+03  0.66794164853E+03  0.00000000000E+00 0. -1.
         22    1    3    3    0    0  0.63538748720E+02 -0.50210188509E+02  0.41873394004E+03  0.42649308103E+03  0.00000000000E+00 0. -1.
         22    1    3    3    0    0  0.10797221194E+03  0.71213260673E+01  0.16501637984E+04  0.16537077352E+04  0.00000000000E+00 0. -1.
</event>
<event>
 7    1  0.5970484E-006  0.7234850E+02  0.7818608E-02  0.1392882E+00
          2   -1    0    0  502    0  0.00000000000E+00  0.00000000000E+00  0.12102776572E+04  0.12102776572E+04  0.00000000000E+00 0. -1.
          1   -1    0    0  501    0 -0.00000000000E+00 -0.00000000000E+00 -0.13130707032E+04  0.13130707032E+04  0.00000000000E+00 0. -1.
         25    2    1    2    0    0  0.46704704544E+02  0.25688220012E+02  0.58494406676E+03  0.60052099087E+03  0.12499874066E+03 0.  0.
          2    1    1    2  501    0 -0.19509110075E+02 -0.69730147773E+02 -0.13031908128E+04  0.13052008249E+04  0.00000000000E+00 0. -1.
          1    1    1    2  502    0 -0.27195594469E+02  0.44041927761E+02  0.61545370003E+03  0.61762654464E+03  0.00000000000E+00 0. -1.
         22    1    3    3    0    0  0.78185396084E+02  0.40153277458E+02  0.27640778238E+03  0.29004569297E+03  0.00000000000E+00 0.  1.
         22    1    3    3    0    0 -0.31480691540E+02 -0.14465057446E+02  0.30853628437E+03  0.31047529789E+03  0.00000000000E+00 0.  1.
</event>
<event>
 7    1  0.5970484E-006  0.8994848E+02  0.7818608E-02  0.1396530E+00
          2   -1    0    0  502    0  0.00000000000E+00  0.00000000000E+00  0.13070297733E+04  0.13070297733E+04  0.00000000000E+00 0. -1.
          1   -1    0    0  501    0 -0.00000000000E+00 -0.00000000000E+00 -0.91043075704E+02  0.91043075704E+02  0.00000000000E+00 0. -1.
         25    2    1    2    0    0 -0.14934092039E+01  0.11285354434E+03  0.39149709293E+03  0.42618442366E+03  0.12500014585E+03 0.  0.
          2    1    1    2  501    0 -0.27168668747E+02 -0.29953293551E+02 -0.65829747712E+02  0.77258604957E+02  0.00000000000E+00 0. -1.
          1    1    1    2  502    0  0.28662077951E+02 -0.82900250793E+02  0.89031935243E+03  0.89462982043E+03  0.00000000000E+00 0. -1.
         22    1    3    3    0    0  0.27148435282E+02  0.13147378914E+03  0.31323330769E+03  0.34078952422E+03  0.00000000000E+00 0.  1.
         22    1    3    3    0    0 -0.28641844486E+02 -0.18620244800E+02  0.78263785237E+02  0.85394899447E+02  0.00000000000E+00 0.  1.
</event>
<event>
 7    1  0.5970484E-006  0.3094840E+03  0.7818608E-02  0.1264674E+00
          2   -1    0    0  502    0  0.00000000000E+00  0.00000000000E+00  0.10785543119E+04  0.10785543119E+04  0.00000000000E+00 0. -1.
          1   -1    0    0  501    0 -0.00000000000E+00 -0.00000000000E+00 -0.97732683987E+03  0.97732683987E+03  0.00000000000E+00 0. -1.
         25    2    1    2    0    0 -0.17327337298E+03  0.28889151313E+03 -0.13444298469E+03  0.38364251572E+03  0.12499878237E+03 0.  0.
          2    1    1    2  501    0  0.14304254709E+03 -0.26660427389E+03 -0.68602435017E+03  0.74977891286E+03  0.00000000000E+00 0. -1.
          1    1    1    2  502    0  0.30230825889E+02 -0.22287239239E+02  0.92169480688E+03  0.92245972319E+03  0.00000000000E+00 0. -1.
         22    1    3    3    0    0 -0.44667474515E+02  0.18304261530E+03 -0.10091715579E+03  0.21373828536E+03  0.00000000000E+00 0.  1.
         22    1    3    3    0    0 -0.12860589846E+03  0.10584889784E+03 -0.33525828894E+02  0.16990423036E+03  0.00000000000E+00 0.  1.
</event>
<event>
 7    1  0.5970484E-006  0.4210980E+02  0.7818608E-02  0.1589567E+00
          2   -1    0    0  502    0  0.00000000000E+00  0.00000000000E+00  0.13567835415E+04  0.13567835415E+04  0.00000000000E+00 0. -1.
          1   -1    0    0  501    0 -0.00000000000E+00 -0.00000000000E+00 -0.68191869287E+02  0.68191869287E+02  0.00000000000E+00 0. -1.
         25    2    1    2    0    0  0.61001335060E+02  0.42651413384E+01  0.37116662832E+03  0.39639379542E+03  0.12499608299E+03 0.  0.
          2    1    1    2  501    0 -0.19966430474E+02 -0.10386284465E+02 -0.52838178733E+02  0.57431754132E+02  0.00000000000E+00 0. -1.
          1    1    1    2  502    0 -0.41034904585E+02  0.61211431271E+01  0.97026322265E+03  0.97114986126E+03  0.00000000000E+00 0. -1.
         22    1    3    3    0    0  0.31532845319E+02  0.34376796560E+02  0.36889544148E+02  0.59472034967E+02  0.00000000000E+00 0.  1.
         22    1    3    3    0    0  0.29468489741E+02 -0.30111655222E+02  0.33427708417E+03  0.33692176046E+03  0.00000000000E+00 0.  1.
</event>
<event>
 7    1  0.5970484E-006  0.1862888E+03  0.7818608E-02  0.1270662E+00
          2   -1    0    0  502    0  0.00000000000E+00  0.00000000000E+00  0.14072361708E+04  0.14072361708E+04  0.00000000000E+00 0. -1.
          1   -1    0    0  501    0 -0.00000000000E+00 -0.00000000000E+00 -0.24019268213E+03  0.24019268213E+03  0.00000000000E+00 0. -1.
         25    2    1    2    0    0 -0.13860309180E+03 -0.23047459847E+02  0.41660726687E+03  0.45708660735E+03  0.12499819739E+03 0.  0.
          2    1    1    2  501    0  0.19081848285E+03 -0.41477360909E+01 -0.17743840354E+03  0.26060177314E+03  0.00000000000E+00 0. -1.
          1    1    1    2  502    0 -0.52215391057E+02  0.27195195938E+02  0.92787462530E+03  0.92974047240E+03  0.00000000000E+00 0. -1.
         22    1    3    3    0    0 -0.14929189597E+03  0.13548836340E+02  0.33533658502E+03  0.36731766418E+03  0.00000000000E+00 0.  1.
         22    1    3    3    0    0  0.10688804172E+02 -0.36596296187E+02  0.81270681850E+02  0.89768943169E+02  0.00000000000E+00 0.  1.
</event>
<event>
 7    1  0.5970484E-006  0.6736324E+02  0.7818608E-02  0.1494161E+00
          2   -1    0    0  502    0  0.00000000000E+00  0.00000000000E+00  0.16780063796E+03  0.16780063796E+03  0.00000000000E+00 0. -1.
          1   -1    0    0  501    0 -0.00000000000E+00 -0.00000000000E+00 -0.66884550717E+03  0.66884550717E+03  0.00000000000E+00 0. -1.
         25    2    1    2    0    0  0.54588061001E+02 -0.14510330791E+02  0.14240201660E+01  0.13716519011E+03  0.12498742113E+03 0.  0.
          2    1    1    2  501    0  0.15005150516E+02  0.21422790242E+02 -0.58823466199E+03  0.58881585241E+03  0.00000000000E+00 0. -1.
          1    1    1    2  502    0 -0.69593211517E+02 -0.69124594504E+01  0.85765772613E+02  0.11066510261E+03  0.00000000000E+00 0. -1.
         22    1    3    3    0    0  0.31438359393E+02  0.13300892354E-01 -0.61219518103E+02  0.68820055325E+02  0.00000000000E+00 0.  1.
         22    1    3    3    0    0  0.23149701609E+02 -0.14523631684E+02  0.62643538269E+02  0.68345134785E+02  0.00000000000E+00 0.  1.
</event>
<event>
 7    1  0.5970484E-006  0.9228393E+02  0.7818608E-02  0.1371281E+00
          2   -1    0    0  502    0  0.00000000000E+00  0.00000000000E+00  0.18867456061E+04  0.18867456061E+04  0.00000000000E+00 0. -1.
          1   -1    0    0  501    0 -0.00000000000E+00 -0.00000000000E+00 -0.14050413589E+04  0.14050413589E+04  0.00000000000E+00 0. -1.
         25    2    1    2    0    0 -0.91679731507E+02 -0.45367866959E+02  0.26991794120E+03  0.31455380273E+03  0.12499993324E+03 0.  0.
          2    1    1    2  501    0  0.53569788631E+02  0.75157211306E+02 -0.13808156799E+04  0.13838967702E+04  0.00000000000E+00 0. -1.
          1    1    1    2  502    0  0.38109942876E+02 -0.29789344347E+02  0.15926019859E+04  0.15933363921E+04  0.00000000000E+00 0. -1.
         22    1    3    3    0    0 -0.26921916962E+02  0.18035640880E-01  0.21867009670E+03  0.22032113183E+03  0.00000000000E+00 0. -1.
         22    1    3    3    0    0 -0.64757814545E+02 -0.45385902600E+02  0.51247844492E+02  0.94232670898E+02  0.00000000000E+00 0. -1.
</event>
<event>
 7    1  0.5970484E-006  0.1971879E+03  0.7818608E-02  0.1251944E+00
          2   -1    0    0  502    0  0.00000000000E+00  0.00000000000E+00  0.33203125845E+04  0.33203125845E+04  0.00000000000E+00 0. -1.
          1   -1    0    0  501    0 -0.00000000000E+00 -0.00000000000E+00 -0.84522204107E+03  0.84522204107E+03  0.00000000000E+00 0. -1.
         25    2    1    2    0    0 -0.11688771212E+03 -0.85334986764E+02  0.18264466025E+02  0.19210324198E+03  0.12500107059E+03 0.  0.
          2    1    1    2  501    0  0.14138386166E+03  0.14750927787E+03 -0.74418382516E+03  0.77172401092E+03  0.00000000000E+00 0. -1.
          1    1    1    2  502    0 -0.24496149539E+02 -0.62174291102E+02  0.32010099026E+04  0.32017073727E+04  0.00000000000E+00 0. -1.
         22    1    3    3    0    0  0.10108233574E+02  0.71032469959E+01  0.32123439816E+02  0.34417261505E+02  0.00000000000E+00 0. -1.
         22    1    3    3    0    0 -0.12699594570E+03 -0.92438233760E+02 -0.13858973791E+02  0.15768598048E+03  0.00000000000E+00 0. -1.
</event>
<event>
 7    1  0.5970484E-006  0.7081365E+02  0.7818608E-02  0.1469592E+00
          2   -1    0    0  502    0  0.00000000000E+00  0.00000000000E+00  0.16451675683E+04  0.16451675683E+04  0.00000000000E+00 0. -1.
          1   -1    0    0  501    0 -0.00000000000E+00 -0.00000000000E+00 -0.72009267712E+02  0.72009267712E+02  0.00000000000E+00 0. -1.
         25    2    1    2    0    0  0.31031934981E+02 -0.66899861759E+02  0.56847012576E+03  0.58670386804E+03  0.12499828959E+03 0.  0.
          2    1    1    2  501    0  0.22129106491E+02  0.19633106245E+02 -0.58157654157E+02  0.65249283153E+02  0.00000000000E+00 0. -1.
          1    1    1    2  502    0 -0.53161041472E+02  0.47266755514E+02  0.10628458290E+04  0.10652236848E+04  0.00000000000E+00 0. -1.
         22    1    3    3    0    0 -0.98890541480E+01  0.34400447695E+02  0.14908568620E+03  0.15332229460E+03  0.00000000000E+00 0.  1.
         22    1    3    3    0    0  0.40920989129E+02 -0.10130030945E+03  0.41938443956E+03  0.43338157344E+03  0.00000000000E+00 0.  1.
</event>
<event>
 7    1  0.5970484E-006  0.1475524E+03  0.7818608E-02  0.1309397E+00
          2   -1    0    0  502    0  0.00000000000E+00  0.00000000000E+00  0.28094406747E+04  0.28094406747E+04  0.00000000000E+00 0. -1.
          1   -1    0    0  501    0 -0.00000000000E+00 -0.00000000000E+00 -0.36981314183E+02  0.36981314183E+02  0.00000000000E+00 0. -1.
         25    2    1    2    0    0  0.15175655944E+03 -0.84743713995E+02  0.18295059290E+04  0.18419906808E+04  0.12500469402E+03 0.  0.
          2    1    1    2  501    0 -0.14153762203E+03  0.34052039064E+02  0.14729698557E+03  0.20709621380E+03  0.00000000000E+00 0. -1.
          1    1    1    2  502    0 -0.10218937408E+02  0.50691674931E+02  0.79565644598E+03  0.79733509431E+03  0.00000000000E+00 0. -1.
         22    1    3    3    0    0  0.17378578393E+03 -0.70226854435E+02  0.15711736736E+04  0.15823147672E+04  0.00000000000E+00 0.  1.
         22    1    3    3    0    0 -0.22029224490E+02 -0.14516859560E+02  0.25833225541E+03  0.25967591365E+03  0.00000000000E+00 0.  1.
</event>
<event>
 7    1  0.5970484E-006  0.7800053E+02  0.7818608E-02  0.1436904E+00
          2   -1    0    0  502    0  0.00000000000E+00  0.00000000000E+00  0.77313846478E+03  0.77313846478E+03  0.00000000000E+00 0. -1.
          1   -1    0    0  501    0 -0.00000000000E+00 -0.00000000000E+00 -0.21078660456E+03  0.21078660456E+03  0.00000000000E+00 0. -1.
         25    2    1    2    0    0 -0.61224736573E+02 -0.65838117195E+02 -0.25049023734E+02  0.15600155836E+03  0.12500362626E+03 0.  0.
          2    1    1    2  501    0  0.69447859702E+02  0.32709762396E+02 -0.10754934555E+03  0.13213551946E+03  0.00000000000E+00 0. -1.
          1    1    1    2  502    0 -0.82231231287E+01  0.33128354799E+02  0.69495022951E+03  0.69578799152E+03  0.00000000000E+00 0. -1.
         22    1    3    3    0    0 -0.12686892143E+02 -0.46940198802E+02  0.46647453961E+02  0.67381929750E+02  0.00000000000E+00 0.  1.
         22    1    3    3    0    0 -0.48537844430E+02 -0.18897918393E+02 -0.71696477695E+02  0.88619628612E+02  0.00000000000E+00 0.  1.
</event>
<event>
 7    1  0.5970484E-006  0.7716225E+02  0.7818608E-02  0.1375523E+00
          2   -1    0    0  502    0  0.00000000000E+00  0.00000000000E+00  0.43736920626E+04  0.43736920626E+04  0.00000000000E+00 0. -1.
          1   -1    0    0  501    0 -0.00000000000E+00 -0.00000000000E+00 -0.94502658933E+03  0.94502658933E+03  0.00000000000E+00 0. -1.
         25    2    1    2    0    0 -0.24730132887E+02  0.12080808386E+03  0.92731831483E+03  0.94379629647E+03  0.12500407834E+03 0.  0.
          2    1    1    2  501    0  0.31669386755E+02 -0.46020727802E+02 -0.93554407184E+03  0.93721052480E+03  0.00000000000E+00 0. -1.
          1    1    1    2  502    0 -0.69392538677E+01 -0.74787356053E+02  0.34368912303E+04  0.34377118307E+04  0.00000000000E+00 0. -1.
         22    1    3    3    0    0 -0.39172704459E+02 -0.11071341773E+02  0.16023124211E+03  0.16532128215E+03  0.00000000000E+00 0.  1.
         22    1    3    3    0    0  0.14442571572E+02  0.13187942563E+03  0.76708707273E+03  0.77847501432E+03  0.00000000000E+00 0.  1.
</event>
<event>
 7    1  0.5970484E-006  0.9695069E+02  0.7818608E-02  0.1340321E+00
          2   -1    0    0  502    0  0.00000000000E+00  0.00000000000E+00  0.11154490086E+04  0.11154490086E+04  0.00000000000E+00 0. -1.
          1   -1    0    0  501    0 -0.00000000000E+00 -0.00000000000E+00 -0.40774675087E+03  0.40774675087E+03  0.00000000000E+00 0. -1.
         25    2    1    2    0    0  0.29762638184E+02  0.91685353638E+02 -0.30488045142E+02  0.16076764177E+03  0.12499878015E+03 0.  0.
          2    1    1    2  501    0 -0.79686953700E+02 -0.58721332154E+02 -0.30339079151E+03  0.31913034612E+03  0.00000000000E+00 0. -1.
          1    1    1    2  502    0  0.49924315516E+02 -0.32964021484E+02  0.10415810944E+04  0.10432977716E+04  0.00000000000E+00 0. -1.
         22    1    3    3    0    0  0.14273087936E+02  0.10750682497E+03 -0.59946960359E+02  0.12391560237E+03  0.00000000000E+00 0. -1.
         22    1    3    3    0    0  0.15489550249E+02 -0.15821471334E+02  0.29458915217E+02  0.36852039399E+02  0.00000000000E+00 0. -1.
</event>
<event>
 7    1  0.5970484E-006  0.5400193E+02  0.7818608E-02  0.1557980E+00
          2   -1    0    0  502    0  0.00000000000E+00  0.00000000000E+00  0.20493204349E+04  0.20493204349E+04  0.00000000000E+00 0. -1.
          1   -1    0    0  501    0 -0.00000000000E+00 -0.00000000000E+00 -0.77270376048E+01  0.77270376048E+01  0.00000000000E+00 0. -1.
         25    2    1    2    0    0 -0.34402656421E+02  0.71132469502E+01  0.14339432676E+04  0.14398098838E+04  0.12500026298E+03 0.  0.
          2    1    1    2  501    0  0.55752834413E+02 -0.78762075933E+01  0.17031973555E+03  0.17938568926E+03  0.00000000000E+00 0. -1.
          1    1    1    2  502    0 -0.21350177991E+02  0.76296064305E+00  0.43733039413E+03  0.43785189944E+03  0.00000000000E+00 0. -1.
         22    1    3    3    0    0 -0.45290523476E+02 -0.51303841783E+02  0.89107424961E+03  0.89369829027E+03  0.00000000000E+00 0. -1.
         22    1    3    3    0    0  0.10887867055E+02  0.58417088733E+02  0.54286901803E+03  0.54611159358E+03  0.00000000000E+00 0. -1.
</event>
<event>
 7    1  0.5970484E-006  0.1305559E+03  0.7818608E-02  0.1262756E+00
          2   -1    0    0  502    0  0.00000000000E+00  0.00000000000E+00  0.45617696739E+03  0.45617696739E+03  0.00000000000E+00 0. -1.
          1   -1    0    0  501    0 -0.00000000000E+00 -0.00000000000E+00 -0.68947352056E+03  0.68947352056E+03  0.00000000000E+00 0. -1.
         25    2    1    2    0    0  0.21416583860E+01  0.93755534433E+02 -0.26536676582E+03  0.30795984688E+03  0.12500023981E+03 0.  0.
          2    1    1    2  501    0  0.90709256095E+02  0.11282317721E+01 -0.38731402687E+03  0.39779592439E+03  0.00000000000E+00 0. -1.
          1    1    1    2  502    0 -0.92850914481E+02 -0.94883766205E+02  0.41938423952E+03  0.43989471669E+03  0.00000000000E+00 0. -1.
         22    1    3    3    0    0 -0.41138607053E+02  0.10387111137E+03 -0.19475059154E+03  0.22452034579E+03  0.00000000000E+00 0.  1.
         22    1    3    3    0    0  0.43280265439E+02 -0.10115576933E+02 -0.70616174279E+02  0.83439501095E+02  0.00000000000E+00 0.  1.
</event>
<event>
 7    1  0.5970484E-006  0.6561102E+02  0.7818608E-02  0.1494095E+00
          2   -1    0    0  502    0  0.00000000000E+00  0.00000000000E+00  0.26555960342E+03  0.26555960342E+03  0.00000000000E+00 0. -1.
          1   -1    0    0  501    0 -0.00000000000E+00 -0.00000000000E+00 -0.48529450630E+03  0.48529450630E+03  0.00000000000E+00 0. -1.
         25    2    1    2    0    0 -0.36087562611E+02 -0.22009902714E+02 -0.85116221242E+02  0.15702628766E+03  0.12500294358E+03 0.  0.
          2    1    1    2  501    0  0.62729470141E+02  0.25472443869E+02 -0.36027320869E+03  0.36657961853E+03  0.00000000000E+00 0. -1.
          1    1    1    2  502    0 -0.26641907531E+02 -0.34625411549E+01  0.22565452706E+03  0.22724820353E+03  0.00000000000E+00 0. -1.
         22    1    3    3    0    0 -0.22729897704E+02 -0.73501456870E+02 -0.62907937856E+02  0.99380687545E+02  0.00000000000E+00 0.  1.
         22    1    3    3    0    0 -0.13357664907E+02  0.51491554157E+02 -0.22208283386E+02  0.57645600111E+02  0.00000000000E+00 0.  1.
</event>
<event>
 7    1  0.5970484E-006  0.8999198E+02  0.7818608E-02  0.1321120E+00
          2   -1    0    0  502    0  0.00000000000E+00  0.00000000000E+00  0.74842347959E+03  0.74842347959E+03  0.00000000000E+00 0. -1.
          1   -1    0    0  501    0 -0.00000000000E+00 -0.00000000000E+00 -0.64636398232E+03  0.64636398232E+03  0.00000000000E+00 0. -1.
         25    2    1    2    0    0 -0.36545245621E+02  0.85384931503E+02 -0.69442308355E+01  0.15588303778E+03  0.12500063048E+03 0.  0.
          2    1    1    2  501    0 -0.50139246681E+02 -0.57509439967E+02 -0.55927271606E+03  0.56445305445E+03  0.00000000000E+00 0. -1.
          1    1    1    2  502    0  0.86684492301E+02 -0.27875491536E+02  0.66827644417E+03  0.67445136968E+03  0.00000000000E+00 0. -1.
         22    1    3    3    0    0 -0.21602465075E+01  0.44166910500E+02  0.57163404215E+02  0.72270584816E+02  0.00000000000E+00 0. -1.
         22    1    3    3    0    0 -0.34384999113E+02  0.41218021003E+02 -0.64107635051E+02  0.83612452967E+02  0.00000000000E+00 0. -1.
</event>
<event>
 7    1  0.5970484E-006  0.9050792E+02  0.7818608E-02  0.1465805E+00
          2   -1    0    0  502    0  0.00000000000E+00  0.00000000000E+00  0.97909796766E+03  0.97909796766E+03  0.00000000000E+00 0. -1.
          1   -1    0    0  501    0 -0.00000000000E+00 -0.00000000000E+00 -0.11369322376E+03  0.11369322376E+03  0.00000000000E+00 0. -1.
         25    2    1    2    0    0 -0.80847945750E+02  0.57063561505E+02  0.58875511619E+03  0.60995962207E+03  0.12500205332E+03 0.  0.
          2    1    1    2  501    0  0.22471853872E+02  0.77915473031E+01 -0.96617038455E+02  0.99501480118E+02  0.00000000000E+00 0. -1.
          1    1    1    2  502    0  0.58376091877E+02 -0.64855108809E+02  0.37326666617E+03  0.38333008923E+03  0.00000000000E+00 0. -1.
         22    1    3    3    0    0 -0.15269253541E+02 -0.21028512064E+02  0.34168965560E+03  0.34267647886E+03  0.00000000000E+00 0.  1.
         22    1    3    3    0    0 -0.65578692209E+02  0.78092073570E+02  0.24706546059E+03  0.26728314321E+03  0.00000000000E+00 0.  1.
</event>
<event>
 7    1  0.5970484E-006  0.1028926E+03  0.7818608E-02  0.1378373E+00
          2   -1    0    0  502    0  0.00000000000E+00  0.00000000000E+00  0.79294614461E+03  0.79294614461E+03  0.00000000000E+00 0. -1.
          1   -1    0    0  501    0 -0.00000000000E+00 -0.00000000000E+00 -0.16526271790E+04  0.16526271790E+04  0.00000000000E+00 0. -1.
         25    2    1    2    0    0  0.50281134299E+02  0.96182123185E+02  0.25077065573E+03  0.30048264696E+03  0.12499882425E+03 0.  0.
          2    1    1    2  501    0 -0.78500306634E+02 -0.66538571283E+02 -0.16253319184E+04  0.16285863578E+04  0.00000000000E+00 0. -1.
          1    1    1    2  502    0  0.28219172335E+02 -0.29643551903E+02  0.51488022834E+03  0.51650431886E+03  0.00000000000E+00 0. -1.
         22    1    3    3    0    0 -0.25237297798E+02  0.47277646825E+02  0.17446719649E+03  0.18251273857E+03  0.00000000000E+00 0.  1.
         22    1    3    3    0    0  0.75518432097E+02  0.48904476361E+02  0.76303459239E+02  0.11796990839E+03  0.00000000000E+00 0.  1.
</event>
<event>
 7    1  0.5970484E-006  0.9315749E+02  0.7818608E-02  0.1310747E+00
          2   -1    0    0  502    0  0.00000000000E+00  0.00000000000E+00  0.20160227256E+04  0.20160227256E+04  0.00000000000E+00 0. -1.
          1   -1    0    0  501    0 -0.00000000000E+00 -0.00000000000E+00 -0.97831777593E+03  0.97831777593E+03  0.00000000000E+00 0. -1.
         25    2    1    2    0    0  0.16364472718E+03 -0.21885613549E+02  0.79660930861E+03  0.82308491008E+03  0.12499520720E+03 0.  0.
          2    1    1    2  501    0 -0.80878374963E+02  0.22178233477E+01 -0.96187943473E+03  0.96527626990E+03  0.00000000000E+00 0. -1.
          1    1    1    2  502    0 -0.82766352216E+02  0.19667790201E+02  0.12029750758E+04  0.12059793216E+04  0.00000000000E+00 0. -1.
         22    1    3    3    0    0  0.47481488195E+02 -0.56733195623E+02  0.17908541964E+03  0.19376463747E+03  0.00000000000E+00 0. -1.
         22    1    3    3    0    0  0.11616323898E+03  0.34847582074E+02  0.61752388897E+03  0.62932027261E+03  0.00000000000E+00 0. -1.
</event>
<event>
 7    1  0.5970484E-006  0.5442964E+02  0.7818608E-02  0.1439551E+00
          2   -1    0    0  502    0  0.00000000000E+00  0.00000000000E+00  0.76279974729E+02  0.76279974729E+02  0.00000000000E+00 0. -1.
          1   -1    0    0  501    0 -0.00000000000E+00 -0.00000000000E+00 -0.29680040841E+04  0.29680040841E+04  0.00000000000E+00 0. -1.
         25    2    1    2    0    0  0.92737090355E+02 -0.41109674877E+02 -0.12068234811E+04  0.12175149892E+04  0.12501864295E+03 0.  0.
          2    1    1    2  501    0 -0.45709041614E+02  0.14503218116E+02 -0.17451678712E+04  0.17458266118E+04  0.00000000000E+00 0. -1.
          1    1    1    2  502    0 -0.47028048741E+02  0.26606456760E+02  0.60267242927E+02  0.80942457831E+02  0.00000000000E+00 0. -1.
         22    1    3    3    0    0  0.11055059079E+02 -0.63246761675E+02 -0.30241398840E+03  0.30915463376E+03  0.00000000000E+00 0. -1.
         22    1    3    3    0    0  0.81682031276E+02  0.22137086799E+02 -0.90440949271E+03  0.90836035545E+03  0.00000000000E+00 0. -1.
</event>
<event>
 7    1  0.5970484E-006  0.8907831E+02  0.7818608E-02  0.1474192E+00
          2   -1    0    0  502    0  0.00000000000E+00  0.00000000000E+00  0.11247539745E+04  0.11247539745E+04  0.00000000000E+00 0. -1.
          1   -1    0    0  501    0 -0.00000000000E+00 -0.00000000000E+00 -0.28402118472E+03  0.28402118472E+03  0.00000000000E+00 0. -1.
         25    2    1    2    0    0  0.11435923260E+02 -0.90084415350E+02  0.30223782724E+03  0.33943889788E+03  0.12500031579E+03 0.  0.
          2    1    1    2  501    0  0.11257863577E+02  0.88389785924E+02 -0.25777528628E+03  0.27274088796E+03  0.00000000000E+00 0. -1.
          1    1    1    2  502    0 -0.22693786837E+02  0.16946294260E+01  0.79627024883E+03  0.79659537339E+03  0.00000000000E+00 0. -1.
         22    1    3    3    0    0  0.49124779614E+02 -0.56520183018E+02  0.72526844685E+02  0.10424930820E+03  0.00000000000E+00 0. -1.
         22    1    3    3    0    0 -0.37688856354E+02 -0.33564232332E+02  0.22971098256E+03  0.23518958968E+03  0.00000000000E+00 0. -1.
</event>
<event>
 7    1  0.5970484E-006  0.2272962E+03  0.7818608E-02  0.1235055E+00
          2   -1    0    0  502    0  0.00000000000E+00  0.00000000000E+00  0.81001549600E+03  0.81001549600E+03  0.00000000000E+00 0. -1.
          1   -1    0    0  501    0 -0.00000000000E+00 -0.00000000000E+00 -0.25641761999E+03  0.25641761999E+03  0.00000000000E+00 0. -1.
         25    2    1    2    0    0 -0.15436208683E+03  0.12208518948E+03  0.12577766990E+03  0.26491021050E+03  0.12499980016E+03 0.  0.
          2    1    1    2  501    0  0.92506483569E+01  0.68127643681E+02 -0.15605710925E+03  0.17053085256E+03  0.00000000000E+00 0. -1.
          1    1    1    2  502    0  0.14511143847E+03 -0.19021283316E+03  0.58387731535E+03  0.63099205293E+03  0.00000000000E+00 0. -1.
         22    1    3    3    0    0 -0.43491662940E+02 -0.23366151068E+02  0.36472373628E+02  0.61381884942E+02  0.00000000000E+00 0. -1.
         22    1    3    3    0    0 -0.11087042389E+03  0.14545134055E+03  0.89305296276E+02  0.20352832556E+03  0.00000000000E+00 0. -1.
</event>
<event>
 7    1  0.5970484E-006  0.9011655E+02  0.7818608E-02  0.1319952E+00
          2   -1    0    0  502    0  0.00000000000E+00  0.00000000000E+00  0.19418856047E+04  0.19418856047E+04  0.00000000000E+00 0. -1.
          1   -1    0    0  501    0 -0.00000000000E+00 -0.00000000000E+00 -0.10189829442E+03  0.10189829442E+03  0.00000000000E+00 0. -1.
         25    2    1    2    0    0  0.55414780800E+02 -0.34175985620E+02  0.81413038207E+03  0.82623976228E+03  0.12500027936E+03 0.  0.
          2    1    1    2  501    0 -0.39824910672E+01  0.91466612084E+02 -0.72320286697E+02  0.11667144136E+03  0.00000000000E+00 0. -1.
          1    1    1    2  502    0 -0.51432289733E+02 -0.57290626464E+02  0.10981772149E+04  0.11008726955E+04  0.00000000000E+00 0. -1.
         22    1    3    3    0    0 -0.31271002896E+02 -0.39835265007E+02  0.21748592938E+03  0.22330439637E+03  0.00000000000E+00 0. -1.
         22    1    3    3    0    0  0.86685783696E+02  0.56592793873E+01  0.59664445269E+03  0.60293536591E+03  0.00000000000E+00 0. -1.
</event>
<event>
 7    1  0.5970484E-006  0.1299328E+03  0.7818608E-02  0.1383487E+00
          2   -1    0    0  502    0  0.00000000000E+00  0.00000000000E+00  0.86844948591E+03  0.86844948591E+03  0.00000000000E+00 0. -1.
          1   -1    0    0  501    0 -0.00000000000E+00 -0.00000000000E+00 -0.88424479233E+03  0.88424479233E+03  0.00000000000E+00 0. -1.
         25    2    1    2    0    0  0.10032163454E+03 -0.52059422662E+02 -0.17049780056E+02  0.16938225582E+03  0.12500015897E+03 0.  0.
          2    1    1    2  501    0  0.98827590860E+00 -0.31072287999E+02 -0.78529978624E+03  0.78591489236E+03  0.00000000000E+00 0. -1.
          1    1    1    2  502    0 -0.10130991045E+03  0.83131710661E+02  0.78655425988E+03  0.79739713005E+03  0.00000000000E+00 0. -1.
         22    1    3    3    0    0  0.93062816257E+02 -0.11871959458E+02  0.37675369427E+02  0.10109928117E+03  0.00000000000E+00 0.  1.
         22    1    3    3    0    0  0.72588182822E+01 -0.40187463204E+02 -0.54725149483E+02  0.68282974654E+02  0.00000000000E+00 0.  1.
</event>
<event>
 7    1  0.5970484E-006  0.4456451E+02  0.7818608E-02  0.1545113E+00
          2   -1    0    0  502    0  0.00000000000E+00  0.00000000000E+00  0.71827931136E+03  0.71827931136E+03  0.00000000000E+00 0. -1.
          1   -1    0    0  501    0 -0.00000000000E+00 -0.00000000000E+00 -0.26230197374E+03  0.26230197374E+03  0.00000000000E+00 0. -1.
         25    2    1    2    0    0 -0.51609951037E+01 -0.23657640400E+02  0.55291872277E+02  0.13881068870E+03  0.12499958535E+03 0.  0.
          2    1    1    2  501    0 -0.15941814485E+02  0.42232884428E+02 -0.21791002385E+03  0.22253659580E+03  0.00000000000E+00 0. -1.
          1    1    1    2  502    0  0.21102809589E+02 -0.18575244028E+02  0.61859548919E+03  0.61923400061E+03  0.00000000000E+00 0. -1.
         22    1    3    3    0    0 -0.49827269808E+02 -0.53236425002E+02  0.23979064482E+02  0.76758512863E+02  0.00000000000E+00 0. -1.
         22    1    3    3    0    0  0.44666274704E+02  0.29578784602E+02  0.31312807795E+02  0.62052175840E+02  0.00000000000E+00 0. -1.
</event>
<event>
 7    1  0.5970484E-006  0.1724286E+03  0.7818608E-02  0.1230968E+00
          2   -1    0    0  502    0  0.00000000000E+00  0.00000000000E+00  0.62092678176E+03  0.62092678176E+03  0.00000000000E+00 0. -1.
          1   -1    0    0  501    0 -0.00000000000E+00 -0.00000000000E+00 -0.24115511456E+03  0.24115511456E+03  0.00000000000E+00 0. -1.
         25    2    1    2    0    0 -0.47659115220E+01  0.12797351872E+03  0.20028926160E+03  0.26859057941E+03  0.12500070251E+03 0.  0.
          2    1    1    2  501    0  0.94926069456E+02 -0.15633768790E+03 -0.15882121452E+03  0.24223255253E+03  0.00000000000E+00 0. -1.
          1    1    1    2  502    0 -0.90160157934E+02  0.28364169178E+02  0.33830362012E+03  0.35125876439E+03  0.00000000000E+00 0. -1.
         22    1    3    3    0    0 -0.17952418168E+02 -0.14889650424E+02  0.14147036355E+01  0.23366480142E+02  0.00000000000E+00 0.  1.
         22    1    3    3    0    0  0.13186506646E+02  0.14286316915E+03  0.19887455796E+03  0.24522409927E+03  0.00000000000E+00 0.  1.
</event>
<event>
 7    1  0.5970484E-006  0.1051046E+03  0.7818608E-02  0.1316116E+00
          2   -1    0    0  502    0  0.00000000000E+00  0.00000000000E+00  0.91925254360E+03  0.91925254360E+03  0.00000000000E+00 0. -1.
          1   -1    0    0  501    0 -0.00000000000E+00 -0.00000000000E+00 -0.40971373232E+03  0.40971373232E+03  0.00000000000E+00 0. -1.
         25    2    1    2    0    0 -0.18574795670E+02  0.68365472443E+02  0.28632076915E+02  0.14650595391E+03  0.12500135137E+03 0.  0.
          2    1    1    2  501    0  0.86883868212E+02 -0.67163780045E+02 -0.34072909993E+03  0.35798896554E+03  0.00000000000E+00 0. -1.
          1    1    1    2  502    0 -0.68309072542E+02 -0.12016923981E+01  0.82163583430E+03  0.82447135648E+03  0.00000000000E+00 0. -1.
         22    1    3    3    0    0 -0.70046098199E+02  0.24001416076E+02  0.26091242651E+02  0.78506539789E+02  0.00000000000E+00 0.  1.
         22    1    3    3    0    0  0.51471302529E+02  0.44364056367E+02  0.25408342633E+01  0.67999414116E+02  0.00000000000E+00 0.  1.
</event>
<event>
 7    1  0.5970484E-006  0.5327388E+02  0.7818608E-02  0.1451342E+00
          2   -1    0    0  502    0  0.00000000000E+00  0.00000000000E+00  0.52800857118E+03  0.52800857118E+03  0.00000000000E+00 0. -1.
          1   -1    0    0  501    0 -0.00000000000E+00 -0.00000000000E+00 -0.33513964336E+02  0.33513964336E+02  0.00000000000E+00 0. -1.
         25    2    1    2    0    0 -0.15866326524E+02 -0.57836106301E+02  0.22317142584E+03  0.26272393383E+03  0.12498649761E+03 0.  0.
          2    1    1    2  501    0  0.48389682211E+02  0.26890304817E+02  0.55624430182E+02  0.78477557752E+02  0.00000000000E+00 0. -1.
          1    1    1    2  502    0 -0.32523355687E+02  0.30945801484E+02  0.21569875082E+03  0.22032104393E+03  0.00000000000E+00 0. -1.
         22    1    3    3    0    0 -0.66032529140E+02 -0.22973994875E+02  0.75419228612E+02  0.10284045600E+03  0.00000000000E+00 0. -1.
         22    1    3    3    0    0  0.50166202617E+02 -0.34862111426E+02  0.14775219723E+03  0.15988347783E+03  0.00000000000E+00 0. -1.
</event>
<event>
 7    1  0.5970484E-006  0.1515703E+03  0.7818608E-02  0.1358402E+00
          2   -1    0    0  502    0  0.00000000000E+00  0.00000000000E+00  0.64421506937E+03  0.64421506937E+03  0.00000000000E+00 0. -1.
          1   -1    0    0  501    0 -0.00000000000E+00 -0.00000000000E+00 -0.20534442082E+03  0.20534442082E+03  0.00000000000E+00 0. -1.
         25    2    1    2    0    0  0.91018701152E+02  0.99389060325E+02  0.23145918867E+03  0.29556924467E+03  0.12500093242E+03 0.  0.
          2    1    1    2  501    0  0.87519365922E+00  0.32779681787E+02 -0.15447439340E+03  0.15791647070E+03  0.00000000000E+00 0. -1.
          1    1    1    2  502    0 -0.91893894812E+02 -0.13216874211E+03  0.36188585328E+03  0.39607377482E+03  0.00000000000E+00 0. -1.
         22    1    3    3    0    0  0.10662495608E+03  0.80306748152E+02  0.11396419458E+03  0.17551607534E+03  0.00000000000E+00 0.  1.
         22    1    3    3    0    0 -0.15606254923E+02  0.19082312173E+02  0.11749499409E+03  0.12005316933E+03  0.00000000000E+00 0.  1.
</event>
<event>
 7    1  0.5970484E-006  0.7375378E+02  0.7818608E-02  0.1445154E+00
          2   -1    0    0  502    0  0.00000000000E+00  0.00000000000E+00  0.71627713358E+03  0.71627713358E+03  0.00000000000E+00 0. -1.
          1   -1    0    0  501    0 -0.00000000000E+00 -0.00000000000E+00 -0.78650486586E+03  0.78650486586E+03  0.00000000000E+00 0. -1.
         25    2    1    2    0    0  0.25415124681E+02 -0.68953614847E+02 -0.17295631232E+03  0.22569363047E+03  0.12499279700E+03 0.  0.
          2    1    1    2  501    0 -0.33655004771E+02 -0.44182245594E+01 -0.58471089153E+03  0.58569531902E+03  0.00000000000E+00 0. -1.
          1    1    1    2  502    0  0.82398800901E+01  0.73371839407E+02  0.68743947157E+03  0.69139304995E+03  0.00000000000E+00 0. -1.
         22    1    3    3    0    0 -0.39977595714E+02 -0.10690468635E+02 -0.11085728894E+03  0.11832934036E+03  0.00000000000E+00 0.  1.
         22    1    3    3    0    0  0.65392720395E+02 -0.58263146212E+02 -0.62099023382E+02  0.10736429012E+03  0.00000000000E+00 0.  1.
</event>
<event>
 7    1  0.5970484E-006  0.1502639E+03  0.7818608E-02  0.1320491E+00
          2   -1    0    0  502    0  0.00000000000E+00  0.00000000000E+00  0.21720258514E+04  0.21720258514E+04  0.00000000000E+00 0. -1.
          1   -1    0    0  501    0 -0.00000000000E+00 -0.00000000000E+00 -0.26453110594E+03  0.26453110594E+03  0.00000000000E+00 0. -1.
         25    2    1    2    0    0 -0.15803052610E+03  0.38573821578E+02  0.10094524634E+04  0.10300878383E+04  0.12500036728E+03 0.  0.
          2    1    1    2  501    0  0.14998410597E+03  0.66670298159E+01 -0.23153939055E+03  0.27595320383E+03  0.00000000000E+00 0. -1.
          1    1    1    2  502    0  0.80464201352E+01 -0.45240851394E+02  0.11295816726E+04  0.11305159152E+04  0.00000000000E+00 0. -1.
         22    1    3    3    0    0 -0.72280991949E+02  0.15344309496E+02  0.16276705186E+03  0.17875430849E+03  0.00000000000E+00 0.  1.
         22    1    3    3    0    0 -0.85749534152E+02  0.23229512082E+02  0.84668541158E+03  0.85133352984E+03  0.00000000000E+00 0.  1.
</event>
<event>
 7    1  0.5970484E-006  0.1132285E+03  0.7818608E-02  0.1290036E+00
          2   -1    0    0  502    0  0.00000000000E+00  0.00000000000E+00  0.88657240797E+03  0.88657240797E+03  0.00000000000E+00 0. -1.
          1   -1    0    0  501    0 -0.00000000000E+00 -0.00000000000E+00 -0.23664858054E+03  0.23664858054E+03  0.00000000000E+00 0. -1.
         25    2    1    2    0    0 -0.15427317335E+02  0.17725679377E+03  0.28771277232E+03  0.36064194744E+03  0.12500400730E+03 0.  0.
          2    1    1    2  501    0  0.32632710302E+02 -0.73655347128E+02 -0.18689595968E+03  0.20351929561E+03  0.00000000000E+00 0. -1.
          1    1    1    2  502    0 -0.17205392967E+02 -0.10360144664E+03  0.54910701479E+03  0.55905974545E+03  0.00000000000E+00 0. -1.
         22    1    3    3    0    0  0.60068862027E+01  0.12395063481E+03  0.86195456684E+02  0.15109433909E+03  0.00000000000E+00 0. -1.
         22    1    3    3    0    0 -0.21434203538E+02  0.53306158953E+02  0.20151731564E+03  0.20954760835E+03  0.00000000000E+00 0. -1.
</event>
<event>
 7    1  0.5970484E-006  0.8258773E+02  0.7818608E-02  0.1397674E+00
          2   -1    0    0  502    0  0.00000000000E+00  0.00000000000E+00  0.93327987581E+03  0.93327987581E+03  0.00000000000E+00 0. -1.
          1   -1    0    0  501    0 -0.00000000000E+00 -0.00000000000E+00 -0.30030103270E+03  0.30030103270E+03  0.00000000000E+00 0. -1.
         25    2    1    2    0    0  0.59281385997E+01  0.91860949126E+02  0.18824592327E+03  0.24399457010E+03  0.12499298305E+03 0.  0.
          2    1    1    2  501    0 -0.43753254426E+02 -0.70086702370E+02 -0.26547684991E+03  0.27803677987E+03  0.00000000000E+00 0. -1.
          1    1    1    2  502    0  0.37825115827E+02 -0.21774246756E+02  0.71020976975E+03  0.71154955854E+03  0.00000000000E+00 0. -1.
         22    1    3    3    0    0  0.47835605301E+02  0.25362443502E+02  0.18988756678E+02  0.57376576711E+02  0.00000000000E+00 0. -1.
         22    1    3    3    0    0 -0.41907466701E+02  0.66498505624E+02  0.16925716659E+03  0.18661799339E+03  0.00000000000E+00 0. -1.
</event>
<event>
 7    1  0.5970484E-006  0.4230769E+02  0.7818608E-02  0.1552567E+00
          2   -1    0    0  502    0  0.00000000000E+00  0.00000000000E+00  0.19010718340E+04  0.19010718340E+04  0.00000000000E+00 0. -1.
          1   -1    0    0  501    0 -0.00000000000E+00 -0.00000000000E+00 -0.26391227799E+02  0.26391227799E+02  0.00000000000E+00 0. -1.
         25    2    1    2    0    0  0.59584914382E+02  0.30857602902E+02  0.21688202691E+03  0.25916070046E+03  0.12499560547E+03 0.  0.
          2    1    1    2  501    0 -0.28057423260E+02 -0.30873612109E+01  0.35017522991E+02  0.44977524561E+02  0.00000000000E+00 0. -1.
          1    1    1    2  502    0 -0.31527491122E+02 -0.27770241691E+02  0.16227810563E+04  0.16233248368E+04  0.00000000000E+00 0. -1.
         22    1    3    3    0    0  0.81107113745E+02  0.37852969770E+02  0.21884916274E+03  0.23644485034E+03  0.00000000000E+00 0.  1.
         22    1    3    3    0    0 -0.21522199363E+02 -0.69953668682E+01 -0.19671358342E+01  0.22715850115E+02  0.00000000000E+00 0.  1.
</event>
<event>
 7    1  0.5970484E-006  0.7348230E+02  0.7818608E-02  0.1463993E+00
          2   -1    0    0  502    0  0.00000000000E+00  0.00000000000E+00  0.25146421669E+03  0.25146421669E+03  0.00000000000E+00 0. -1.
          1   -1    0    0  501    0 -0.00000000000E+00 -0.00000000000E+00 -0.17840424166E+03  0.17840424166E+03  0.00000000000E+00 0. -1.
         25    2    1    2    0    0  0.33047353913E+02  0.67524001450E+02 -0.62763654465E+02  0.15879524322E+03  0.12500013830E+03 0.  0.
          2    1    1    2  501    0 -0.29048914792E+02  0.60908103900E+01 -0.57204237198E+02  0.64445808050E+02  0.00000000000E+00 0. -1.
          1    1    1    2  502    0 -0.39984391213E+01 -0.73614811840E+02  0.19302786669E+03  0.20662740708E+03  0.00000000000E+00 0. -1.
         22    1    3    3    0    0  0.42645674059E+02 -0.20642890477E+02  0.43462029177E+01  0.47578061362E+02  0.00000000000E+00 0.  1.
         22    1    3    3    0    0 -0.95983201462E+01  0.88166891927E+02 -0.67109857382E+02  0.11121718185E+03  0.00000000000E+00 0.  1.
</event>
<event>
 7    1  0.5970484E-006  0.1399152E+03  0.7818608E-02  0.1240699E+00
          2   -1    0    0  502    0  0.00000000000E+00  0.00000000000E+00  0.47717361871E+03  0.47717361871E+03  0.00000000000E+00 0. -1.
          1   -1    0    0  501    0 -0.00000000000E+00 -0.00000000000E+00 -0.18833808617E+03  0.18833808617E+03  0.00000000000E+00 0. -1.
         25    2    1    2    0    0  0.22038126543E+01 -0.48284597187E+02  0.23331982412E+03  0.26907170605E+03  0.12500073422E+03 0.  0.
          2    1    1    2  501    0 -0.11045820689E+02  0.15336207244E+03 -0.11771008973E+03  0.19364297209E+03  0.00000000000E+00 0. -1.
          1    1    1    2  502    0  0.88420080351E+01 -0.10507747525E+03  0.17322579814E+03  0.20279702674E+03  0.00000000000E+00 0. -1.
         22    1    3    3    0    0  0.15743006382E+02 -0.56947202979E+02  0.32156243219E+02  0.67267006437E+02  0.00000000000E+00 0. -1.
         22    1    3    3    0    0 -0.13539193727E+02  0.86626057912E+01  0.20116358090E+03  0.20180469961E+03  0.00000000000E+00 0. -1.
</event>
<event>
 7    1  0.5970484E-006  0.4429123E+02  0.7818608E-02  0.1597113E+00
          2   -1    0    0  502    0  0.00000000000E+00  0.00000000000E+00  0.49293946828E+03  0.49293946828E+03  0.00000000000E+00 0. -1.
          1   -1    0    0  501    0 -0.00000000000E+00 -0.00000000000E+00 -0.79474516359E+03  0.79474516359E+03  0.00000000000E+00 0. -1.
         25    2    1    2    0    0  0.15444662553E+01  0.23913827394E+02  0.13419447271E+03  0.18495342767E+03  0.12500142953E+03 0.  0.
          2    1    1    2  501    0 -0.43823749598E+01 -0.44155881968E+02 -0.76841171101E+03  0.76969182452E+03  0.00000000000E+00 0. -1.
          1    1    1    2  502    0  0.28379087045E+01  0.20242054574E+02  0.33241154299E+03  0.33303937967E+03  0.00000000000E+00 0. -1.
         22    1    3    3    0    0  0.59228656019E+02  0.95588133467E+01  0.35417252244E+02  0.69669120584E+02  0.00000000000E+00 0.  1.
         22    1    3    3    0    0 -0.57684189764E+02  0.14355014047E+02  0.98777220469E+02  0.11528430709E+03  0.00000000000E+00 0.  1.
</event>
<event>
 7    1  0.5970484E-006  0.5486482E+02  0.7818608E-02  0.1447679E+00
          2   -1    0    0  502    0  0.00000000000E+00  0.00000000000E+00  0.38662154279E+02  0.38662154279E+02  0.00000000000E+00 0. -1.
          1   -1    0    0  501    0 -0.00000000000E+00 -0.00000000000E+00 -0.78329568071E+03  0.78329568071E+03  0.00000000000E+00 0. -1.
         25    2    1    2    0    0 -0.11304687397E+02  0.27522424089E+02 -0.94239780071E+02  0.15934625933E+03  0.12499925772E+03 0.  0.
          2    1    1    2  501    0  0.54382166727E+02 -0.15275198181E+02 -0.54734263340E+03  0.55024967976E+03  0.00000000000E+00 0. -1.
          1    1    1    2  502    0 -0.43077479330E+02 -0.12247225907E+02 -0.10305111297E+03  0.11236189590E+03  0.00000000000E+00 0. -1.
         22    1    3    3    0    0  0.27721137022E+02 -0.40750995891E+02 -0.43671830227E+02  0.65850845547E+02  0.00000000000E+00 0. -1.
         22    1    3    3    0    0 -0.39025824419E+02  0.68273419980E+02 -0.50567949843E+02  0.93495413784E+02  0.00000000000E+00 0. -1.
</event>
<event>
 7    1  0.5970484E-006  0.1093191E+03  0.7818608E-02  0.1308697E+00
          2   -1    0    0  502    0  0.00000000000E+00  0.00000000000E+00  0.36300567937E+04  0.36300567937E+04  0.00000000000E+00 0. -1.
          1   -1    0    0  501    0 -0.00000000000E+00 -0.00000000000E+00 -0.91886917816E+02  0.91886917816E+02  0.00000000000E+00 0. -1.
         25    2    1    2    0    0  0.36948101743E+02 -0.26409079588E+02  0.47428240961E+03  0.49258036694E+03  0.12501604747E+03 0.  0.
          2    1    1    2  501    0 -0.81045947117E+02  0.81084094889E+02 -0.42436439723E+02  0.12224535739E+03  0.00000000000E+00 0. -1.
          1    1    1    2  502    0  0.44097845374E+02 -0.54675015301E+02  0.31063239060E+04  0.31071179872E+04  0.00000000000E+00 0. -1.
         22    1    3    3    0    0  0.87927545356E+01 -0.48463521680E+02  0.64083428670E+02  0.80825189737E+02  0.00000000000E+00 0. -1.
         22    1    3    3    0    0  0.28155347208E+02  0.22054442092E+02  0.41019898094E+03  0.41175517721E+03  0.00000000000E+00 0. -1.
</event>
<event>
 7    1  0.5970484E-006  0.5949465E+02  0.7818608E-02  0.1442549E+00
          2   -1    0    0  502    0  0.00000000000E+00  0.00000000000E+00  0.16792146560E+04  0.16792146560E+04  0.00000000000E+00 0. -1.
          1   -1    0    0  501    0 -0.00000000000E+00 -0.00000000000E+00 -0.19058483986E+02  0.19058483986E+02  0.00000000000E+00 0. -1.
         25    2    1    2    0    0 -0.24538802042E+02  0.90154341205E+02  0.74504415174E+03  0.76121275432E+03  0.12499644496E+03 0.  0.
          2    1    1    2  501    0  0.30237681616E+02 -0.47632713745E+02  0.65846378207E+02  0.86711811947E+02  0.00000000000E+00 0. -1.
          1    1    1    2  502    0 -0.56988795739E+01 -0.42521627460E+02  0.84926564210E+03  0.85034857375E+03  0.00000000000E+00 0. -1.
         22    1    3    3    0    0  0.37474364534E+02  0.80329425412E+02  0.52316380312E+03  0.53061992940E+03  0.00000000000E+00 0.  1.
         22    1    3    3    0    0 -0.62013166576E+02  0.98249157926E+01  0.22188034862E+03  0.23059282491E+03  0.00000000000E+00 0.  1.
</event>
<event>
 7    1  0.5970484E-006  0.7269660E+02  0.7818608E-02  0.1436792E+00
          2   -1    0    0  502    0  0.00000000000E+00  0.00000000000E+00  0.40933946792E+02  0.40933946792E+02  0.00000000000E+00 0. -1.
          1   -1    0    0  501    0 -0.00000000000E+00 -0.00000000000E+00 -0.10640653093E+04  0.10640653093E+04  0.00000000000E+00 0. -1.
         25    2    1    2    0    0 -0.52235137022E+02 -0.50941213501E+02 -0.65762734850E+03  0.67336652741E+03  0.12500093587E+03 0.  0.
          2    1    1    2  501    0 -0.18413236075E+02  0.31694202523E+02 -0.35589973578E+03  0.35778232442E+03  0.00000000000E+00 0. -1.
          1    1    1    2  502    0  0.70648373097E+02  0.19247010978E+02 -0.96042782491E+01  0.73850404288E+02  0.00000000000E+00 0. -1.
         22    1    3    3    0    0 -0.26864059897E+02 -0.66009672775E+02 -0.62625551982E+03  0.63029749382E+03  0.00000000000E+00 0.  1.
         22    1    3    3    0    0 -0.25371077124E+02  0.15068459275E+02 -0.31371828679E+02  0.43069033586E+02  0.00000000000E+00 0.  1.
</event>
<event>
 7    1  0.5970484E-006  0.1951721E+03  0.7818608E-02  0.1323998E+00
          2   -1    0    0  502    0  0.00000000000E+00  0.00000000000E+00  0.77345907769E+02  0.77345907769E+02  0.00000000000E+00 0. -1.
          1   -1    0    0  501    0 -0.00000000000E+00 -0.00000000000E+00 -0.22823448720E+04  0.22823448720E+04  0.00000000000E+00 0. -1.
         25    2    1    2    0    0  0.10158198337E+03 -0.13350119156E+03 -0.10315480496E+04  0.10525519741E+04  0.12503124485E+03 0.  0.
          2    1    1    2  501    0  0.67255107665E+01 -0.33624234043E+02 -0.10910894963E+04  0.10916281924E+04  0.00000000000E+00 0. -1.
          1    1    1    2  502    0 -0.10830749413E+03  0.16712542560E+03 -0.82361418385E+02  0.21551061321E+03  0.00000000000E+00 0. -1.
         22    1    3    3    0    0  0.56252642659E+01 -0.80157679475E+02 -0.23243968668E+03  0.24593719751E+03  0.00000000000E+00 0.  1.
         22    1    3    3    0    0  0.95956719101E+02 -0.53343512085E+02 -0.79910836290E+03  0.80661477663E+03  0.00000000000E+00 0.  1.
</event>
<event>
 7    1  0.5970484E-006  0.6417764E+02  0.7818608E-02  0.1443213E+00
          2   -1    0    0  502    0  0.00000000000E+00  0.00000000000E+00  0.17368273832E+03  0.17368273832E+03  0.00000000000E+00 0. -1.
          1   -1    0    0  501    0 -0.00000000000E+00 -0.00000000000E+00 -0.23945692222E+04  0.23945692222E+04  0.00000000000E+00 0. -1.
         25    2    1    2    0    0  0.29554979452E+02  0.73399924664E+02 -0.58844493878E+02  0.15921244744E+03  0.12499953283E+03 0.  0.
          2    1    1    2  501    0 -0.38232585247E+02 -0.10220944503E+02 -0.22771246958E+04  0.22774685681E+04  0.00000000000E+00 0. -1.
          1    1    1    2  502    0  0.86776057948E+01 -0.63178980160E+02  0.11508270585E+03  0.13157094498E+03  0.00000000000E+00 0. -1.
         22    1    3    3    0    0  0.31808033667E+02  0.10088481851E+03 -0.72696231953E+02  0.12835201499E+03  0.00000000000E+00 0. -1.
         22    1    3    3    0    0 -0.22530542155E+01 -0.27484893848E+02  0.13851738074E+02  0.30860432447E+02  0.00000000000E+00 0. -1.
</event>
<event>
 7    1  0.7948584E-006  0.1006235E+03  0.7818608E-02  0.1320124E+00
          2   -1    0    0  502    0  0.00000000000E+00  0.00000000000E+00  0.10606127834E+04  0.10606127834E+04  0.00000000000E+00 0. -1.
          1   -1    0    0  501    0 -0.00000000000E+00 -0.00000000000E+00 -0.13011310345E+04  0.13011310345E+04  0.00000000000E+00 0. -1.
         25    2    1    2    0    0 -0.14703632485E+02 -0.68345077461E+02 -0.11248033425E+03  0.18211287050E+03  0.12500410228E+03 0.  0.
          2    1    1    2  501    0  0.66140329489E+02 -0.19108341871E+02 -0.11502939914E+04  0.11523523501E+04  0.00000000000E+00 0. -1.
          1    1    1    2  502    0 -0.51436697005E+02  0.87453419332E+02  0.10222560747E+04  0.10272785973E+04  0.00000000000E+00 0. -1.
         22    1    3    3    0    0 -0.11345340555E+02 -0.10002262818E+03 -0.50945246955E+02  0.11282136804E+03  0.00000000000E+00 0.  1.
         22    1    3    3    0    0 -0.33582919294E+01  0.31677550716E+02 -0.61535087300E+02  0.69291502459E+02  0.00000000000E+00 0.  1.
</event>
<event>
 7    1  0.5970484E-006  0.1148288E+03  0.7818608E-02  0.1360728E+00
          2   -1    0    0  502    0  0.00000000000E+00  0.00000000000E+00  0.47152302512E+02  0.47152302512E+02  0.00000000000E+00 0. -1.
          1   -1    0    0  501    0 -0.00000000000E+00 -0.00000000000E+00 -0.29934153198E+04  0.29934153198E+04  0.00000000000E+00 0. -1.
         25    2    1    2    0    0  0.78175556074E+02 -0.65577326236E+02 -0.19868958552E+04  0.19934372367E+04  0.12500029563E+03 0.  0.
          2    1    1    2  501    0 -0.80301581192E+02  0.10796938408E+03 -0.98722945158E+03  0.99635722606E+03  0.00000000000E+00 0. -1.
          1    1    1    2  502    0  0.21260251187E+01 -0.42392057839E+02  0.27862289535E+02  0.50773159531E+02  0.00000000000E+00 0. -1.
         22    1    3    3    0    0 -0.18050802983E+02  0.64967950461E+01 -0.64675945361E+02  0.67461231404E+02  0.00000000000E+00 0.  1.
         22    1    3    3    0    0  0.96226359057E+02 -0.72074121283E+02 -0.19222199099E+04  0.19259760053E+04  0.00000000000E+00 0.  1.
</event>
<event>
 7    1  0.5970484E-006  0.1379911E+03  0.7818608E-02  0.1310904E+00
          2   -1    0    0  502    0  0.00000000000E+00  0.00000000000E+00  0.16423492328E+03  0.16423492328E+03  0.00000000000E+00 0. -1.
          1   -1    0    0  501    0 -0.00000000000E+00 -0.00000000000E+00 -0.14571695591E+04  0.14571695591E+04  0.00000000000E+00 0. -1.
         25    2    1    2    0    0  0.86807420812E+02  0.95492642993E+02 -0.11271131981E+04  0.11413434246E+04  0.12500511302E+03 0.  0.
          2    1    1    2  501    0  0.39184681603E+02 -0.37941967340E+02 -0.28936233765E+03  0.29445813727E+03  0.00000000000E+00 0. -1.
          1    1    1    2  502    0 -0.12599210242E+03 -0.57550675653E+02  0.12354089996E+03  0.18560292051E+03  0.00000000000E+00 0. -1.
         22    1    3    3    0    0  0.51580408183E+02  0.44026771917E+02 -0.18281225190E+03  0.19498516507E+03  0.00000000000E+00 0.  1.
         22    1    3    3    0    0  0.35227012629E+02  0.51465871076E+02 -0.94430094622E+03  0.94635825951E+03  0.00000000000E+00 0.  1.
</event>
<event>
 7    1  0.8378840E-006  0.1005284E+03  0.7818608E-02  0.1326221E+00
          2   -1    0    0  502    0  0.00000000000E+00  0.00000000000E+00  0.21906821932E+04  0.21906821932E+04  0.00000000000E+00 0. -1.
          1   -1    0    0  501    0 -0.00000000000E+00 -0.00000000000E+00 -0.24721708505E+04  0.24721708505E+04  0.00000000000E+00 0. -1.
         25    2    1    2    0    0  0.10848389061E+03  0.10687565737E+03 -0.12304901358E+04  0.12461627978E+04  0.12499833484E+03 0.  0.
          2    1    1    2  501    0 -0.52710183585E+02 -0.72962795042E+02 -0.12317137773E+04  0.12349982843E+04  0.00000000000E+00 0. -1.
          1    1    1    2  502    0 -0.55773707027E+02 -0.33912862328E+02  0.21807152558E+04  0.21816919617E+04  0.00000000000E+00 0. -1.
         22    1    3    3    0    0 -0.14523102517E+02  0.28110263133E+01 -0.39509755789E+03  0.39537438287E+03  0.00000000000E+00 0. -1.
         22    1    3    3    0    0  0.12300699313E+03  0.10406463106E+03 -0.83539257786E+03  0.85078841491E+03  0.00000000000E+00 0. -1.
</event>
<event>
 7    1  0.5970484E-006  0.1260836E+03  0.7818608E-02  0.1360419E+00
          2   -1    0    0  502    0  0.00000000000E+00  0.00000000000E+00  0.69555373208E+03  0.69555373208E+03  0.00000000000E+00 0. -1.
          1   -1    0    0  501    0 -0.00000000000E+00 -0.00000000000E+00 -0.63085223442E+03  0.63085223442E+03  0.00000000000E+00 0. -1.
         25    2    1    2    0    0  0.16200487356E+03  0.89539839436E+01 -0.52592491041E+03  0.56440093669E+03  0.12500261221E+03 0.  0.
          2    1    1    2  501    0 -0.36381702426E+02 -0.13359371813E+02 -0.75102329157E+02  0.84513081422E+02  0.00000000000E+00 0. -1.
          1    1    1    2  502    0 -0.12562317113E+03  0.44053878696E+01  0.66572873722E+03  0.67749194839E+03  0.00000000000E+00 0. -1.
         22    1    3    3    0    0  0.53858098385E+02 -0.36093570988E+02 -0.32846554848E+03  0.33480301248E+03  0.00000000000E+00 0. -1.
         22    1    3    3    0    0  0.10814677517E+03  0.45047554932E+02 -0.19745936193E+03  0.22959792420E+03  0.00000000000E+00 0. -1.
</event>
<event>
 7    1  0.5970484E-006  0.3500230E+03  0.7818608E-02  0.1085784E+00
          2   -1    0    0  502    0  0.00000000000E+00  0.00000000000E+00  0.29936086701E+04  0.29936086701E+04  0.00000000000E+00 0. -1.
          1   -1    0    0  501    0 -0.00000000000E+00 -0.00000000000E+00 -0.12319752123E+04  0.12319752123E+04  0.00000000000E+00 0. -1.
         25    2    1    2    0    0  0.13247489483E+02  0.13640115607E+03  0.10444024601E+04  0.10607461036E+04  0.12500010512E+03 0.  0.
          2    1    1    2  501    0 -0.22954324521E+03 -0.27197040589E+03 -0.11892414349E+04  0.12413513578E+04  0.00000000000E+00 0. -1.
          1    1    1    2  502    0  0.21629575573E+03  0.13556924982E+03  0.19064724326E+04  0.19234864210E+04  0.00000000000E+00 0. -1.
         22    1    3    3    0    0  0.80166296207E+01  0.10959942011E+03  0.37457660095E+03  0.39036384210E+03  0.00000000000E+00 0. -1.
         22    1    3    3    0    0  0.52308598623E+01  0.26801735954E+02  0.66982585918E+03  0.67038226153E+03  0.00000000000E+00 0. -1.
</event>
<event>
 7    1  0.5970484E-006  0.5095965E+02  0.7818608E-02  0.1516007E+00
          2   -1    0    0  502    0  0.00000000000E+00  0.00000000000E+00  0.69583672612E+02  0.69583672612E+02  0.00000000000E+00 0. -1.
          1   -1    0    0  501    0 -0.00000000000E+00 -0.00000000000E+00 -0.48286420481E+03  0.48286420481E+03  0.00000000000E+00 0. -1.
         25    2    1    2    0    0  0.71680380689E+02 -0.29690089094E+01 -0.19094487123E+03  0.23923100700E+03  0.12499855548E+03 0.  0.
          2    1    1    2  501    0 -0.25396856411E+02 -0.15562820042E+02 -0.25295938506E+03  0.25470699278E+03  0.00000000000E+00 0. -1.
          1    1    1    2  502    0 -0.46283524278E+02  0.18531828951E+02  0.30623724091E+02  0.58509877637E+02  0.00000000000E+00 0. -1.
         22    1    3    3    0    0  0.10289056835E+03 -0.32338435391E+01 -0.17761984609E+03  0.20529426812E+03  0.00000000000E+00 0.  1.
         22    1    3    3    0    0 -0.31210187656E+02  0.26483462968E+00 -0.13325025142E+02  0.33936738882E+02  0.00000000000E+00 0.  1.
</event>
<event>
 7    1  0.5970484E-006  0.5243185E+02  0.7818608E-02  0.1439419E+00
          2   -1    0    0  502    0  0.00000000000E+00  0.00000000000E+00  0.29613702780E+03  0.29613702780E+03  0.00000000000E+00 0. -1.
          1   -1    0    0  501    0 -0.00000000000E+00 -0.00000000000E+00 -0.12172551713E+04  0.12172551713E+04  0.00000000000E+00 0. -1.
         25    2    1    2    0    0 -0.63658244042E+01 -0.79086715020E+02 -0.41857427720E+03  0.44398571294E+03  0.12499462210E+03 0.  0.
          2    1    1    2  501    0 -0.28246951326E+02  0.43238729591E+02 -0.78292750923E+03  0.78462918803E+03  0.00000000000E+00 0. -1.
          1    1    1    2  502    0  0.34612775731E+02  0.35847985429E+02  0.28038364293E+03  0.28477729812E+03  0.00000000000E+00 0. -1.
         22    1    3    3    0    0 -0.60299321402E+02 -0.12998606091E+02 -0.14991807948E+03  0.16211231439E+03  0.00000000000E+00 0.  1.
         22    1    3    3    0    0  0.53933496998E+02 -0.66088108929E+02 -0.26865619772E+03  0.28187339856E+03  0.00000000000E+00 0.  1.
</event>
<event>
 7    1  0.5970484E-006  0.9025539E+02  0.7818608E-02  0.1440094E+00
          2   -1    0    0  502    0  0.00000000000E+00  0.00000000000E+00  0.23822434699E+04  0.23822434699E+04  0.00000000000E+00 0. -1.
          1   -1    0    0  501    0 -0.00000000000E+00 -0.00000000000E+00 -0.22917913891E+03  0.22917913891E+03  0.00000000000E+00 0. -1.
         25    2    1    2    0    0 -0.41416880723E+02 -0.76241505678E+02  0.12979870771E+04  0.13068755315E+04  0.12500030864E+03 0.  0.
          2    1    1    2  501    0  0.15573709421E+02  0.88958122590E+02 -0.21546038043E+03  0.23362205276E+03  0.00000000000E+00 0. -1.
          1    1    1    2  502    0  0.25843171302E+02 -0.12716616911E+02  0.10705376343E+04  0.10709250246E+04  0.00000000000E+00 0. -1.
         22    1    3    3    0    0 -0.25159842469E+02 -0.89029350303E+02  0.49198569799E+03  0.50060879928E+03  0.00000000000E+00 0.  1.
         22    1    3    3    0    0 -0.16257038254E+02  0.12787844624E+02  0.80600137913E+03  0.80626673218E+03  0.00000000000E+00 0.  1.
</event>
<event>
 7    1  0.5970484E-006  0.7949804E+02  0.7818608E-02  0.1490068E+00
          2   -1    0    0  502    0  0.00000000000E+00  0.00000000000E+00  0.13895748066E+04  0.13895748066E+04  0.00000000000E+00 0. -1.
          1   -1    0    0  501    0 -0.00000000000E+00 -0.00000000000E+00 -0.68710757524E+03  0.68710757524E+03  0.00000000000E+00 0. -1.
         25    2    1    2    0    0 -0.81607413145E+02  0.30320248843E+02 -0.87735202877E+02  0.17578965929E+03  0.12500180446E+03 0.  0.
          2    1    1    2  501    0  0.16706467357E+02  0.15518415007E+02 -0.55393738699E+03  0.55440648983E+03  0.00000000000E+00 0. -1.
          1    1    1    2  502    0  0.64900945788E+02 -0.45838663850E+02  0.13441398212E+04  0.13464862327E+04  0.00000000000E+00 0. -1.
         22    1    3    3    0    0  0.20627300990E+02  0.42305396267E+02 -0.13779876111E+02  0.49041993078E+02  0.00000000000E+00 0.  1.
         22    1    3    3    0    0 -0.10223471413E+03 -0.11985147424E+02 -0.73955326766E+02  0.12674766621E+03  0.00000000000E+00 0.  1.
</event>
<event>
 7    1  0.5970484E-006  0.8007070E+02  0.7818608E-02  0.1329465E+00
          2   -1    0    0  502    0  0.00000000000E+00  0.00000000000E+00  0.84984365678E+03  0.84984365678E+03  0.00000000000E+00 0. -1.
          1   -1    0    0  501    0 -0.00000000000E+00 -0.00000000000E+00 -0.76599394471E+03  0.76599394471E+03  0.00000000000E+00 0. -1.
         25    2    1    2    0    0  0.24690906211E+02  0.27035582586E+02  0.16392767350E+03  0.20937221430E+03  0.12499551354E+03 0.  0.
          2    1    1    2  501    0 -0.57733150838E+02  0.54856145310E+02 -0.73818083011E+03  0.74246430980E+03  0.00000000000E+00 0. -1.
          1    1    1    2  502    0  0.33042244626E+02 -0.81891727896E+02  0.65810286867E+03  0.66400107739E+03  0.00000000000E+00 0. -1.
         22    1    3    3    0    0  0.75440243518E+02  0.19350893963E+02  0.85633036954E+02  0.11575277300E+03  0.00000000000E+00 0.  1.
         22    1    3    3    0    0 -0.50749337307E+02  0.76846886229E+01  0.78294636549E+02  0.93619441297E+02  0.00000000000E+00 0.  1.
</event>
<event>
 7    1  0.5970484E-006  0.7483621E+02  0.7818608E-02  0.1357749E+00
          2   -1    0    0  502    0  0.00000000000E+00  0.00000000000E+00  0.31305502170E+03  0.31305502170E+03  0.00000000000E+00 0. -1.
          1   -1    0    0  501    0 -0.00000000000E+00 -0.00000000000E+00 -0.16232492003E+03  0.16232492003E+03  0.00000000000E+00 0. -1.
         25    2    1    2    0    0  0.33582167263E+02  0.30795463886E+02  0.14823759985E+03  0.19918741324E+03  0.12500046812E+03 0.  0.
          2    1    1    2  501    0 -0.50878676098E+01  0.66586605417E+02 -0.10749609695E+03  0.12655067474E+03  0.00000000000E+00 0. -1.
          1    1    1    2  502    0 -0.28494299653E+02 -0.97382069303E+02  0.10998859877E+03  0.14964185375E+03  0.00000000000E+00 0. -1.
         22    1    3    3    0    0  0.27224201134E+02  0.15680056925E+02  0.16947137608E+03  0.17235883680E+03  0.00000000000E+00 0. -1.
         22    1    3    3    0    0  0.63579661289E+01  0.15115406961E+02 -0.21233776228E+02  0.26828576440E+02  0.00000000000E+00 0. -1.
</event>
<event>
 7    1  0.5970484E-006  0.1229574E+03  0.7818608E-02  0.1429203E+00
          2   -1    0    0  502    0  0.00000000000E+00  0.00000000000E+00  0.48771605629E+03  0.48771605629E+03  0.00000000000E+00 0. -1.
          1   -1    0    0  501    0 -0.00000000000E+00 -0.00000000000E+00 -0.27992866186E+03  0.27992866186E+03  0.00000000000E+00 0. -1.
         25    2    1    2    0    0 -0.12549924172E+03  0.40311953819E+02  0.11682894589E+03  0.21598538459E+03  0.12500228184E+03 0.  0.
          2    1    1    2  501    0  0.56256406624E+01 -0.22248902876E+02 -0.21829305133E+03  0.21949605411E+03  0.00000000000E+00 0. -1.
          1    1    1    2  502    0  0.11987360106E+03 -0.18063050943E+02  0.30925149988E+03  0.33216327945E+03  0.00000000000E+00 0. -1.
         22    1    3    3    0    0 -0.11288354383E+02  0.58258388742E+02  0.13345468551E+02  0.60824076930E+02  0.00000000000E+00 0. -1.
         22    1    3    3    0    0 -0.11421088734E+03 -0.17946434923E+02  0.10348347733E+03  0.15516130766E+03  0.00000000000E+00 0. -1.
</event>
<event>
 7    1  0.5970484E-006  0.6682426E+02  0.7818608E-02  0.1528642E+00
          2   -1    0    0  502    0  0.00000000000E+00  0.00000000000E+00  0.18621258463E+03  0.18621258463E+03  0.00000000000E+00 0. -1.
          1   -1    0    0  501    0 -0.00000000000E+00 -0.00000000000E+00 -0.14878439266E+04  0.14878439266E+04  0.00000000000E+00 0. -1.
         25    2    1    2    0    0 -0.10481134554E+02 -0.66045314517E+02 -0.14325821052E+03  0.20154368303E+03  0.12500041415E+03 0.  0.
          2    1    1    2  501    0  0.30352831607E+02  0.59635375326E+02 -0.13138938507E+04  0.13155967176E+04  0.00000000000E+00 0. -1.
          1    1    1    2  502    0 -0.19871697053E+02  0.64099391907E+01  0.15552071924E+03  0.15691611063E+03  0.00000000000E+00 0. -1.
         22    1    3    3    0    0 -0.54295684360E+02 -0.83548463259E+00 -0.94763988801E+02  0.10921965459E+03  0.00000000000E+00 0. -1.
         22    1    3    3    0    0  0.43814549806E+02 -0.65209829885E+02 -0.48494221715E+02  0.92324028443E+02  0.00000000000E+00 0. -1.
</event>
<event>
 7    1  0.5970484E-006  0.5999221E+02  0.7818608E-02  0.1420144E+00
          2   -1    0    0  502    0  0.00000000000E+00  0.00000000000E+00  0.18889194748E+04  0.18889194748E+04  0.00000000000E+00 0. -1.
          1   -1    0    0  501    0 -0.00000000000E+00 -0.00000000000E+00 -0.32956938939E+03  0.32956938939E+03  0.00000000000E+00 0. -1.
         25    2    1    2    0    0  0.86703093354E+02  0.57233096849E+02  0.10779616607E+03  0.19503607075E+03  0.12500400675E+03 0.  0.
          2    1    1    2  501    0 -0.29452102508E+02 -0.40906006631E+02 -0.28321353785E+03  0.28766410228E+03  0.00000000000E+00 0. -1.
          1    1    1    2  502    0 -0.57250990846E+02 -0.16327090218E+02  0.17347674572E+04  0.17357886912E+04  0.00000000000E+00 0. -1.
         22    1    3    3    0    0  0.18429269035E+02 -0.15267423886E+02 -0.21268340928E+02  0.32016784896E+02  0.00000000000E+00 0.  1.
         22    1    3    3    0    0  0.68273824320E+02  0.72500520735E+02  0.12906450699E+03  0.16301928585E+03  0.00000000000E+00 0.  1.
</event>
<event>
 7    1  0.5970484E-006  0.3185410E+03  0.7818608E-02  0.1120652E+00
          2   -1    0    0  502    0  0.00000000000E+00  0.00000000000E+00  0.65396433751E+03  0.65396433751E+03  0.00000000000E+00 0. -1.
          1   -1    0    0  501    0 -0.00000000000E+00 -0.00000000000E+00 -0.23761547707E+04  0.23761547707E+04  0.00000000000E+00 0. -1.
         25    2    1    2    0    0 -0.97882035142E+02 -0.20900238053E+03  0.10545751995E+03  0.28285920926E+03  0.12500062352E+03 0.  0.
          2    1    1    2  501    0 -0.39607075399E+02  0.32345357274E+03 -0.22579027226E+04  0.22812969203E+04  0.00000000000E+00 0. -1.
          1    1    1    2  502    0  0.13748911054E+03 -0.11445119222E+03  0.43025476938E+03  0.46596297867E+03  0.00000000000E+00 0. -1.
         22    1    3    3    0    0 -0.10144921543E+03 -0.19908543961E+03  0.12833152088E+03  0.25767408645E+03  0.00000000000E+00 0. -1.
         22    1    3    3    0    0  0.35671802839E+01 -0.99169409130E+01 -0.22874000932E+02  0.25185122808E+02  0.00000000000E+00 0. -1.
</event>
<event>
 7    1  0.5970484E-006  0.1400933E+03  0.7818608E-02  0.1393177E+00
          2   -1    0    0  502    0  0.00000000000E+00  0.00000000000E+00  0.11311728008E+04  0.11311728008E+04  0.00000000000E+00 0. -1.
          1   -1    0    0  501    0 -0.00000000000E+00 -0.00000000000E+00 -0.34303814626E+03  0.34303814626E+03  0.00000000000E+00 0. -1.
         25    2    1    2    0    0 -0.74045206773E+02 -0.13033136617E+03  0.61870371977E+02  0.20474769288E+03  0.12499886863E+03 0.  0.
          2    1    1    2  501    0  0.26651964783E+02 -0.93627490808E+00 -0.26604984206E+03  0.26738310025E+03  0.00000000000E+00 0. -1.
          1    1    1    2  502    0  0.47393241990E+02  0.13126764107E+03  0.99231412464E+03  0.10020801539E+04  0.00000000000E+00 0. -1.
         22    1    3    3    0    0 -0.10397458006E+03 -0.77245686489E+02  0.62464404562E+02  0.14380337693E+03  0.00000000000E+00 0. -1.
         22    1    3    3    0    0  0.29929373286E+02 -0.53085679678E+02 -0.59403258426E+00  0.60944315952E+02  0.00000000000E+00 0. -1.
</event>
<event>
 7    1  0.5970484E-006  0.5616346E+02  0.7818608E-02  0.1427425E+00
          2   -1    0    0  502    0  0.00000000000E+00  0.00000000000E+00  0.58666270514E+03  0.58666270514E+03  0.00000000000E+00 0. -1.
          1   -1    0    0  501    0 -0.00000000000E+00 -0.00000000000E+00 -0.12437290359E+04  0.12437290359E+04  0.00000000000E+00 0. -1.
         25    2    1    2    0    0 -0.76439740024E+02 -0.57703316638E+01 -0.68071849611E+03  0.69632860326E+03  0.12497808680E+03 0.  0.
          2    1    1    2  501    0  0.44036271459E+02 -0.33515900808E+02 -0.55270096630E+03  0.55546455058E+03  0.00000000000E+00 0. -1.
          1    1    1    2  502    0  0.32403468565E+02  0.39286232472E+02  0.57635313161E+03  0.57859858724E+03  0.00000000000E+00 0. -1.
         22    1    3    3    0    0  0.37141346023E+01 -0.53281164138E+02 -0.24158877621E+03  0.24742233941E+03  0.00000000000E+00 0.  1.
         22    1    3    3    0    0 -0.80153874626E+02  0.47510832475E+02 -0.43912971991E+03  0.44890626385E+03  0.00000000000E+00 0.  1.
</event>
<event>
 7    1  0.5970484E-006  0.7387381E+02  0.7818608E-02  0.1469796E+00
          2   -1    0    0  502    0  0.00000000000E+00  0.00000000000E+00  0.91223720381E+03  0.91223720381E+03  0.00000000000E+00 0. -1.
          1   -1    0    0  501    0 -0.00000000000E+00 -0.00000000000E+00 -0.35435401841E+03  0.35435401841E+03  0.00000000000E+00 0. -1.
         25    2    1    2    0    0 -0.53164611629E+02 -0.61774785038E+02  0.62578306120E+03  0.64332868063E+03  0.12499900654E+03 0.  0.
          2    1    1    2  501    0  0.27855932222E+02 -0.50838785799E+01 -0.34038242005E+03  0.34155818049E+03  0.00000000000E+00 0. -1.
          1    1    1    2  502    0  0.25308679408E+02  0.66858663618E+02  0.27248254424E+03  0.28170436111E+03  0.00000000000E+00 0. -1.
         22    1    3    3    0    0 -0.68187495972E+02 -0.86705614454E+02  0.56818983219E+03  0.57879796440E+03  0.00000000000E+00 0.  1.
         22    1    3    3    0    0  0.15022884342E+02  0.24930829416E+02  0.57593229009E+02  0.64530716229E+02  0.00000000000E+00 0.  1.
</event>
<event>
 7    1  0.5970484E-006  0.7001043E+02  0.7818608E-02  0.1365796E+00
          2   -1    0    0  502    0  0.00000000000E+00  0.00000000000E+00  0.44263869110E+03  0.44263869110E+03  0.00000000000E+00 0. -1.
          1   -1    0    0  501    0 -0.00000000000E+00 -0.00000000000E+00 -0.33424207086E+04  0.33424207086E+04  0.00000000000E+00 0. -1.
         25    2    1    2    0    0 -0.45545891711E+02 -0.12881103435E+03  0.17997822274E+03  0.25823165425E+03  0.12499886308E+03 0.  0.
          2    1    1    2  501    0  0.23458022959E+02  0.65843977198E+02 -0.32979354858E+04  0.32986761248E+04  0.00000000000E+00 0. -1.
          1    1    1    2  502    0  0.22087868753E+02  0.62967057151E+02  0.21817524554E+03  0.22815162063E+03  0.00000000000E+00 0. -1.
         22    1    3    3    0    0  0.41461638563E+02 -0.31354348225E+02  0.32950286512E+02  0.61545787883E+02  0.00000000000E+00 0. -1.
         22    1    3    3    0    0 -0.87007530274E+02 -0.97456686125E+02  0.14702793623E+03  0.19668586636E+03  0.00000000000E+00 0. -1.
</event>
<event>
 7    1  0.5970484E-006  0.6418290E+02  0.7818608E-02  0.1424600E+00
          2   -1    0    0  502    0  0.00000000000E+00  0.00000000000E+00  0.17305078954E+04  0.17305078954E+04  0.00000000000E+00 0. -1.
          1   -1    0    0  501    0 -0.00000000000E+00 -0.00000000000E+00 -0.27392771238E+03  0.27392771238E+03  0.00000000000E+00 0. -1.
         25    2    1    2    0    0  0.52220014542E+02  0.55138863968E+02  0.24716751253E+03  0.28719365087E+03  0.12498475753E+03 0.  0.
          2    1    1    2  501    0 -0.44693773767E+02  0.86994438760E+01 -0.25116078390E+03  0.25525468283E+03  0.00000000000E+00 0. -1.
          1    1    1    2  502    0 -0.75262407756E+01 -0.63838307844E+02  0.14605734544E+04  0.14619872741E+04  0.00000000000E+00 0. -1.
         22    1    3    3    0    0 -0.25267460846E+02  0.52332492464E+02  0.16154656683E+03  0.17168118010E+03  0.00000000000E+00 0. -1.
         22    1    3    3    0    0  0.77487475388E+02  0.28063715036E+01  0.85620945699E+02  0.11551247078E+03  0.00000000000E+00 0. -1.
</event>
<event>
 7    1  0.5970484E-006  0.9707008E+02  0.7818608E-02  0.1292098E+00
          2   -1    0    0  502    0  0.00000000000E+00  0.00000000000E+00  0.28276020055E+03  0.28276020055E+03  0.00000000000E+00 0. -1.
          1   -1    0    0  501    0 -0.00000000000E+00 -0.00000000000E+00 -0.15636185167E+04  0.15636185167E+04  0.00000000000E+00 0. -1.
         25    2    1    2    0    0 -0.83369663940E+02 -0.52400648436E+02 -0.15301663370E+03  0.22076475302E+03  0.12500662847E+03 0.  0.
          2    1    1    2  501    0 -0.76255663749E+01  0.91861051087E+02 -0.13652303306E+04  0.13683385756E+04  0.00000000000E+00 0. -1.
          1    1    1    2  502    0  0.90995230315E+02 -0.39460402651E+02  0.23738864814E+03  0.25727538861E+03  0.00000000000E+00 0. -1.
         22    1    3    3    0    0 -0.28376591645E+02 -0.27030591267E+01  0.18455495174E+02  0.33957956125E+02  0.00000000000E+00 0.  1.
         22    1    3    3    0    0 -0.54993072295E+02 -0.49697589310E+02 -0.17147212888E+03  0.18680679689E+03  0.00000000000E+00 0.  1.
</event>
<event>
 7    1  0.5970484E-006  0.7840059E+02  0.7818608E-02  0.1346228E+00
          2   -1    0    0  502    0  0.00000000000E+00  0.00000000000E+00  0.29609339484E+03  0.29609339484E+03  0.00000000000E+00 0. -1.
          1   -1    0    0  501    0 -0.00000000000E+00 -0.00000000000E+00 -0.26319940879E+04  0.26319940879E+04  0.00000000000E+00 0. -1.
         25    2    1    2    0    0 -0.50017080863E+01 -0.11161458217E+02 -0.81900005156E+02  0.14993990294E+03  0.12499907366E+03 0.  0.
          2    1    1    2  501    0 -0.17866332084E+02  0.77646620919E+02 -0.25107152886E+04  0.25119791926E+04  0.00000000000E+00 0. -1.
          1    1    1    2  502    0  0.22868040170E+02 -0.66485162702E+02  0.25671460071E+03  0.26616838719E+03  0.00000000000E+00 0. -1.
         22    1    3    3    0    0  0.45938207774E+02  0.72563330311E+01  0.57921730714E+01  0.46867073425E+02  0.00000000000E+00 0.  1.
         22    1    3    3    0    0 -0.50939915860E+02 -0.18417791248E+02 -0.87692178228E+02  0.10307282952E+03  0.00000000000E+00 0.  1.
</event>
<event>
 7    1  0.5970484E-006  0.2852307E+02  0.7818608E-02  0.1623446E+00
          2   -1    0    0  502    0  0.00000000000E+00  0.00000000000E+00  0.18676087265E+03  0.18676087265E+03  0.00000000000E+00 0. -1.
          1   -1    0    0  501    0 -0.00000000000E+00 -0.00000000000E+00 -0.86136957661E+03  0.86136957661E+03  0.00000000000E+00 0. -1.
         25    2    1    2    0    0 -0.34112370532E+02 -0.10769323049E+02 -0.33650817929E+03  0.36075308103E+03  0.12500159439E+03 0.  0.
          2    1    1    2  501    0  0.24630351326E+02 -0.14666224386E+02 -0.51128016066E+03  0.51208315245E+03  0.00000000000E+00 0. -1.
          1    1    1    2  502    0  0.94820192061E+01  0.25435547435E+02  0.17317963599E+03  0.17529421578E+03  0.00000000000E+00 0. -1.
         22    1    3    3    0    0 -0.52696025217E+02  0.23735827996E+02 -0.67314558005E+02  0.88721532469E+02  0.00000000000E+00 0.  1.
         22    1    3    3    0    0  0.18583654685E+02 -0.34505151045E+02 -0.26919362129E+03  0.27203154856E+03  0.00000000000E+00 0.  1.
</event>
<event>
 7    1  0.5970484E-006  0.5312665E+02  0.7818608E-02  0.1525627E+00
          2   -1    0    0  502    0  0.00000000000E+00  0.00000000000E+00  0.14978857876E+04  0.14978857876E+04  0.00000000000E+00 0. -1.
          1   -1    0    0  501    0 -0.00000000000E+00 -0.00000000000E+00 -0.28385090384E+04  0.28385090384E+04  0.00000000000E+00 0. -1.
         25    2    1    2    0    0 -0.14874204479E+02 -0.25588840678E+02  0.92901993706E+03  0.93786056502E+03  0.12501346021E+03 0.  0.
          2    1    1    2  501    0  0.39947317794E+02  0.35033742478E+02 -0.28335215686E+04  0.28340196949E+04  0.00000000000E+00 0. -1.
          1    1    1    2  502    0 -0.25073113315E+02 -0.94449018004E+01  0.56387838067E+03  0.56451456612E+03  0.00000000000E+00 0. -1.
         22    1    3    3    0    0 -0.22436313824E+02  0.54694832575E+01  0.28091889934E+02  0.36365611574E+02  0.00000000000E+00 0.  1.
         22    1    3    3    0    0  0.75621093456E+01 -0.31058323935E+02  0.90092804713E+03  0.90149495345E+03  0.00000000000E+00 0.  1.
</event>
<event>
 7    1  0.5970484E-006  0.9953466E+02  0.7818608E-02  0.1332432E+00
          2   -1    0    0  502    0  0.00000000000E+00  0.00000000000E+00  0.27952854353E+04  0.27952854353E+04  0.00000000000E+00 0. -1.
          1   -1    0    0  501    0 -0.00000000000E+00 -0.00000000000E+00 -0.14617392784E+03  0.14617392784E+03  0.00000000000E+00 0. -1.
         25    2    1    2    0    0 -0.82117548257E+02 -0.50794790305E+02  0.21334452232E+03  0.26545130261E+03  0.12500042561E+03 0.  0.
          2    1    1    2  501    0 -0.17834003199E+02  0.59815076633E+02 -0.11095666259E+03  0.12730780037E+03  0.00000000000E+00 0. -1.
          1    1    1    2  502    0  0.99951551456E+02 -0.90202863286E+01  0.25467236477E+04  0.25487002601E+04  0.00000000000E+00 0. -1.
         22    1    3    3    0    0  0.22213779350E+02 -0.96302800982E+01 -0.23583664784E+00  0.24212598099E+02  0.00000000000E+00 0.  1.
         22    1    3    3    0    0 -0.10433132761E+03 -0.41164510206E+02  0.21358035896E+03  0.24123870452E+03  0.00000000000E+00 0.  1.
</event>
<event>
 7    1  0.5970484E-006  0.1230046E+03  0.7818608E-02  0.1334474E+00
          2   -1    0    0  502    0  0.00000000000E+00  0.00000000000E+00  0.23644348929E+04  0.23644348929E+04  0.00000000000E+00 0. -1.
          1   -1    0    0  501    0 -0.00000000000E+00 -0.00000000000E+00 -0.13300108242E+04  0.13300108242E+04  0.00000000000E+00 0. -1.
         25    2    1    2    0    0  0.13784058362E+03 -0.64063596955E+01  0.89524163023E+00  0.18618865037E+03  0.12499737649E+03 0.  0.
          2    1    1    2  501    0 -0.11256082592E+03  0.49096344948E+02 -0.12340452255E+04  0.12401403183E+04  0.00000000000E+00 0. -1.
          1    1    1    2  502    0 -0.25279757697E+02 -0.42689985252E+02  0.22675740525E+04  0.22681167484E+04  0.00000000000E+00 0. -1.
         22    1    3    3    0    0  0.12896372277E+03 -0.50014200036E+02  0.15881163633E+02  0.13923100715E+03  0.00000000000E+00 0. -1.
         22    1    3    3    0    0  0.88768608546E+01  0.43607840340E+02 -0.14985922002E+02  0.46957643212E+02  0.00000000000E+00 0. -1.
</event>
<event>
 7    1  0.5970484E-006  0.1396719E+03  0.7818608E-02  0.1401400E+00
          2   -1    0    0  502    0  0.00000000000E+00  0.00000000000E+00  0.90183756147E+03  0.90183756147E+03  0.00000000000E+00 0. -1.
          1   -1    0    0  501    0 -0.00000000000E+00 -0.00000000000E+00 -0.37372511954E+03  0.37372511954E+03  0.00000000000E+00 0. -1.
         25    2    1    2    0    0  0.59551485758E+01  0.13613950235E+03 -0.11738222716E+02  0.18529010054E+03  0.12500083036E+03 0.  0.
          2    1    1    2  501    0  0.18877505346E+02 -0.13947980487E+03 -0.25700498024E+03  0.29302309813E+03  0.00000000000E+00 0. -1.
          1    1    1    2  502    0 -0.24832653922E+02  0.33403025166E+01  0.79685564488E+03  0.79724948234E+03  0.00000000000E+00 0. -1.
         22    1    3    3    0    0  0.76071112787E+01 -0.11920472820E+02 -0.32811371017E+02  0.35728866233E+02  0.00000000000E+00 0. -1.
         22    1    3    3    0    0 -0.16519627028E+01  0.14805997517E+03  0.21073148301E+02  0.14956123431E+03  0.00000000000E+00 0. -1.
</event>
<event>
 7    1  0.5970484E-006  0.6278481E+02  0.7818608E-02  0.1490530E+00
          2   -1    0    0  502    0  0.00000000000E+00  0.00000000000E+00  0.47861809134E+02  0.47861809134E+02  0.00000000000E+00 0. -1.
          1   -1    0    0  501    0 -0.00000000000E+00 -0.00000000000E+00 -0.18163866578E+04  0.18163866578E+04  0.00000000000E+00 0. -1.
         25    2    1    2    0    0 -0.55867957031E+01 -0.36476196308E+02 -0.10659025164E+04  0.10738414065E+04  0.12500186713E+03 0.  0.
          2    1    1    2  501    0 -0.18298099287E+02 -0.22212810178E+02 -0.72321062130E+03  0.72378300073E+03  0.00000000000E+00 0. -1.
          1    1    1    2  502    0  0.23884894991E+02  0.58689006486E+02  0.20588288966E+02  0.66624059721E+02  0.00000000000E+00 0. -1.
         22    1    3    3    0    0 -0.83689318403E+01 -0.75423592283E+02 -0.42292081163E+03  0.42967519152E+03  0.00000000000E+00 0.  1.
         22    1    3    3    0    0  0.27821361372E+01  0.38947395975E+02 -0.64298170474E+03  0.64416621501E+03  0.00000000000E+00 0.  1.
</event>
<event>
 7    1  0.5970484E-006  0.5133397E+02  0.7818608E-02  0.1471779E+00
          2   -1    0    0  502    0  0.00000000000E+00  0.00000000000E+00  0.74253553815E+03  0.74253553815E+03  0.00000000000E+00 0. -1.
          1   -1    0    0  501    0 -0.00000000000E+00 -0.00000000000E+00 -0.45346552588E+03  0.45346552588E+03  0.00000000000E+00 0. -1.
         25    2    1    2    0    0  0.26386071518E+02  0.13964400615E+02  0.10869477100E+03  0.16831845183E+03  0.12500127491E+03 0.  0.
          2    1    1    2  501    0 -0.10126822360E+02 -0.50702288765E+02 -0.42140389470E+03  0.42456391402E+03  0.00000000000E+00 0. -1.
          1    1    1    2  502    0 -0.16259249158E+02  0.36737888150E+02  0.60177913597E+03  0.60311869818E+03  0.00000000000E+00 0. -1.
         22    1    3    3    0    0 -0.43934680405E+02 -0.10439279118E+02  0.72829823971E+02  0.85693745107E+02  0.00000000000E+00 0. -1.
         22    1    3    3    0    0  0.70320751924E+02  0.24403679732E+02  0.35864947030E+02  0.82624706723E+02  0.00000000000E+00 0. -1.
</event>
<event>
 7    1  0.5970484E-006  0.4187938E+02  0.7818608E-02  0.1582670E+00
          2   -1    0    0  502    0  0.00000000000E+00  0.00000000000E+00  0.11635515161E+04  0.11635515161E+04  0.00000000000E+00 0. -1.
          1   -1    0    0  501    0 -0.00000000000E+00 -0.00000000000E+00 -0.72917857917E+02  0.72917857917E+02  0.00000000000E+00 0. -1.
         25    2    1    2    0    0  0.63342879456E+02  0.67996061165E+01  0.16770052629E+03  0.21864884738E+03  0.12500118768E+03 0.  0.
          2    1    1    2  501    0 -0.40896540358E+02  0.51040639621E+00 -0.38457210549E+02  0.56140400526E+02  0.00000000000E+00 0. -1.
          1    1    1    2  502    0 -0.22446339098E+02 -0.73100125127E+01  0.96139034243E+03  0.96168012611E+03  0.00000000000E+00 0. -1.
         22    1    3    3    0    0  0.48328149725E+02 -0.23853774825E+02  0.69809530410E+01  0.54344699232E+02  0.00000000000E+00 0.  1.
         22    1    3    3    0    0  0.15014729731E+02  0.30653380942E+02  0.16071957325E+03  0.16430414815E+03  0.00000000000E+00 0.  1.
</event>
<event>
 7    1  0.5970484E-006  0.5718958E+02  0.7818608E-02  0.1532122E+00
          2   -1    0    0  502    0  0.00000000000E+00  0.00000000000E+00  0.12295090401E+04  0.12295090401E+04  0.00000000000E+00 0. -1.
          1   -1    0    0  501    0 -0.00000000000E+00 -0.00000000000E+00 -0.15158459574E+03  0.15158459574E+03  0.00000000000E+00 0. -1.
         25    2    1    2    0    0  0.22827450351E+02  0.44417163018E+02  0.21729074499E+03  0.25560045757E+03  0.12498939631E+03 0.  0.
          2    1    1    2  501    0 -0.45037147605E+02 -0.35741575670E+02 -0.12603823458E+03  0.13853317823E+03  0.00000000000E+00 0. -1.
          1    1    1    2  502    0  0.22209697253E+02 -0.86755873473E+01  0.98667193393E+03  0.98696000004E+03  0.00000000000E+00 0. -1.
         22    1    3    3    0    0 -0.27445208723E+02 -0.12839188131E+02  0.15280581280E+03  0.15578093805E+03  0.00000000000E+00 0.  1.
         22    1    3    3    0    0  0.50272659075E+02  0.57256351149E+02  0.64484932191E+02  0.99819519519E+02  0.00000000000E+00 0.  1.
</event>
<event>
 7    1  0.5970484E-006  0.9031036E+02  0.7818608E-02  0.1358631E+00
          2   -1    0    0  502    0  0.00000000000E+00  0.00000000000E+00  0.42486553514E+03  0.42486553514E+03  0.00000000000E+00 0. -1.
          1   -1    0    0  501    0 -0.00000000000E+00 -0.00000000000E+00 -0.23005174899E+04  0.23005174899E+04  0.00000000000E+00 0. -1.
         25    2    1    2    0    0  0.30471258647E+02 -0.89692628854E+02  0.71796390936E+01  0.15700419935E+03  0.12500202447E+03 0.  0.
          2    1    1    2  501    0 -0.72399671519E+02  0.54208126962E+02 -0.22224789645E+04  0.22243185431E+04  0.00000000000E+00 0. -1.
          1    1    1    2  502    0  0.41928412872E+02  0.35484501892E+02  0.33964737064E+03  0.34406028260E+03  0.00000000000E+00 0. -1.
         22    1    3    3    0    0 -0.34964682733E+02 -0.28908625002E+02  0.41344677593E+02  0.61380941695E+02  0.00000000000E+00 0.  1.
         22    1    3    3    0    0  0.65435941380E+02 -0.60784003852E+02 -0.34165038499E+02  0.95623257653E+02  0.00000000000E+00 0.  1.
</event>
<event>
 7    1  0.5970484E-006  0.2521027E+03  0.7818608E-02  0.1153207E+00
          2   -1    0    0  502    0  0.00000000000E+00  0.00000000000E+00  0.11243613476E+04  0.11243613476E+04  0.00000000000E+00 0. -1.
          1   -1    0    0  501    0 -0.00000000000E+00 -0.00000000000E+00 -0.37299528452E+03  0.37299528452E+03  0.00000000000E+00 0. -1.
         25    2    1    2    0    0  0.70720470099E+02 -0.10460519373E+03 -0.47218950831E+01  0.17773858697E+03  0.12500031024E+03 0.  0.
          2    1    1    2  501    0  0.77425634098E+02 -0.13114477456E+03 -0.24061110717E+03  0.28475846889E+03  0.00000000000E+00 0. -1.
          1    1    1    2  502    0 -0.14814610420E+03  0.23574996829E+03  0.99669906531E+03  0.10348595762E+04  0.00000000000E+00 0. -1.
         22    1    3    3    0    0  0.83121033843E+01 -0.23477025265E+02 -0.57438542851E+02  0.62605494829E+02  0.00000000000E+00 0.  1.
         22    1    3    3    0    0  0.62408366714E+02 -0.81128168464E+02  0.52716647768E+02  0.11513309214E+03  0.00000000000E+00 0.  1.
</event>
<event>
 7    1  0.5970484E-006  0.5810717E+02  0.7818608E-02  0.1435075E+00
          2   -1    0    0  502    0  0.00000000000E+00  0.00000000000E+00  0.12863504502E+04  0.12863504502E+04  0.00000000000E+00 0. -1.
          1   -1    0    0  501    0 -0.00000000000E+00 -0.00000000000E+00 -0.24748339684E+02  0.24748339684E+02  0.00000000000E+00 0. -1.
         25    2    1    2    0    0  0.52614172618E+02 -0.56198126126E+02  0.52446222229E+03  0.54461891331E+03  0.12499062998E+03 0.  0.
          2    1    1    2  501    0 -0.61710621332E+01  0.57189031964E+02  0.45657629504E+02  0.73438998610E+02  0.00000000000E+00 0. -1.
          1    1    1    2  502    0 -0.46443110485E+02 -0.99090583753E+00  0.69148225869E+03  0.69304087793E+03  0.00000000000E+00 0. -1.
         22    1    3    3    0    0  0.18754354626E+02  0.31041515919E+02  0.54729069166E+02  0.65654950611E+02  0.00000000000E+00 0.  1.
         22    1    3    3    0    0  0.33859817992E+02 -0.87239642045E+02  0.46973315313E+03  0.47896396270E+03  0.00000000000E+00 0.  1.
</event>
<event>
 7    1  0.5970484E-006  0.8456985E+02  0.7818608E-02  0.1343325E+00
          2   -1    0    0  502    0  0.00000000000E+00  0.00000000000E+00  0.11458300378E+04  0.11458300378E+04  0.00000000000E+00 0. -1.
          1   -1    0    0  501    0 -0.00000000000E+00 -0.00000000000E+00 -0.15411139114E+03  0.15411139114E+03  0.00000000000E+00 0. -1.
         25    2    1    2    0    0 -0.18731729142E+02  0.62179079840E+01 -0.12872367971E+02  0.12720221212E+03  0.12500065941E+03 0.  0.
          2    1    1    2  501    0 -0.66527869050E+02  0.63145159610E+01 -0.68789311280E+02  0.95905160542E+02  0.00000000000E+00 0. -1.
          1    1    1    2  502    0  0.85259598192E+02 -0.12532423945E+02  0.10733803259E+04  0.10768340563E+04  0.00000000000E+00 0. -1.
         22    1    3    3    0    0 -0.57919152315E+02  0.27357438594E+02 -0.39564461672E+02  0.75288805799E+02  0.00000000000E+00 0. -1.
         22    1    3    3    0    0  0.39187423173E+02 -0.21139530610E+02  0.26692093701E+02  0.51913406318E+02  0.00000000000E+00 0. -1.
</event>
<event>
 7    1  0.5970484E-006  0.1353135E+03  0.7818608E-02  0.1286023E+00
          2   -1    0    0  502    0  0.00000000000E+00  0.00000000000E+00  0.26495969990E+03  0.26495969990E+03  0.00000000000E+00 0. -1.
          1   -1    0    0  501    0 -0.00000000000E+00 -0.00000000000E+00 -0.13145080525E+04  0.13145080525E+04  0.00000000000E+00 0. -1.
         25    2    1    2    0    0 -0.44689008489E+02  0.55991156405E+02  0.53225458889E+01  0.14413152584E+03  0.12495379214E+03 0.  0.
          2    1    1    2  501    0  0.63024432149E+02 -0.12354936838E+03 -0.12346465626E+04  0.12424124355E+04  0.00000000000E+00 0. -1.
          1    1    1    2  502    0 -0.18335423660E+02  0.67558211970E+02  0.17977566407E+03  0.19292379106E+03  0.00000000000E+00 0. -1.
         22    1    3    3    0    0 -0.32870889291E+02  0.95829124982E+02 -0.45816796751E+01  0.10141355110E+03  0.00000000000E+00 0.  1.
         22    1    3    3    0    0 -0.11818119198E+02 -0.39837968577E+02  0.99042255640E+01  0.42717974738E+02  0.00000000000E+00 0.  1.
</event>
<event>
 7    1  0.5970484E-006  0.6011827E+02  0.7818608E-02  0.1434211E+00
          2   -1    0    0  502    0  0.00000000000E+00  0.00000000000E+00  0.13304386712E+04  0.13304386712E+04  0.00000000000E+00 0. -1.
          1   -1    0    0  501    0 -0.00000000000E+00 -0.00000000000E+00 -0.39708343809E+03  0.39708343809E+03  0.00000000000E+00 0. -1.
         25    2    1    2    0    0 -0.27545582194E+02  0.91373828132E+01  0.14939574497E+03  0.19694284414E+03  0.12500057752E+03 0.  0.
          2    1    1    2  501    0 -0.12177401183E+01  0.45176411912E+02 -0.37112216473E+03  0.37386368135E+03  0.00000000000E+00 0. -1.
          1    1    1    2  502    0  0.28763322312E+02 -0.54313794725E+02  0.11550816528E+04  0.11567155838E+04  0.00000000000E+00 0. -1.
         22    1    3    3    0    0  0.37943955174E+02  0.14932172946E+02  0.11649383295E+03  0.12342417364E+03  0.00000000000E+00 0.  1.
         22    1    3    3    0    0 -0.65489537368E+02 -0.57947901324E+01  0.32901912017E+02  0.73518670498E+02  0.00000000000E+00 0.  1.
</event>
<event>
 7    1  0.5970484E-006  0.8011419E+02  0.7818608E-02  0.1369615E+00
          2   -1    0    0  502    0  0.00000000000E+00  0.00000000000E+00  0.71078612391E+03  0.71078612391E+03  0.00000000000E+00 0. -1.
          1   -1    0    0  501    0 -0.00000000000E+00 -0.00000000000E+00 -0.29027787489E+03  0.29027787489E+03  0.00000000000E+00 0. -1.
         25    2    1    2    0    0 -0.42385924040E+02 -0.63644506987E+02  0.48186149187E+02  0.15425012239E+03  0.12499602176E+03 0.  0.
          2    1    1    2  501    0  0.79000021893E+02  0.20623706991E+02 -0.22885752587E+03  0.24298581830E+03  0.00000000000E+00 0. -1.
          1    1    1    2  502    0 -0.36614097853E+02  0.43020799996E+02  0.60117962570E+03  0.60382805810E+03  0.00000000000E+00 0. -1.
         22    1    3    3    0    0 -0.19718573085E+02 -0.65426979821E+02 -0.28667510731E+02  0.74103562563E+02  0.00000000000E+00 0. -1.
         22    1    3    3    0    0 -0.22667350955E+02  0.17824728340E+01  0.76853659918E+02  0.80146559823E+02  0.00000000000E+00 0. -1.
</event>
<event>
 7    1  0.5970484E-006  0.8205939E+02  0.7818608E-02  0.1408677E+00
          2   -1    0    0  502    0  0.00000000000E+00  0.00000000000E+00  0.59406504394E+03  0.59406504394E+03  0.00000000000E+00 0. -1.
          1   -1    0    0  501    0 -0.00000000000E+00 -0.00000000000E+00 -0.92084710305E+03  0.92084710305E+03  0.00000000000E+00 0. -1.
         25    2    1    2    0    0  0.59455032367E+02  0.59550996970E+02  0.10123234794E+02  0.15102671942E+03  0.12500147191E+03 0.  0.
          2    1    1    2  501    0 -0.24002274139E+02 -0.78664847732E+02 -0.84761205651E+03  0.85159289909E+03  0.00000000000E+00 0. -1.
          1    1    1    2  502    0 -0.35452758227E+02  0.19113850762E+02  0.51070676262E+03  0.51229252848E+03  0.00000000000E+00 0. -1.
         22    1    3    3    0    0 -0.27235802599E+02  0.18478291818E+02 -0.32319937623E+02  0.46128240587E+02  0.00000000000E+00 0. -1.
         22    1    3    3    0    0  0.86690834966E+02  0.41072705153E+02  0.42443172417E+02  0.10489847883E+03  0.00000000000E+00 0. -1.
</event>
<event>
 7    1  0.5970484E-006  0.4614205E+02  0.7818608E-02  0.1489007E+00
          2   -1    0    0  502    0  0.00000000000E+00  0.00000000000E+00  0.10145958367E+04  0.10145958367E+04  0.00000000000E+00 0. -1.
          1   -1    0    0  501    0 -0.00000000000E+00 -0.00000000000E+00 -0.15042052558E+03  0.15042052558E+03  0.00000000000E+00 0. -1.
         25    2    1    2    0    0 -0.78561283820E+02 -0.74337252896E+01  0.90026027612E+00  0.14782933385E+03  0.12500226355E+03 0.  0.
          2    1    1    2  501    0  0.37399934932E+02 -0.12945300669E+02 -0.71266016628E+02  0.81517980031E+02  0.00000000000E+00 0. -1.
          1    1    1    2  502    0  0.41161348887E+02  0.20379025958E+02  0.93454106745E+03  0.93566904838E+03  0.00000000000E+00 0. -1.
         22    1    3    3    0    0  0.22976158065E+02  0.77689764098E+01  0.32367162717E+02  0.40446187166E+02  0.00000000000E+00 0. -1.
         22    1    3    3    0    0 -0.10153744189E+03 -0.15202701699E+02 -0.31466902441E+02  0.10738314669E+03  0.00000000000E+00 0. -1.
</event>
<event>
 7    1  0.5970484E-006  0.4083491E+02  0.7818608E-02  0.1554523E+00
          2   -1    0    0  502    0  0.00000000000E+00  0.00000000000E+00  0.38692812509E+02  0.38692812509E+02  0.00000000000E+00 0. -1.
          1   -1    0    0  501    0 -0.00000000000E+00 -0.00000000000E+00 -0.25594810575E+04  0.25594810575E+04  0.00000000000E+00 0. -1.
         25    2    1    2    0    0 -0.28294067365E+02  0.10995447952E+02 -0.56967897942E+03  0.58402141016E+03  0.12500165524E+03 0.  0.
          2    1    1    2  501    0 -0.96678612097E+01 -0.27215216908E+02 -0.19689633523E+04  0.19691751619E+04  0.00000000000E+00 0. -1.
          1    1    1    2  502    0  0.37961928575E+02  0.16219768956E+02  0.17854086656E+02  0.44977298012E+02  0.00000000000E+00 0. -1.
         22    1    3    3    0    0 -0.24980402625E+02  0.64355678162E+02 -0.40614224516E+03  0.41196747096E+03  0.00000000000E+00 0. -1.
         22    1    3    3    0    0 -0.33136647403E+01 -0.53360230211E+02 -0.16353673426E+03  0.17205393920E+03  0.00000000000E+00 0. -1.
</event>
<event>
 7    1  0.5970484E-006  0.5984777E+02  0.7818608E-02  0.1489843E+00
          2   -1    0    0  502    0  0.00000000000E+00  0.00000000000E+00  0.22292783500E+04  0.22292783500E+04  0.00000000000E+00 0. -1.
          1   -1    0    0  501    0 -0.00000000000E+00 -0.00000000000E+00 -0.27451740724E+03  0.27451740724E+03  0.00000000000E+00 0. -1.
         25    2    1    2    0    0 -0.28401521267E+02  0.65793744695E+02 -0.45238791394E+02  0.15101533825E+03  0.12499448343E+03 0.  0.
          2    1    1    2  501    0 -0.16043131998E+02 -0.25746811235E+02 -0.17467159643E+03  0.17728634175E+03  0.00000000000E+00 0. -1.
          1    1    1    2  502    0  0.44444653264E+02 -0.40046933459E+02  0.21746713306E+04  0.21754940772E+04  0.00000000000E+00 0. -1.
         22    1    3    3    0    0 -0.37534699508E+01  0.95604749122E+02 -0.56004414762E+02  0.11086411080E+03  0.00000000000E+00 0.  1.
         22    1    3    3    0    0 -0.24648051316E+02 -0.29811004427E+02  0.10765623368E+02  0.40151227442E+02  0.00000000000E+00 0.  1.
</event>
<event>
 7    1  0.5970484E-006  0.1017891E+03  0.7818608E-02  0.1294727E+00
          2   -1    0    0  502    0  0.00000000000E+00  0.00000000000E+00  0.33510291724E+03  0.33510291724E+03  0.00000000000E+00 0. -1.
          1   -1    0    0  501    0 -0.00000000000E+00 -0.00000000000E+00 -0.29792570446E+03  0.29792570446E+03  0.00000000000E+00 0. -1.
         25    2    1    2    0    0 -0.18695876734E+02 -0.14458582066E+03 -0.85592073877E+02  0.21024976770E+03  0.12499746543E+03 0.  0.
          2    1    1    2  501    0 -0.43022094302E+02  0.85016053567E+02 -0.12695529021E+03  0.15873334771E+03  0.00000000000E+00 0. -1.
          1    1    1    2  502    0  0.61717971036E+02  0.59569767096E+02  0.24972457687E+03  0.26404550629E+03  0.00000000000E+00 0. -1.
         22    1    3    3    0    0  0.34238834061E+02 -0.40350854314E+02  0.16088528322E+02  0.55311209943E+02  0.00000000000E+00 0. -1.
         22    1    3    3    0    0 -0.52934710795E+02 -0.10423496635E+03 -0.10168060220E+03  0.15493855776E+03  0.00000000000E+00 0. -1.
</event>
<event>
 7    1  0.5970484E-006  0.7054830E+02  0.7818608E-02  0.1364604E+00
          2   -1    0    0  502    0  0.00000000000E+00  0.00000000000E+00  0.52389626991E+03  0.52389626991E+03  0.00000000000E+00 0. -1.
          1   -1    0    0  501    0 -0.00000000000E+00 -0.00000000000E+00 -0.15630562974E+03  0.15630562974E+03  0.00000000000E+00 0. -1.
         25    2    1    2    0    0  0.38370804589E+02 -0.68684077782E+01  0.11577674425E+03  0.17478335769E+03  0.12500189578E+03 0.  0.
          2    1    1    2  501    0  0.11785298814E+02  0.65834811449E+02 -0.11363742753E+03  0.13185818367E+03  0.00000000000E+00 0. -1.
          1    1    1    2  502    0 -0.50156103403E+02 -0.58966403671E+02  0.36545132345E+03  0.37356035828E+03  0.00000000000E+00 0. -1.
         22    1    3    3    0    0 -0.33172780254E+02  0.12050923480E+02 -0.23702629346E+01  0.35373383396E+02  0.00000000000E+00 0.  1.
         22    1    3    3    0    0  0.71543584843E+02 -0.18919331258E+02  0.11814700718E+03  0.13940997430E+03  0.00000000000E+00 0.  1.
</event>
<event>
 7    1  0.5970484E-006  0.1030948E+03  0.7818608E-02  0.1412481E+00
          2   -1    0    0  502    0  0.00000000000E+00  0.00000000000E+00  0.45365333140E+02  0.45365333140E+02  0.00000000000E+00 0. -1.
          1   -1    0    0  501    0 -0.00000000000E+00 -0.00000000000E+00 -0.19939385279E+04  0.19939385279E+04  0.00000000000E+00 0. -1.
         25    2    1    2    0    0 -0.12307922633E+03 -0.25412843685E+02 -0.59879203202E+03  0.62447583126E+03  0.12499543049E+03 0.  0.
          2    1    1    2  501    0  0.99976051340E+02  0.45602868071E+01 -0.13725956288E+04  0.13762393568E+04  0.00000000000E+00 0. -1.
          1    1    1    2  502    0  0.23103174988E+02  0.20852556878E+02  0.22814466028E+02  0.38588672988E+02  0.00000000000E+00 0. -1.
         22    1    3    3    0    0 -0.39953126268E+02  0.23979540346E+02 -0.54690283777E+02  0.71849132169E+02  0.00000000000E+00 0.  1.
         22    1    3    3    0    0 -0.83126100060E+02 -0.49392384031E+02 -0.54410174824E+03  0.55262669909E+03  0.00000000000E+00 0.  1.
</event>
<event>
 7    1  0.5970484E-006  0.1445684E+03  0.7818608E-02  0.1316231E+00
          2   -1    0    0  502    0  0.00000000000E+00  0.00000000000E+00  0.45756679150E+03  0.45756679150E+03  0.00000000000E+00 0. -1.
          1   -1    0    0  501    0 -0.00000000000E+00 -0.00000000000E+00 -0.52842602194E+03  0.52842602194E+03  0.00000000000E+00 0. -1.
         25    2    1    2    0    0  0.11637868996E+02  0.15705498814E+03  0.14172687168E+03  0.24599374303E+03  0.12499882464E+03 0.  0.
          2    1    1    2  501    0  0.42347889876E+02 -0.25859120221E+02 -0.45576744552E+03  0.45846046969E+03  0.00000000000E+00 0. -1.
          1    1    1    2  502    0 -0.53985758872E+02 -0.13119586791E+03  0.24318134339E+03  0.28153860072E+03  0.00000000000E+00 0. -1.
         22    1    3    3    0    0  0.14826564652E+01  0.17424949251E+03  0.14378488140E+03  0.22591851635E+03  0.00000000000E+00 0.  1.
         22    1    3    3    0    0  0.10155212531E+02 -0.17194504377E+02 -0.20580097161E+01  0.20075226682E+02  0.00000000000E+00 0.  1.
</event>
<event>
 7    1  0.5970484E-006  0.1587953E+03  0.7818608E-02  0.1262789E+00
          2   -1    0    0  502    0  0.00000000000E+00  0.00000000000E+00  0.75983948556E+03  0.75983948556E+03  0.00000000000E+00 0. -1.
          1   -1    0    0  501    0 -0.00000000000E+00 -0.00000000000E+00 -0.65340270529E+03  0.65340270529E+03  0.00000000000E+00 0. -1.
         25    2    1    2    0    0  0.14514485967E+03  0.34229521269E+02 -0.31731062573E+03  0.37222317910E+03  0.12500148577E+03 0.  0.
          2    1    1    2  501    0 -0.24747184726E+02  0.70332264470E+02 -0.29526630543E+03  0.30453446717E+03  0.00000000000E+00 0. -1.
          1    1    1    2  502    0 -0.12039767494E+03 -0.10456178574E+03  0.71901371143E+03  0.73648454457E+03  0.00000000000E+00 0. -1.
         22    1    3    3    0    0  0.30822674296E+02  0.68080567616E+02 -0.13700760305E+03  0.15606435926E+03  0.00000000000E+00 0.  1.
         22    1    3    3    0    0  0.11432218537E+03 -0.33851046347E+02 -0.18030302268E+03  0.21615881984E+03  0.00000000000E+00 0.  1.
</event>
<event>
 7    1  0.5970484E-006  0.2376367E+03  0.7818608E-02  0.1183754E+00
          2   -1    0    0  502    0  0.00000000000E+00  0.00000000000E+00  0.84864366768E+03  0.84864366768E+03  0.00000000000E+00 0. -1.
          1   -1    0    0  501    0 -0.00000000000E+00 -0.00000000000E+00 -0.55738821415E+03  0.55738821415E+03  0.00000000000E+00 0. -1.
         25    2    1    2    0    0  0.12011435070E+03  0.16510116261E+03  0.36537065936E+03  0.43681441529E+03  0.12500105420E+03 0.  0.
          2    1    1    2  501    0 -0.33758959025E+02 -0.23923768991E+03 -0.48554491946E+03  0.54233588154E+03  0.00000000000E+00 0. -1.
          1    1    1    2  502    0 -0.86355391675E+02  0.74136527293E+02  0.41142971364E+03  0.42688158500E+03  0.00000000000E+00 0. -1.
         22    1    3    3    0    0  0.50836759708E+00  0.93131154761E+02  0.19846455827E+03  0.21923013322E+03  0.00000000000E+00 0. -1.
         22    1    3    3    0    0  0.11960598310E+03  0.71970007852E+02  0.16690610109E+03  0.21758428207E+03  0.00000000000E+00 0. -1.
</event>
<event>
 7    1  0.5970484E-006  0.1103979E+03  0.7818608E-02  0.1406756E+00
          2   -1    0    0  502    0  0.00000000000E+00  0.00000000000E+00  0.11683836984E+04  0.11683836984E+04  0.00000000000E+00 0. -1.
          1   -1    0    0  501    0 -0.00000000000E+00 -0.00000000000E+00 -0.19971702714E+03  0.19971702714E+03  0.00000000000E+00 0. -1.
         25    2    1    2    0    0 -0.95342013043E+02  0.36436373818E+01  0.16084423073E+03  0.22494346909E+03  0.12500128873E+03 0.  0.
          2    1    1    2  501    0  0.10970024709E+03  0.23142624314E+02 -0.14865697554E+03  0.18619511714E+03  0.00000000000E+00 0. -1.
          1    1    1    2  502    0 -0.14358234043E+02 -0.26786261696E+02  0.95647941609E+03  0.95696213933E+03  0.00000000000E+00 0. -1.
         22    1    3    3    0    0 -0.11281134941E+03  0.37718074798E+02  0.12046444367E+03  0.16929481950E+03  0.00000000000E+00 0.  1.
         22    1    3    3    0    0  0.17469336363E+02 -0.34074437416E+02  0.40379787064E+02  0.55648649593E+02  0.00000000000E+00 0.  1.
</event>
<event>
 7    1  0.5970484E-006  0.1152696E+03  0.7818608E-02  0.1340429E+00
          2   -1    0    0  502    0  0.00000000000E+00  0.00000000000E+00  0.48211900802E+03  0.48211900802E+03  0.00000000000E+00 0. -1.
          1   -1    0    0  501    0 -0.00000000000E+00 -0.00000000000E+00 -0.55644100390E+03  0.55644100390E+03  0.00000000000E+00 0. -1.
         25    2    1    2    0    0  0.53092002808E+01 -0.80423426476E+02  0.79890329611E+02  0.16883404171E+03  0.12500541485E+03 0.  0.
          2    1    1    2  501    0 -0.28057802569E+02 -0.41712031490E+02 -0.49988467073E+03  0.50240602892E+03  0.00000000000E+00 0. -1.
          1    1    1    2  502    0  0.22748602288E+02  0.12213545797E+03  0.34567234525E+03  0.36731994129E+03  0.00000000000E+00 0. -1.
         22    1    3    3    0    0  0.51355998102E+02 -0.12808923599E+02  0.67997251530E+02  0.86169213066E+02  0.00000000000E+00 0. -1.
         22    1    3    3    0    0 -0.46046797821E+02 -0.67614502877E+02  0.11893078081E+02  0.82664828646E+02  0.00000000000E+00 0. -1.
</event>
<event>
 7    1  0.5970484E-006  0.7091686E+02  0.7818608E-02  0.1510479E+00
          2   -1    0    0  502    0  0.00000000000E+00  0.00000000000E+00  0.16154501781E+03  0.16154501781E+03  0.00000000000E+00 0. -1.
          1   -1    0    0  501    0 -0.00000000000E+00 -0.00000000000E+00 -0.33529404250E+03  0.33529404250E+03  0.00000000000E+00 0. -1.
         25    2    1    2    0    0 -0.54268332045E+02  0.67459017380E+02 -0.10934616456E+03  0.18728841868E+03  0.12499838870E+03 0.  0.
          2    1    1    2  501    0  0.33391006219E+02 -0.59860164221E+02 -0.17959763077E+03  0.19223295122E+03  0.00000000000E+00 0. -1.
          1    1    1    2  502    0  0.20877325826E+02 -0.75988531592E+01  0.11519477063E+03  0.11731769041E+03  0.00000000000E+00 0. -1.
         22    1    3    3    0    0  0.49169289083E+01  0.88811103085E+02 -0.68602849613E+02  0.11232960071E+03  0.00000000000E+00 0.  1.
         22    1    3    3    0    0 -0.59185260953E+02 -0.21352085705E+02 -0.40743314947E+02  0.74958817966E+02  0.00000000000E+00 0.  1.
</event>
<event>
 7    1  0.5970484E-006  0.5983089E+02  0.7818608E-02  0.1430588E+00
          2   -1    0    0  502    0  0.00000000000E+00  0.00000000000E+00  0.80834195598E+02  0.80834195598E+02  0.00000000000E+00 0. -1.
          1   -1    0    0  501    0 -0.00000000000E+00 -0.00000000000E+00 -0.79963348063E+03  0.79963348063E+03  0.00000000000E+00 0. -1.
         25    2    1    2    0    0  0.76083227692E+02 -0.66806786932E+02 -0.29619496923E+03  0.33705824006E+03  0.12499997232E+03 0.  0.
          2    1    1    2  501    0 -0.48362009725E+02  0.29262140842E+02 -0.47204704657E+03  0.47541936335E+03  0.00000000000E+00 0. -1.
          1    1    1    2  502    0 -0.27721217967E+02  0.37544646089E+02  0.49442730770E+02  0.67990072816E+02  0.00000000000E+00 0. -1.
         22    1    3    3    0    0 -0.87279341052E+01  0.25560047352E+02 -0.19618683644E+02  0.33382414567E+02  0.00000000000E+00 0. -1.
         22    1    3    3    0    0  0.84811161798E+02 -0.92366834284E+02 -0.27657628559E+03  0.30367582549E+03  0.00000000000E+00 0. -1.
</event>
<event>
 7    1  0.5970484E-006  0.1386986E+03  0.7818608E-02  0.1303934E+00
          2   -1    0    0  502    0  0.00000000000E+00  0.00000000000E+00  0.11008608909E+04  0.11008608909E+04  0.00000000000E+00 0. -1.
          1   -1    0    0  501    0 -0.00000000000E+00 -0.00000000000E+00 -0.32819303022E+03  0.32819303022E+03  0.00000000000E+00 0. -1.
         25    2    1    2    0    0 -0.10876333731E+03 -0.24904480461E+02  0.53553357852E+02  0.17590422044E+03  0.12499854376E+03 0.  0.
          2    1    1    2  501    0  0.14286864072E+03 -0.21790012375E+02 -0.24653408021E+03  0.28577142238E+03  0.00000000000E+00 0. -1.
          1    1    1    2  502    0 -0.34105303404E+02  0.46694492835E+02  0.96564858300E+03  0.96737827825E+03  0.00000000000E+00 0. -1.
         22    1    3    3    0    0 -0.31099273667E+01  0.16074544121E+02 -0.30632509036E+02  0.34733459758E+02  0.00000000000E+00 0.  1.
         22    1    3    3    0    0 -0.10565340995E+03 -0.40979024581E+02  0.84185866888E+02  0.14117076069E+03  0.00000000000E+00 0.  1.
</event>
<event>
 7    1  0.5970484E-006  0.4695727E+02  0.7818608E-02  0.1472520E+00
          2   -1    0    0  502    0  0.00000000000E+00  0.00000000000E+00  0.25866348038E+02  0.25866348038E+02  0.00000000000E+00 0. -1.
          1   -1    0    0  501    0 -0.00000000000E+00 -0.00000000000E+00 -0.13105027669E+04  0.13105027669E+04  0.00000000000E+00 0. -1.
         25    2    1    2    0    0 -0.82483596974E+01 -0.33751883994E+02 -0.28149619573E+03  0.30995475158E+03  0.12499845881E+03 0.  0.
          2    1    1    2  501    0  0.43394380464E+02 -0.50572775656E+01 -0.95273598087E+03  0.95373712183E+03  0.00000000000E+00 0. -1.
          1    1    1    2  502    0 -0.35146020767E+02  0.38809161559E+02 -0.50404242230E+02  0.72677241496E+02  0.00000000000E+00 0. -1.
         22    1    3    3    0    0 -0.84075510737E+01 -0.19268423629E+02  0.61813966813E+01  0.21912752660E+02  0.00000000000E+00 0.  1.
         22    1    3    3    0    0  0.15919137625E+00 -0.14483460365E+02 -0.28767759241E+03  0.28804199892E+03  0.00000000000E+00 0.  1.
</event>
<event>
 7    1  0.5970484E-006  0.7559464E+02  0.7818608E-02  0.1351060E+00
          2   -1    0    0  502    0  0.00000000000E+00  0.00000000000E+00  0.17853658775E+04  0.17853658775E+04  0.00000000000E+00 0. -1.
          1   -1    0    0  501    0 -0.00000000000E+00 -0.00000000000E+00 -0.34800398745E+03  0.34800398745E+03  0.00000000000E+00 0. -1.
         25    2    1    2    0    0 -0.56033565952E+02 -0.61081408998E+02  0.13389562966E+04  0.13473308732E+04  0.12500327437E+03 0.  0.
          2    1    1    2  501    0 -0.19549206446E+02  0.73023131297E+02 -0.33627878428E+03  0.34467081387E+03  0.00000000000E+00 0. -1.
          1    1    1    2  502    0  0.75582772397E+02 -0.11941722298E+02  0.43468437773E+03  0.44136817789E+03  0.00000000000E+00 0. -1.
         22    1    3    3    0    0 -0.90309424344E+02 -0.41367816758E+02  0.11499851406E+04  0.11542672619E+04  0.00000000000E+00 0.  1.
         22    1    3    3    0    0  0.34275858393E+02 -0.19713592240E+02  0.18897115598E+03  0.19306361123E+03  0.00000000000E+00 0.  1.
</event>
<event>
 7    1  0.5970484E-006  0.4413208E+02  0.7818608E-02  0.1508384E+00
          2   -1    0    0  502    0  0.00000000000E+00  0.00000000000E+00  0.32223748848E+04  0.32223748848E+04  0.00000000000E+00 0. -1.
          1   -1    0    0  501    0 -0.00000000000E+00 -0.00000000000E+00 -0.46774518227E+02  0.46774518227E+02  0.00000000000E+00 0. -1.
         25    2    1    2    0    0 -0.27010275016E+01  0.27552798221E+02  0.13013123237E+04  0.13075908684E+04  0.12495464446E+03 0.  0.
          2    1    1    2  501    0  0.38496398542E+02 -0.22072900590E+02 -0.32136583001E+02  0.54790013763E+02  0.00000000000E+00 0. -1.
          1    1    1    2  502    0 -0.35795371041E+02 -0.54798976314E+01  0.19064246259E+04  0.19067685208E+04  0.00000000000E+00 0. -1.
         22    1    3    3    0    0  0.40790975733E+02  0.52229298505E+02  0.99676505561E+03  0.99896565477E+03  0.00000000000E+00 0. -1.
         22    1    3    3    0    0 -0.43492003235E+02 -0.24676500283E+02  0.30454726810E+03  0.30862521368E+03  0.00000000000E+00 0. -1.
</event>
<event>
 7    1  0.5970484E-006  0.1438771E+03  0.7818608E-02  0.1425421E+00
          2   -1    0    0  502    0  0.00000000000E+00  0.00000000000E+00  0.59205396192E+03  0.59205396192E+03  0.00000000000E+00 0. -1.
          1   -1    0    0  501    0 -0.00000000000E+00 -0.00000000000E+00 -0.75842975557E+03  0.75842975557E+03  0.00000000000E+00 0. -1.
         25    2    1    2    0    0 -0.12236228867E+03 -0.10795044819E+03 -0.36714637943E+03  0.42077135593E+03  0.12500496425E+03 0.  0.
          2    1    1    2  501    0  0.17453988135E+02  0.10138680890E+02 -0.35508048081E+03  0.35565373948E+03  0.00000000000E+00 0. -1.
          1    1    1    2  502    0  0.10490830054E+03  0.97811767302E+02  0.55585106660E+03  0.57405862208E+03  0.00000000000E+00 0. -1.
         22    1    3    3    0    0 -0.10217472795E+03 -0.81077237690E+02 -0.36440867131E+03  0.38704892873E+03  0.00000000000E+00 0. -1.
         22    1    3    3    0    0 -0.20187560720E+02 -0.26873210502E+02 -0.27377081180E+01  0.33722427199E+02  0.00000000000E+00 0. -1.
</event>
<event>
 7    1  0.5970484E-006  0.1106338E+03  0.7818608E-02  0.1314649E+00
          2   -1    0    0  502    0  0.00000000000E+00  0.00000000000E+00  0.51050195993E+03  0.51050195993E+03  0.00000000000E+00 0. -1.
          1   -1    0    0  501    0 -0.00000000000E+00 -0.00000000000E+00 -0.70124269332E+03  0.70124269332E+03  0.00000000000E+00 0. -1.
         25    2    1    2    0    0 -0.88546504433E+01 -0.86671449151E+02  0.19933237365E+02  0.15365842123E+03  0.12499292592E+03 0.  0.
          2    1    1    2  501    0 -0.65761580636E+02 -0.91750584093E+00 -0.62481055489E+03  0.62826241079E+03  0.00000000000E+00 0. -1.
          1    1    1    2  502    0  0.74616231079E+02  0.87588954992E+02  0.41413658413E+03  0.42982382123E+03  0.00000000000E+00 0. -1.
         22    1    3    3    0    0  0.31896692605E+02 -0.79457988496E+01 -0.36070846164E+02  0.48802055914E+02  0.00000000000E+00 0. -1.
         22    1    3    3    0    0 -0.40751343048E+02 -0.78725650301E+02  0.56004083529E+02  0.10485636532E+03  0.00000000000E+00 0. -1.
</event>
<event>
 7    1  0.5970484E-006  0.9539842E+02  0.7818608E-02  0.1396389E+00
          2   -1    0    0  502    0  0.00000000000E+00  0.00000000000E+00  0.34238552151E+03  0.34238552151E+03  0.00000000000E+00 0. -1.
          1   -1    0    0  501    0 -0.00000000000E+00 -0.00000000000E+00 -0.79395781945E+03  0.79395781945E+03  0.00000000000E+00 0. -1.
         25    2    1    2    0    0  0.47959260636E+02 -0.83975151072E+02 -0.22111195137E+03  0.27178698235E+03  0.12500300820E+03 0.  0.
          2    1    1    2  501    0 -0.76423957799E+02  0.58541685276E+02 -0.54210301231E+03  0.55058462219E+03  0.00000000000E+00 0. -1.
          1    1    1    2  502    0  0.28464697162E+02  0.25433465795E+02  0.31164266574E+03  0.31397173642E+03  0.00000000000E+00 0. -1.
         22    1    3    3    0    0  0.39915542318E+02  0.21195363658E+02 -0.32435115941E+02  0.55628506228E+02  0.00000000000E+00 0. -1.
         22    1    3    3    0    0  0.80437183188E+01 -0.10517051473E+03 -0.18867683543E+03  0.21615847612E+03  0.00000000000E+00 0. -1.
</event>
<event>
 7    1  0.5970484E-006  0.1670495E+03  0.7818608E-02  0.1235257E+00
          2   -1    0    0  502    0  0.00000000000E+00  0.00000000000E+00  0.76444567114E+03  0.76444567114E+03  0.00000000000E+00 0. -1.
          1   -1    0    0  501    0 -0.00000000000E+00 -0.00000000000E+00 -0.55957363603E+03  0.55957363603E+03  0.00000000000E+00 0. -1.
         25    2    1    2    0    0 -0.19928798533E+03  0.13067492047E+03 -0.95673746571E+02  0.28560416612E+03  0.12499855193E+03 0.  0.
          2    1    1    2  501    0  0.14570285547E+03 -0.54229341060E+02 -0.34906997850E+03  0.38212562518E+03  0.00000000000E+00 0. -1.
          1    1    1    2  502    0  0.53585129863E+02 -0.76445579408E+02  0.64961576019E+03  0.65628951587E+03  0.00000000000E+00 0. -1.
         22    1    3    3    0    0 -0.14251018103E+03  0.42398271164E+02 -0.10223400784E+03  0.18043989984E+03  0.00000000000E+00 0.  1.
         22    1    3    3    0    0 -0.56777804301E+02  0.88276649304E+02  0.65602612719E+01  0.10516426628E+03  0.00000000000E+00 0.  1.
</event>
<event>
 7    1  0.5970484E-006  0.1406631E+03  0.7818608E-02  0.1338976E+00
          2   -1    0    0  502    0  0.00000000000E+00  0.00000000000E+00  0.81618852529E+03  0.81618852529E+03  0.00000000000E+00 0. -1.
          1   -1    0    0  501    0 -0.00000000000E+00 -0.00000000000E+00 -0.94779923149E+03  0.94779923149E+03  0.00000000000E+00 0. -1.
         25    2    1    2    0    0 -0.59319483717E+02  0.13341215791E+03 -0.11799089827E+03  0.22553009432E+03  0.12499746535E+03 0.  0.
          2    1    1    2  501    0  0.91492340943E+02 -0.10685567475E+03 -0.76908352629E+03  0.78184298557E+03  0.00000000000E+00 0. -1.
          1    1    1    2  502    0 -0.32172857225E+02 -0.26556483158E+02  0.75546371835E+03  0.75661467689E+03  0.00000000000E+00 0. -1.
         22    1    3    3    0    0  0.20736750418E+02  0.86331025554E+02 -0.20985169173E+02  0.91232867522E+02  0.00000000000E+00 0. -1.
         22    1    3    3    0    0 -0.80056234135E+02  0.47081132353E+02 -0.97005729095E+02  0.13429722680E+03  0.00000000000E+00 0. -1.
</event>
<event>
 7    1  0.5970484E-006  0.5897084E+02  0.7818608E-02  0.1416102E+00
          2   -1    0    0  502    0  0.00000000000E+00  0.00000000000E+00  0.62233619958E+02  0.62233619958E+02  0.00000000000E+00 0. -1.
          1   -1    0    0  501    0 -0.00000000000E+00 -0.00000000000E+00 -0.57049380953E+03  0.57049380953E+03  0.00000000000E+00 0. -1.
         25    2    1    2    0    0  0.13381986652E+02  0.10526888916E+02 -0.12378834936E+03  0.17674924389E+03  0.12500738706E+03 0.  0.
          2    1    1    2  501    0  0.25568203302E+02  0.46313251867E+02 -0.38343294920E+03  0.38706521008E+03  0.00000000000E+00 0. -1.
          1    1    1    2  502    0 -0.38950189954E+02 -0.56840140782E+02 -0.10388910105E+01  0.68912975528E+02  0.00000000000E+00 0. -1.
         22    1    3    3    0    0 -0.53104856027E+02 -0.55247915119E+01 -0.31885312090E+02  0.62187797694E+02  0.00000000000E+00 0.  1.
         22    1    3    3    0    0  0.66486842679E+02  0.16051680427E+02 -0.91903037271E+02  0.11456144619E+03  0.00000000000E+00 0.  1.
</event>
<event>
 7    1  0.5970484E-006  0.6287737E+02  0.7818608E-02  0.1492213E+00
          2   -1    0    0  502    0  0.00000000000E+00  0.00000000000E+00  0.12883521954E+04  0.12883521954E+04  0.00000000000E+00 0. -1.
          1   -1    0    0  501    0 -0.00000000000E+00 -0.00000000000E+00 -0.34416780154E+03  0.34416780154E+03  0.00000000000E+00 0. -1.
         25    2    1    2    0    0  0.47615069004E+02  0.25745845309E+02  0.13325937606E+03  0.19052774055E+03  0.12495085139E+03 0.  0.
          2    1    1    2  501    0 -0.36201328570E+02 -0.51753996376E+02 -0.31219175318E+03  0.31851640945E+03  0.00000000000E+00 0. -1.
          1    1    1    2  502    0 -0.11413740433E+02  0.26008151067E+02  0.11231167710E+04  0.11234758469E+04  0.00000000000E+00 0. -1.
         22    1    3    3    0    0  0.59141534287E+02  0.27165281438E+02  0.89703865935E+01  0.65697347200E+02  0.00000000000E+00 0.  1.
         22    1    3    3    0    0 -0.11526465283E+02 -0.14194361290E+01  0.12428898946E+03  0.12483039335E+03  0.00000000000E+00 0.  1.
</event>
<event>
 7    1  0.6356170E-006  0.8049198E+02  0.7818608E-02  0.1455137E+00
          2   -1    0    0  502    0  0.00000000000E+00  0.00000000000E+00  0.10312809343E+04  0.10312809343E+04  0.00000000000E+00 0. -1.
          1   -1    0    0  501    0 -0.00000000000E+00 -0.00000000000E+00 -0.58074946598E+03  0.58074946598E+03  0.00000000000E+00 0. -1.
         25    2    1    2    0    0  0.50153096283E+02 -0.42907636022E+02 -0.14314470099E+03  0.20117931101E+03  0.12500524574E+03 0.  0.
          2    1    1    2  501    0  0.25204978570E+02  0.14133635626E+02 -0.40645063093E+03  0.40747658336E+03  0.00000000000E+00 0. -1.
          1    1    1    2  502    0 -0.75358074853E+02  0.28774000396E+02  0.10001268003E+04  0.10033745059E+04  0.00000000000E+00 0. -1.
         22    1    3    3    0    0  0.88836491845E+02 -0.47072466148E+02 -0.87499401908E+02  0.13328122406E+03  0.00000000000E+00 0. -1.
         22    1    3    3    0    0 -0.38683395562E+02  0.41648301258E+01 -0.55645299081E+02  0.67898086954E+02  0.00000000000E+00 0. -1.
</event>
<event>
 7    1  0.5970484E-006  0.5230386E+02  0.7818608E-02  0.1482886E+00
          2   -1    0    0  502    0  0.00000000000E+00  0.00000000000E+00  0.21506129169E+04  0.21506129169E+04  0.00000000000E+00 0. -1.
          1   -1    0    0  501    0 -0.00000000000E+00 -0.00000000000E+00 -0.10290706521E+03  0.10290706521E+03  0.00000000000E+00 0. -1.
         25    2    1    2    0    0  0.83629869518E+02  0.17890772030E+02  0.22839800062E+03  0.27405113259E+03  0.12499736713E+03 0.  0.
          2    1    1    2  501    0 -0.47241323739E+02 -0.19904816485E+02 -0.71682824067E+02  0.88127020000E+02  0.00000000000E+00 0. -1.
          1    1    1    2  502    0 -0.36388545779E+02  0.20140444554E+01  0.18909906751E+04  0.18913418295E+04  0.00000000000E+00 0. -1.
         22    1    3    3    0    0  0.29010491356E+02  0.43249509958E+02  0.17836730623E+02  0.55047957997E+02  0.00000000000E+00 0.  1.
         22    1    3    3    0    0  0.54619378163E+02 -0.25358737928E+02  0.21056127000E+03  0.21900317460E+03  0.00000000000E+00 0.  1.
</event>
<event>
 7    1  0.5970484E-006  0.5919333E+02  0.7818608E-02  0.1437000E+00
          2   -1    0    0  502    0  0.00000000000E+00  0.00000000000E+00  0.26176474523E+03  0.26176474523E+03  0.00000000000E+00 0. -1.
          1   -1    0    0  501    0 -0.00000000000E+00 -0.00000000000E+00 -0.13680901731E+04  0.13680901731E+04  0.00000000000E+00 0. -1.
         25    2    1    2    0    0 -0.49822287485E+01 -0.39887445459E+02 -0.23423670821E+03  0.26852956088E+03  0.12500183471E+03 0.  0.
          2    1    1    2  501    0 -0.39532656308E+02  0.46098452415E+02 -0.11138082846E+04  0.11154625915E+04  0.00000000000E+00 0. -1.
          1    1    1    2  502    0  0.44514885057E+02 -0.62110069560E+01  0.24171956494E+03  0.24586276594E+03  0.00000000000E+00 0. -1.
         22    1    3    3    0    0  0.27038211170E+02 -0.35846282778E+02 -0.23186026732E+03  0.23616774635E+03  0.00000000000E+00 0. -1.
         22    1    3    3    0    0 -0.32020439918E+02 -0.40411626803E+01 -0.23764408924E+01  0.32361814530E+02  0.00000000000E+00 0. -1.
</event>
<event>
 7    1  0.5970484E-006  0.1285077E+03  0.7818608E-02  0.1328407E+00
          2   -1    0    0  502    0  0.00000000000E+00  0.00000000000E+00  0.73199830035E+03  0.73199830035E+03  0.00000000000E+00 0. -1.
          1   -1    0    0  501    0 -0.00000000000E+00 -0.00000000000E+00 -0.40716499912E+03  0.40716499912E+03  0.00000000000E+00 0. -1.
         25    2    1    2    0    0  0.55349373821E+02 -0.13753737374E+03 -0.14029255595E+01  0.19393828164E+03  0.12502002451E+03 0.  0.
          2    1    1    2  501    0  0.28483830921E+02  0.41198468781E+02 -0.30099046004E+03  0.30512931601E+03  0.00000000000E+00 0. -1.
          1    1    1    2  502    0 -0.83833204742E+02  0.96338904959E+02  0.62722668682E+03  0.64009570182E+03  0.00000000000E+00 0. -1.
         22    1    3    3    0    0  0.40497832484E+02 -0.10202324363E+03  0.57235867323E+02  0.12379321946E+03  0.00000000000E+00 0. -1.
         22    1    3    3    0    0  0.14851541337E+02 -0.35514130112E+02 -0.58638792883E+02  0.70145062182E+02  0.00000000000E+00 0. -1.
</event>
<event>
 7    1  0.5970484E-006  0.8404647E+02  0.7818608E-02  0.1444970E+00
          2   -1    0    0  502    0  0.00000000000E+00  0.00000000000E+00  0.14326196937E+04  0.14326196937E+04  0.00000000000E+00 0. -1.
          1   -1    0    0  501    0 -0.00000000000E+00 -0.00000000000E+00 -0.41024272491E+02  0.41024272491E+02  0.00000000000E+00 0. -1.
         25    2    1    2    0    0 -0.91148227962E+02 -0.14779451993E+02  0.33813915627E+03  0.37214278393E+03  0.12500292383E+03 0.  0.
          2    1    1    2  501    0  0.82037444557E+02 -0.13622643545E+02  0.48839613684E+02  0.96441830091E+02  0.00000000000E+00 0. -1.
          1    1    1    2  502    0  0.91107834048E+01  0.28402095538E+02  0.10046166513E+04  0.10050593522E+04  0.00000000000E+00 0. -1.
         22    1    3    3    0    0  0.26475261760E+02 -0.26160473788E+02  0.78654606623E+02  0.87016418090E+02  0.00000000000E+00 0. -1.
         22    1    3    3    0    0 -0.11762348972E+03  0.11381021795E+02  0.25948454965E+03  0.28512636584E+03  0.00000000000E+00 0. -1.
</event>
<event>
 7    1  0.5970484E-006  0.1525305E+03  0.7818608E-02  0.1363482E+00
          2   -1    0    0  502    0  0.00000000000E+00  0.00000000000E+00  0.13011984793E+04  0.13011984793E+04  0.00000000000E+00 0. -1.
          1   -1    0    0  501    0 -0.00000000000E+00 -0.00000000000E+00 -0.56519446952E+02  0.56519446952E+02  0.00000000000E+00 0. -1.
         25    2    1    2    0    0 -0.10858045361E+03  0.91785650605E+02  0.71901220753E+03  0.74351852979E+03  0.12500771580E+03 0.  0.
          2    1    1    2  501    0  0.10017462396E+01  0.31209038155E+02 -0.24873488123E+02  0.39921146896E+02  0.00000000000E+00 0. -1.
          1    1    1    2  502    0  0.10757870738E+03 -0.12299468876E+03  0.55054031297E+03  0.57427824959E+03  0.00000000000E+00 0. -1.
         22    1    3    3    0    0 -0.13134891973E+03  0.47954871043E+02  0.54160521396E+03  0.55936429647E+03  0.00000000000E+00 0. -1.
         22    1    3    3    0    0  0.22768466117E+02  0.43830779563E+02  0.17740699357E+03  0.18415423333E+03  0.00000000000E+00 0. -1.
</event>
<event>
 7    1  0.5970484E-006  0.1956012E+03  0.7818608E-02  0.1255744E+00
          2   -1    0    0  502    0  0.00000000000E+00  0.00000000000E+00  0.14928799544E+04  0.14928799544E+04  0.00000000000E+00 0. -1.
          1   -1    0    0  501    0 -0.00000000000E+00 -0.00000000000E+00 -0.42699625319E+03  0.42699625319E+03  0.00000000000E+00 0. -1.
         25    2    1    2    0    0 -0.56610363118E+02 -0.17703327038E+03  0.19267567734E+03  0.29545596594E+03  0.12499919655E+03 0.  0.
          2    1    1    2  501    0 -0.62292926368E+02  0.18117704333E+02 -0.36484062645E+03  0.37056354731E+03  0.00000000000E+00 0. -1.
          1    1    1    2  502    0  0.11890328949E+03  0.15891556605E+03  0.12380486503E+04  0.12538566943E+04  0.00000000000E+00 0. -1.
         22    1    3    3    0    0 -0.10574858497E+02 -0.94353866231E+02  0.17772750391E+02  0.96593738728E+02  0.00000000000E+00 0.  1.
         22    1    3    3    0    0 -0.46035504621E+02 -0.82679404148E+02  0.17490292695E+03  0.19886222721E+03  0.00000000000E+00 0.  1.
</event>
<event>
 7    1  0.5970484E-006  0.9254697E+02  0.7818608E-02  0.1312366E+00
          2   -1    0    0  502    0  0.00000000000E+00  0.00000000000E+00  0.14193284701E+03  0.14193284701E+03  0.00000000000E+00 0. -1.
          1   -1    0    0  501    0 -0.00000000000E+00 -0.00000000000E+00 -0.76913877768E+03  0.76913877768E+03  0.00000000000E+00 0. -1.
         25    2    1    2    0    0  0.18853180586E+00 -0.72715567633E+02 -0.86760275739E+02  0.16864429883E+03  0.12500385899E+03 0.  0.
          2    1    1    2  501    0 -0.78802911922E+02  0.56557159695E+02 -0.62110965612E+03  0.62863806452E+03  0.00000000000E+00 0. -1.
          1    1    1    2  502    0  0.78614380116E+02  0.16158407938E+02  0.80664001182E+02  0.11378926133E+03  0.00000000000E+00 0. -1.
         22    1    3    3    0    0 -0.60030003972E+02 -0.47369433544E+02 -0.63151100457E+02  0.99174220945E+02  0.00000000000E+00 0.  1.
         22    1    3    3    0    0  0.60218535778E+02 -0.25346134089E+02 -0.23609175282E+02  0.69470077890E+02  0.00000000000E+00 0.  1.
</event>
<event>
 7    1  0.5970484E-006  0.8024431E+02  0.7818608E-02  0.1441171E+00
          2   -1    0    0  502    0  0.00000000000E+00  0.00000000000E+00  0.17050353873E+04  0.17050353873E+04  0.00000000000E+00 0. -1.
          1   -1    0    0  501    0 -0.00000000000E+00 -0.00000000000E+00 -0.73997685998E+02  0.73997685998E+02  0.00000000000E+00 0. -1.
         25    2    1    2    0    0  0.45291876183E+02  0.37806508249E+02  0.84820540514E+03  0.85939424612E+03  0.12500149932E+03 0.  0.
          2    1    1    2  501    0  0.14442355511E+02  0.28708488152E+02 -0.62135842965E+02  0.69954427348E+02  0.00000000000E+00 0. -1.
          1    1    1    2  502    0 -0.59734231694E+02 -0.66514996401E+02  0.84496813914E+03  0.84968439984E+03  0.00000000000E+00 0. -1.
         22    1    3    3    0    0  0.21269827047E+02  0.70187973882E+02  0.74486710745E+03  0.74846894724E+03  0.00000000000E+00 0.  1.
         22    1    3    3    0    0  0.24022049136E+02 -0.32381465633E+02  0.10333829769E+03  0.11092529888E+03  0.00000000000E+00 0.  1.
</event>
<event>
 7    1  0.5970484E-006  0.8326563E+02  0.7818608E-02  0.1370795E+00
          2   -1    0    0  502    0  0.00000000000E+00  0.00000000000E+00  0.97145125010E+02  0.97145125010E+02  0.00000000000E+00 0. -1.
          1   -1    0    0  501    0 -0.00000000000E+00 -0.00000000000E+00 -0.84306100576E+03  0.84306100576E+03  0.00000000000E+00 0. -1.
         25    2    1    2    0    0 -0.11558566505E+01 -0.80975009979E+02 -0.10758534802E+03  0.18373290688E+03  0.12499954286E+03 0.  0.
          2    1    1    2  501    0 -0.52345215226E+02  0.12538714719E+02 -0.66377694611E+03  0.66595576063E+03  0.00000000000E+00 0. -1.
          1    1    1    2  502    0  0.53501071877E+02  0.68436295259E+02  0.25446413390E+02  0.90517463261E+02  0.00000000000E+00 0. -1.
         22    1    3    3    0    0  0.41338609560E+02 -0.45494112591E+01  0.42095570321E+01  0.41800695611E+02  0.00000000000E+00 0.  1.
         22    1    3    3    0    0 -0.42494466211E+02 -0.76425598720E+02 -0.11179490506E+03  0.14193221127E+03  0.00000000000E+00 0.  1.
</event>
<event>
 7    1  0.5970484E-006  0.1005990E+03  0.7818608E-02  0.1395221E+00
          2   -1    0    0  502    0  0.00000000000E+00  0.00000000000E+00  0.10161532120E+04  0.10161532120E+04  0.00000000000E+00 0. -1.
          1   -1    0    0  501    0 -0.00000000000E+00 -0.00000000000E+00 -0.66471539045E+03  0.66471539045E+03  0.00000000000E+00 0. -1.
         25    2    1    2    0    0 -0.11310758685E+01 -0.71493728379E+02  0.22015562249E+03  0.26307429609E+03  0.12500781825E+03 0.  0.
          2    1    1    2  501    0  0.15366965327E+02 -0.33148296065E+02 -0.63913211675E+03  0.64017561326E+03  0.00000000000E+00 0. -1.
          1    1    1    2  502    0 -0.14235889459E+02  0.10464202444E+03  0.77041431577E+03  0.77761869305E+03  0.00000000000E+00 0. -1.
         22    1    3    3    0    0  0.12469101849E+02 -0.10609571247E+03  0.16450442370E+03  0.19614658835E+03  0.00000000000E+00 0.  1.
         22    1    3    3    0    0 -0.13600177717E+02  0.34601984093E+02  0.55651198784E+02  0.66927707739E+02  0.00000000000E+00 0.  1.
</event>
<event>
 7    1  0.5970484E-006  0.1141268E+03  0.7818608E-02  0.1438918E+00
          2   -1    0    0  502    0  0.00000000000E+00  0.00000000000E+00  0.10625937633E+04  0.10625937633E+04  0.00000000000E+00 0. -1.
          1   -1    0    0  501    0 -0.00000000000E+00 -0.00000000000E+00 -0.13676844305E+03  0.13676844305E+03  0.00000000000E+00 0. -1.
         25    2    1    2    0    0 -0.16247994938E+02  0.12551620731E+03  0.19907807562E+03  0.26697497455E+03  0.12500096483E+03 0.  0.
          2    1    1    2  501    0  0.19161473550E+02 -0.12684045582E+02 -0.97640790024E+02  0.10030837930E+03  0.00000000000E+00 0. -1.
          1    1    1    2  502    0 -0.29134786116E+01 -0.11283216173E+03  0.82438803469E+03  0.83207885252E+03  0.00000000000E+00 0. -1.
         22    1    3    3    0    0  0.34839025951E+02  0.81776228181E+02  0.46686496234E+02  0.10040287922E+03  0.00000000000E+00 0. -1.
         22    1    3    3    0    0 -0.51087020889E+02  0.43739979128E+02  0.15239157938E+03  0.16657209534E+03  0.00000000000E+00 0. -1.
</event>
<event>
 7    1  0.5970484E-006  0.1133580E+03  0.7818608E-02  0.1380358E+00
          2   -1    0    0  502    0  0.00000000000E+00  0.00000000000E+00  0.43170932092E+03  0.43170932092E+03  0.00000000000E+00 0. -1.
          1   -1    0    0  501    0 -0.00000000000E+00 -0.00000000000E+00 -0.13310655852E+03  0.13310655852E+03  0.00000000000E+00 0. -1.
         25    2    1    2    0    0  0.54418173105E+02 -0.83999700367E+02  0.33742411607E+03  0.37349353650E+03  0.12500040188E+03 0.  0.
          2    1    1    2  501    0 -0.89118205058E+02  0.72512366400E+02 -0.77124441114E+02  0.13837730006E+03  0.00000000000E+00 0. -1.
          1    1    1    2  502    0  0.34700031954E+02  0.11487333967E+02  0.38303087439E+02  0.52945042890E+02  0.00000000000E+00 0. -1.
         22    1    3    3    0    0  0.93446544860E+02 -0.70861228138E+02  0.27175795583E+03  0.29598303491E+03  0.00000000000E+00 0. -1.
         22    1    3    3    0    0 -0.39028371755E+02 -0.13138472228E+02  0.65666160244E+02  0.77510501582E+02  0.00000000000E+00 0. -1.
</event>
<event>
 7    1  0.5970484E-006  0.1242212E+03  0.7818608E-02  0.1297659E+00
          2   -1    0    0  502    0  0.00000000000E+00  0.00000000000E+00  0.17279548968E+04  0.17279548968E+04  0.00000000000E+00 0. -1.
          1   -1    0    0  501    0 -0.00000000000E+00 -0.00000000000E+00 -0.43624285347E+03  0.43624285347E+03  0.00000000000E+00 0. -1.
         25    2    1    2    0    0  0.58883962002E+02 -0.27445634604E+02  0.14232100098E+02  0.14159193844E+03  0.12500056207E+03 0.  0.
          2    1    1    2  501    0 -0.11911807309E+03  0.59859290097E+02 -0.35990030338E+03  0.38379744439E+03  0.00000000000E+00 0. -1.
          1    1    1    2  502    0  0.60234111091E+02 -0.32413655493E+02  0.16373802466E+04  0.16388083674E+04  0.00000000000E+00 0. -1.
         22    1    3    3    0    0  0.77122282530E+02 -0.10520157898E+02  0.53962967166E+02  0.94712839732E+02  0.00000000000E+00 0.  1.
         22    1    3    3    0    0 -0.18238320527E+02 -0.16925476706E+02 -0.39730867069E+02  0.46879098705E+02  0.00000000000E+00 0.  1.
</event>
<event>
 7    1  0.5970484E-006  0.9102102E+02  0.7818608E-02  0.1376142E+00
          2   -1    0    0  502    0  0.00000000000E+00  0.00000000000E+00  0.15834218988E+04  0.15834218988E+04  0.00000000000E+00 0. -1.
          1   -1    0    0  501    0 -0.00000000000E+00 -0.00000000000E+00 -0.13448238327E+04  0.13448238327E+04  0.00000000000E+00 0. -1.
         25    2    1    2    0    0 -0.50776178039E+02  0.54362604030E+02 -0.45344834265E+02  0.15236232029E+03  0.12499843869E+03 0.  0.
          2    1    1    2  501    0  0.19656537048E+02 -0.89742273718E+02 -0.12439130983E+04  0.12473010268E+04  0.00000000000E+00 0. -1.
          1    1    1    2  502    0  0.31119640991E+02  0.35379669688E+02  0.15278559988E+04  0.15285823844E+04  0.00000000000E+00 0. -1.
         22    1    3    3    0    0 -0.27436340297E+02 -0.34733140222E+02 -0.40720769081E+02  0.60144200329E+02  0.00000000000E+00 0. -1.
         22    1    3    3    0    0 -0.23339837742E+02  0.89095744252E+02 -0.46240651842E+01  0.92218119958E+02  0.00000000000E+00 0. -1.
</event>
<event>
 7    1  0.5970484E-006  0.9939623E+02  0.7818608E-02  0.1335670E+00
          2   -1    0    0  502    0  0.00000000000E+00  0.00000000000E+00  0.28080857338E+04  0.28080857338E+04  0.00000000000E+00 0. -1.
          1   -1    0    0  501    0 -0.00000000000E+00 -0.00000000000E+00 -0.37662444582E+03  0.37662444582E+03  0.00000000000E+00 0. -1.
         25    2    1    2    0    0 -0.14666049426E+03  0.36251120871E+02  0.91310288606E+03  0.93391939955E+03  0.12500047991E+03 0.  0.
          2    1    1    2  501    0  0.60743628645E+02  0.13932317124E+01 -0.36251915392E+03  0.36757566088E+03  0.00000000000E+00 0. -1.
          1    1    1    2  502    0  0.85916865611E+02 -0.37644352584E+02  0.18808775558E+04  0.18832151191E+04  0.00000000000E+00 0. -1.
         22    1    3    3    0    0  0.16410046117E+02 -0.11810467636E+02  0.19132987515E+03  0.19239516076E+03  0.00000000000E+00 0. -1.
         22    1    3    3    0    0 -0.16307054037E+03  0.48061588507E+02  0.72177301091E+03  0.74152423879E+03  0.00000000000E+00 0. -1.
</event>
<event>
 7    1  0.5970484E-006  0.8914077E+02  0.7818608E-02  0.1418689E+00
          2   -1    0    0  502    0  0.00000000000E+00  0.00000000000E+00  0.19217671300E+04  0.19217671300E+04  0.00000000000E+00 0. -1.
          1   -1    0    0  501    0 -0.00000000000E+00 -0.00000000000E+00 -0.25802717553E+02  0.25802717553E+02  0.00000000000E+00 0. -1.
         25    2    1    2    0    0 -0.61127481000E+02 -0.36705833213E+02  0.52956155320E+03  0.54876603747E+03  0.12499935252E+03 0.  0.
          2    1    1    2  501    0  0.91978005238E+02  0.21702573934E+02  0.12389949793E+03  0.15582695771E+03  0.00000000000E+00 0. -1.
          1    1    1    2  502    0 -0.30850524238E+02  0.15003259279E+02  0.12425033613E+04  0.12429768523E+04  0.00000000000E+00 0. -1.
         22    1    3    3    0    0 -0.93251365061E+02 -0.25988776907E+02  0.26657173894E+03  0.28360487586E+03  0.00000000000E+00 0. -1.
         22    1    3    3    0    0  0.32123884061E+02 -0.10717056306E+02  0.26298981426E+03  0.26516116161E+03  0.00000000000E+00 0. -1.
</event>
<event>
 7    1  0.5970484E-006  0.9778126E+02  0.7818608E-02  0.1398578E+00
          2   -1    0    0  502    0  0.00000000000E+00  0.00000000000E+00  0.99180631948E+03  0.99180631948E+03  0.00000000000E+00 0. -1.
          1   -1    0    0  501    0 -0.00000000000E+00 -0.00000000000E+00 -0.11785727861E+03  0.11785727861E+03  0.00000000000E+00 0. -1.
         25    2    1    2    0    0 -0.89519339661E+02  0.60505844099E+02  0.57162085829E+03  0.59502132853E+03  0.12500122575E+03 0.  0.
          2    1    1    2  501    0  0.57759964430E+02 -0.78695620877E+02 -0.82662862572E+02  0.12791545288E+03  0.00000000000E+00 0. -1.
          1    1    1    2  502    0  0.31759375230E+02  0.18189776778E+02  0.38499104516E+03  0.38672681669E+03  0.00000000000E+00 0. -1.
         22    1    3    3    0    0 -0.50249856614E+00 -0.11884281775E+02  0.29904793744E+03  0.29928440913E+03  0.00000000000E+00 0.  1.
         22    1    3    3    0    0 -0.89016841094E+02  0.72390125874E+02  0.27257292084E+03  0.29573691940E+03  0.00000000000E+00 0.  1.
</event>
<event>
 7    1  0.5970484E-006  0.9544892E+02  0.7818608E-02  0.1390972E+00
          2   -1    0    0  502    0  0.00000000000E+00  0.00000000000E+00  0.43972925950E+03  0.43972925950E+03  0.00000000000E+00 0. -1.
          1   -1    0    0  501    0 -0.00000000000E+00 -0.00000000000E+00 -0.76280339354E+03  0.76280339354E+03  0.00000000000E+00 0. -1.
         25    2    1    2    0    0 -0.11541375073E+03  0.66917827174E+02 -0.47088837250E+03  0.50513290154E+03  0.12500023765E+03 0.  0.
          2    1    1    2  501    0  0.29037193179E+02 -0.27277191261E+02 -0.26795813652E+03  0.27090361142E+03  0.00000000000E+00 0. -1.
          1    1    1    2  502    0  0.86376557554E+02 -0.39640635913E+02  0.41577237498E+03  0.42649614009E+03  0.00000000000E+00 0. -1.
         22    1    3    3    0    0 -0.43917645053E+02  0.83655352470E+02 -0.16111260346E+03  0.18677325434E+03  0.00000000000E+00 0.  1.
         22    1    3    3    0    0 -0.71496105681E+02 -0.16737525297E+02 -0.30977576903E+03  0.31835964719E+03  0.00000000000E+00 0.  1.
</event>
<event>
 7    1  0.5970484E-006  0.1179995E+03  0.7818608E-02  0.1290977E+00
          2   -1    0    0  502    0  0.00000000000E+00  0.00000000000E+00  0.12142228646E+04  0.12142228646E+04  0.00000000000E+00 0. -1.
          1   -1    0    0  501    0 -0.00000000000E+00 -0.00000000000E+00 -0.44163802153E+03  0.44163802153E+03  0.00000000000E+00 0. -1.
         25    2    1    2    0    0 -0.83346198192E+02  0.15626931078E+02  0.84725446135E+03  0.86061336139E+03  0.12499778323E+03 0.  0.
          2    1    1    2  501    0  0.10311419122E+03  0.58404790986E+02 -0.42264019950E+03  0.43894008050E+03  0.00000000000E+00 0. -1.
          1    1    1    2  502    0 -0.19767993025E+02 -0.74031722064E+02  0.34797058122E+03  0.35630744424E+03  0.00000000000E+00 0. -1.
         22    1    3    3    0    0 -0.63150971376E+02 -0.31063468292E+02  0.21307437144E+03  0.22439623886E+03  0.00000000000E+00 0. -1.
         22    1    3    3    0    0 -0.20195226815E+02  0.46690399370E+02  0.63418008990E+03  0.63621712253E+03  0.00000000000E+00 0. -1.
</event>
<event>
 7    1  0.5970484E-006  0.4014808E+02  0.7818608E-02  0.1599570E+00
          2   -1    0    0  502    0  0.00000000000E+00  0.00000000000E+00  0.13484349925E+04  0.13484349925E+04  0.00000000000E+00 0. -1.
          1   -1    0    0  501    0 -0.00000000000E+00 -0.00000000000E+00 -0.63633547633E+03  0.63633547633E+03  0.00000000000E+00 0. -1.
         25    2    1    2    0    0 -0.54304128378E+02  0.15011115016E+02 -0.13700237752E+03  0.19382598710E+03  0.12499835957E+03 0.  0.
          2    1    1    2  501    0  0.39709720743E+02  0.17410661741E+01 -0.46998885392E+03  0.47166663656E+03  0.00000000000E+00 0. -1.
          1    1    1    2  502    0  0.14594407635E+02 -0.16752181190E+02  0.13190907476E+04  0.13192778452E+04  0.00000000000E+00 0. -1.
         22    1    3    3    0    0  0.85398142480E+01  0.18852761796E+02  0.17426049941E+02  0.27055910099E+02  0.00000000000E+00 0.  1.
         22    1    3    3    0    0 -0.62843942626E+02 -0.38416467802E+01 -0.15442842746E+03  0.16677007700E+03  0.00000000000E+00 0.  1.
</event>
<event>
 7    1  0.5970484E-006  0.1643300E+03  0.7818608E-02  0.1303473E+00
          2   -1    0    0  502    0  0.00000000000E+00  0.00000000000E+00  0.48855469512E+03  0.48855469512E+03  0.00000000000E+00 0. -1.
          1   -1    0    0  501    0 -0.00000000000E+00 -0.00000000000E+00 -0.10615688254E+04  0.10615688254E+04  0.00000000000E+00 0. -1.
         25    2    1    2    0    0 -0.16658737340E+03  0.78855978371E+02 -0.89144955178E+02  0.23988750468E+03  0.12501829293E+03 0.  0.
          2    1    1    2  501    0  0.41704037696E+02  0.25745540655E+02 -0.88028778460E+03  0.88165108935E+03  0.00000000000E+00 0. -1.
          1    1    1    2  502    0  0.12488333571E+03 -0.10460151903E+03  0.39641860946E+03  0.42858492653E+03  0.00000000000E+00 0. -1.
         22    1    3    3    0    0 -0.71817209438E+02 -0.10885836367E+02 -0.81462163362E+02  0.10914347010E+03  0.00000000000E+00 0.  1.
         22    1    3    3    0    0 -0.94770163965E+02  0.89741814739E+02 -0.76827918157E+01  0.13074403459E+03  0.00000000000E+00 0.  1.
</event>
<event>
 7    1  0.5970484E-006  0.1485153E+03  0.7818608E-02  0.1229479E+00
          2   -1    0    0  502    0  0.00000000000E+00  0.00000000000E+00  0.45347513671E+03  0.45347513671E+03  0.00000000000E+00 0. -1.
          1   -1    0    0  501    0 -0.00000000000E+00 -0.00000000000E+00 -0.18026810380E+04  0.18026810380E+04  0.00000000000E+00 0. -1.
         25    2    1    2    0    0  0.35873647301E+02  0.18601548086E+03 -0.54720744212E+03  0.59240929603E+03  0.12499644647E+03 0.  0.
          2    1    1    2  501    0 -0.10673642543E+03 -0.10001473321E+03 -0.12212296854E+04  0.12299583554E+04  0.00000000000E+00 0. -1.
          1    1    1    2  502    0  0.70862778132E+02 -0.86000747643E+02  0.41923122623E+03  0.43378852333E+03  0.00000000000E+00 0. -1.
         22    1    3    3    0    0  0.89439814285E+01  0.40590554262E+02 -0.22514278315E+02  0.47270293284E+02  0.00000000000E+00 0.  1.
         22    1    3    3    0    0  0.26929665873E+02  0.14542492659E+03 -0.52469316380E+03  0.54513900275E+03  0.00000000000E+00 0.  1.
</event>
<event>
 7    1  0.5970484E-006  0.2360340E+03  0.7818608E-02  0.1252228E+00
          2   -1    0    0  502    0  0.00000000000E+00  0.00000000000E+00  0.14933491003E+04  0.14933491003E+04  0.00000000000E+00 0. -1.
          1   -1    0    0  501    0 -0.00000000000E+00 -0.00000000000E+00 -0.10968192619E+04  0.10968192619E+04  0.00000000000E+00 0. -1.
         25    2    1    2    0    0 -0.15372813130E+03 -0.19497356941E+03 -0.14256435548E+03  0.31240374350E+03  0.12499788950E+03 0.  0.
          2    1    1    2  501    0  0.18265396216E+03  0.14740816809E+03 -0.85292565621E+03  0.88463202120E+03  0.00000000000E+00 0. -1.
          1    1    1    2  502    0 -0.28925830860E+02  0.47565401321E+02  0.13920198501E+04  0.13931325975E+04  0.00000000000E+00 0. -1.
         22    1    3    3    0    0 -0.67068228948E+02 -0.57155277487E+01 -0.53551849147E+02  0.86015202951E+02  0.00000000000E+00 0.  1.
         22    1    3    3    0    0 -0.86659902348E+02 -0.18925804167E+03 -0.89012506333E+02  0.22638854055E+03  0.00000000000E+00 0.  1.
</event>
<event>
 7    1  0.5970484E-006  0.1724437E+03  0.7818608E-02  0.1291383E+00
          2   -1    0    0  502    0  0.00000000000E+00  0.00000000000E+00  0.34189025888E+03  0.34189025888E+03  0.00000000000E+00 0. -1.
          1   -1    0    0  501    0 -0.00000000000E+00 -0.00000000000E+00 -0.59273761193E+03  0.59273761193E+03  0.00000000000E+00 0. -1.
         25    2    1    2    0    0  0.13826706387E+03 -0.11580427899E+03 -0.34800482981E+03  0.41141130373E+03  0.12499394899E+03 0.  0.
          2    1    1    2  501    0 -0.43822241104E+02 -0.28426543826E+02 -0.18517899288E+03  0.19240508469E+03  0.00000000000E+00 0. -1.
          1    1    1    2  502    0 -0.94444822763E+02  0.14423082281E+03  0.28233646964E+03  0.33081148240E+03  0.00000000000E+00 0. -1.
         22    1    3    3    0    0  0.15843900283E+03 -0.87210100908E+02 -0.31544762254E+03  0.36361479876E+03  0.00000000000E+00 0.  1.
         22    1    3    3    0    0 -0.20171938960E+02 -0.28594178079E+02 -0.32557207274E+02  0.47796504965E+02  0.00000000000E+00 0.  1.
</event>
<event>
 7    1  0.5970484E-006  0.6052430E+02  0.7818608E-02  0.1527636E+00
          2   -1    0    0  502    0  0.00000000000E+00  0.00000000000E+00  0.22290125675E+04  0.22290125675E+04  0.00000000000E+00 0. -1.
          1   -1    0    0  501    0 -0.00000000000E+00 -0.00000000000E+00 -0.12763308417E+02  0.12763308417E+02  0.00000000000E+00 0. -1.
         25    2    1    2    0    0 -0.39028348681E+02 -0.32615239706E+02  0.84635835483E+03  0.85705123807E+03  0.12500957573E+03 0.  0.
          2    1    1    2  501    0  0.30861016281E+02  0.54337745356E+02  0.12626648774E+03  0.14088370673E+03  0.00000000000E+00 0. -1.
          1    1    1    2  502    0  0.81673323995E+01 -0.21722505650E+02  0.12436244165E+04  0.12438409311E+04  0.00000000000E+00 0. -1.
         22    1    3    3    0    0 -0.29051624398E+01 -0.69747512641E+02  0.28989054553E+03  0.29817726922E+03  0.00000000000E+00 0. -1.
         22    1    3    3    0    0 -0.36123186241E+02  0.37132272935E+02  0.55646780930E+03  0.55887396886E+03  0.00000000000E+00 0. -1.
</event>
<event>
 7    1  0.5970484E-006  0.3474424E+02  0.7818608E-02  0.1551602E+00
          2   -1    0    0  502    0  0.00000000000E+00  0.00000000000E+00  0.62523384612E+02  0.62523384612E+02  0.00000000000E+00 0. -1.
          1   -1    0    0  501    0 -0.00000000000E+00 -0.00000000000E+00 -0.61099181150E+03  0.61099181150E+03  0.00000000000E+00 0. -1.
         25    2    1    2    0    0  0.13366824148E+02 -0.18176276853E+02 -0.90226808488E+02  0.15579619972E+03  0.12499011901E+03 0.  0.
          2    1    1    2  501    0 -0.31873376410E+02 -0.13829318034E+02 -0.47560592506E+03  0.47687331454E+03  0.00000000000E+00 0. -1.
          1    1    1    2  502    0  0.18506552262E+02  0.32005594886E+02  0.17364306660E+02  0.40845681858E+02  0.00000000000E+00 0. -1.
         22    1    3    3    0    0 -0.22211944420E+02  0.30288272276E+02  0.10046181367E+02  0.38880273564E+02  0.00000000000E+00 0. -1.
         22    1    3    3    0    0  0.35578768568E+02 -0.48464549128E+02 -0.10027298985E+03  0.11691592616E+03  0.00000000000E+00 0. -1.
</event>
<event>
 7    1  0.5970484E-006  0.5181454E+02  0.7818608E-02  0.1459618E+00
          2   -1    0    0  502    0  0.00000000000E+00  0.00000000000E+00  0.16373382103E+04  0.16373382103E+04  0.00000000000E+00 0. -1.
          1   -1    0    0  501    0 -0.00000000000E+00 -0.00000000000E+00 -0.69082648968E+02  0.69082648968E+02  0.00000000000E+00 0. -1.
         25    2    1    2    0    0  0.38864948458E+02  0.18031351937E+02  0.84720901732E+03  0.85745193254E+03  0.12500033489E+03 0.  0.
          2    1    1    2  501    0 -0.45839076278E+02  0.24853231929E+02 -0.52622272051E+02  0.74081087783E+02  0.00000000000E+00 0. -1.
          1    1    1    2  502    0  0.69741278203E+01 -0.42884583866E+02  0.77366881605E+03  0.77488783893E+03  0.00000000000E+00 0. -1.
         22    1    3    3    0    0  0.10001724227E+02  0.73429736391E+01  0.31095732937E+01  0.12791528269E+02  0.00000000000E+00 0.  1.
         22    1    3    3    0    0  0.28863224231E+02  0.10688378298E+02  0.84409944402E+03  0.84466040427E+03  0.00000000000E+00 0.  1.
</event>
<event>
 7    1  0.5970484E-006  0.7224544E+02  0.7818608E-02  0.1397845E+00
          2   -1    0    0  502    0  0.00000000000E+00  0.00000000000E+00  0.22822405622E+04  0.22822405622E+04  0.00000000000E+00 0. -1.
          1   -1    0    0  501    0 -0.00000000000E+00 -0.00000000000E+00 -0.15384151725E+04  0.15384151725E+04  0.00000000000E+00 0. -1.
         25    2    1    2    0    0  0.43935214036E+01 -0.22315437545E+02  0.89822997030E+03  0.90717145887E+03  0.12500277779E+03 0.  0.
          2    1    1    2  501    0 -0.46980913601E+01  0.72139518503E+02 -0.15326422607E+04  0.15343462717E+04  0.00000000000E+00 0. -1.
          1    1    1    2  502    0  0.30456995654E+00 -0.49824080958E+02  0.13782376801E+04  0.13791380042E+04  0.00000000000E+00 0. -1.
         22    1    3    3    0    0  0.11300218417E+02  0.40894648661E+02  0.14019477693E+03  0.14647403423E+03  0.00000000000E+00 0.  1.
         22    1    3    3    0    0 -0.69066970136E+01 -0.63210086207E+02  0.75803519337E+03  0.76069742464E+03  0.00000000000E+00 0.  1.
</event>
<event>
 7    1  0.5970484E-006  0.1265412E+03  0.7818608E-02  0.1285762E+00
          2   -1    0    0  502    0  0.00000000000E+00  0.00000000000E+00  0.24792271770E+04  0.24792271770E+04  0.00000000000E+00 0. -1.
          1   -1    0    0  501    0 -0.00000000000E+00 -0.00000000000E+00 -0.23592638658E+03  0.23592638658E+03  0.00000000000E+00 0. -1.
         25    2    1    2    0    0 -0.56918516205E+02  0.72524310478E+02  0.11559181623E+03  0.19359888143E+03  0.12497826137E+03 0.  0.
          2    1    1    2  501    0  0.12620451976E+03 -0.43709221808E+02 -0.17359474566E+03  0.21902788087E+03  0.00000000000E+00 0. -1.
          1    1    1    2  502    0 -0.69286003554E+02 -0.28815088670E+02  0.23013037199E+04  0.23025268013E+04  0.00000000000E+00 0. -1.
         22    1    3    3    0    0 -0.57334889642E-01  0.22213560227E+02 -0.25229135734E+02  0.33614800835E+02  0.00000000000E+00 0.  1.
         22    1    3    3    0    0 -0.56861181315E+02  0.50310750251E+02  0.14082095197E+03  0.15998408060E+03  0.00000000000E+00 0.  1.
</event>
<event>
 7    1  0.5970484E-006  0.1523993E+03  0.7818608E-02  0.1373953E+00
          2   -1    0    0  502    0  0.00000000000E+00  0.00000000000E+00  0.92955572248E+03  0.92955572248E+03  0.00000000000E+00 0. -1.
          1   -1    0    0  501    0 -0.00000000000E+00 -0.00000000000E+00 -0.20913975642E+03  0.20913975642E+03  0.00000000000E+00 0. -1.
         25    2    1    2    0    0 -0.77078757770E+01  0.16015132016E+03  0.72872695530E+03  0.75655641060E+03  0.12500708117E+03 0.  0.
          2    1    1    2  501    0 -0.15981154893E+02 -0.23781695234E+02 -0.16822267743E+03  0.17064535019E+03  0.00000000000E+00 0. -1.
          1    1    1    2  502    0  0.23689030670E+02 -0.13636962493E+03  0.15991168820E+03  0.21149371811E+03  0.00000000000E+00 0. -1.
         22    1    3    3    0    0 -0.22657909478E+02  0.10871360377E+02  0.32306420479E+03  0.32404019466E+03  0.00000000000E+00 0.  1.
         22    1    3    3    0    0  0.14950033701E+02  0.14927995979E+03  0.40566275051E+03  0.43251621594E+03  0.00000000000E+00 0.  1.
</event>
<event>
 7    1  0.5970484E-006  0.4436967E+02  0.7818608E-02  0.1593217E+00
          2   -1    0    0  502    0  0.00000000000E+00  0.00000000000E+00  0.30231754652E+02  0.30231754652E+02  0.00000000000E+00 0. -1.
          1   -1    0    0  501    0 -0.00000000000E+00 -0.00000000000E+00 -0.40314007675E+03  0.40314007675E+03  0.00000000000E+00 0. -1.
         25    2    1    2    0    0  0.18604068690E+02  0.26262052898E+02 -0.27456119446E+03  0.30338817646E+03  0.12499891727E+03 0.  0.
          2    1    1    2  501    0 -0.38894393964E+02 -0.31235257815E+02 -0.96968555000E+02  0.10904731024E+03  0.00000000000E+00 0. -1.
          1    1    1    2  502    0  0.20290325274E+02  0.49732049175E+01 -0.13785726397E+01  0.20936344700E+02  0.00000000000E+00 0. -1.
         22    1    3    3    0    0  0.53453348459E+02 -0.21991141543E+02 -0.72376611130E+02  0.92624211772E+02  0.00000000000E+00 0. -1.
         22    1    3    3    0    0 -0.34849279769E+02  0.48253194441E+02 -0.20218458333E+03  0.21076396469E+03  0.00000000000E+00 0. -1.
</event>
<event>
 7    1  0.5970484E-006  0.3438994E+02  0.7818608E-02  0.1623065E+00
          2   -1    0    0  502    0  0.00000000000E+00  0.00000000000E+00  0.13281805903E+03  0.13281805903E+03  0.00000000000E+00 0. -1.
          1   -1    0    0  501    0 -0.00000000000E+00 -0.00000000000E+00 -0.11019439506E+03  0.11019439506E+03  0.00000000000E+00 0. -1.
         25    2    1    2    0    0 -0.90287462525E+01  0.54631564111E+02  0.90853655644E+00  0.13671579472E+03  0.12499702809E+03 0.  0.
          2    1    1    2  501    0  0.13666144271E+01 -0.22523201757E+02 -0.34430701369E+02  0.41165950118E+02  0.00000000000E+00 0. -1.
          1    1    1    2  502    0  0.76621318254E+01 -0.32108362354E+02  0.56145828787E+02  0.65130709249E+02  0.00000000000E+00 0. -1.
         22    1    3    3    0    0 -0.52665074953E+02  0.19965297988E+02  0.39617994594E+02  0.68860792467E+02  0.00000000000E+00 0.  1.
         22    1    3    3    0    0  0.43636328700E+02  0.34666266124E+02 -0.38709458037E+02  0.67855002254E+02  0.00000000000E+00 0.  1.
</event>
<event>
 7    1  0.5970484E-006  0.8450709E+02  0.7818608E-02  0.1324709E+00
          2   -1    0    0  502    0  0.00000000000E+00  0.00000000000E+00  0.10478694048E+04  0.10478694048E+04  0.00000000000E+00 0. -1.
          1   -1    0    0  501    0 -0.00000000000E+00 -0.00000000000E+00 -0.25743341579E+03  0.25743341579E+03  0.00000000000E+00 0. -1.
         25    2    1    2    0    0  0.19034190217E+01 -0.81124424423E+02  0.74764827969E+02  0.16672938921E+03  0.12499645788E+03 0.  0.
          2    1    1    2  501    0  0.70661968361E+02  0.34642196250E+02 -0.20203968682E+03  0.21682534581E+03  0.00000000000E+00 0. -1.
          1    1    1    2  502    0 -0.72565387383E+02  0.46482228173E+02  0.91771084784E+03  0.92174808556E+03  0.00000000000E+00 0. -1.
         22    1    3    3    0    0 -0.24360230492E+02 -0.47741274522E+02 -0.24370437099E+02  0.58877570662E+02  0.00000000000E+00 0. -1.
         22    1    3    3    0    0  0.26263649514E+02 -0.33383149901E+02  0.99135265068E+02  0.10785181854E+03  0.00000000000E+00 0. -1.
</event>
<event>
 7    1  0.5970484E-006  0.7655021E+02  0.7818608E-02  0.1339714E+00
          2   -1    0    0  502    0  0.00000000000E+00  0.00000000000E+00  0.35977559848E+03  0.35977559848E+03  0.00000000000E+00 0. -1.
          1   -1    0    0  501    0 -0.00000000000E+00 -0.00000000000E+00 -0.35789145543E+03  0.35789145543E+03  0.00000000000E+00 0. -1.
         25    2    1    2    0    0 -0.24799532762E+02 -0.15733762238E+02 -0.72646074995E+02  0.14753039130E+03  0.12500078418E+03 0.  0.
          2    1    1    2  501    0  0.45358392975E+02 -0.61189747333E+02 -0.23681940984E+03  0.24876696297E+03  0.00000000000E+00 0. -1.
          1    1    1    2  502    0 -0.20558860214E+02  0.76923509571E+02  0.31134962789E+03  0.32136969964E+03  0.00000000000E+00 0. -1.
         22    1    3    3    0    0  0.33210246522E+02  0.21580276680E+02 -0.67630065213E+02  0.78373812822E+02  0.00000000000E+00 0.  1.
         22    1    3    3    0    0 -0.58009779284E+02 -0.37314038918E+02 -0.50160097821E+01  0.69156578480E+02  0.00000000000E+00 0.  1.
</event>
<event>
 7    1  0.5970484E-006  0.7209929E+02  0.7818608E-02  0.1356041E+00
          2   -1    0    0  502    0  0.00000000000E+00  0.00000000000E+00  0.10395776086E+04  0.10395776086E+04  0.00000000000E+00 0. -1.
          1   -1    0    0  501    0 -0.00000000000E+00 -0.00000000000E+00 -0.11709615216E+03  0.11709615216E+03  0.00000000000E+00 0. -1.
         25    2    1    2    0    0  0.36951907979E+02 -0.92325609459E+01  0.17954796156E+03  0.22206590634E+03  0.12500045029E+03 0.  0.
          2    1    1    2  501    0 -0.59196432782E+01  0.74311794206E+02 -0.79520851422E+02  0.10899931534E+03  0.00000000000E+00 0. -1.
          1    1    1    2  502    0 -0.31032264701E+02 -0.65079233260E+02  0.82245434632E+03  0.82560853910E+03  0.00000000000E+00 0. -1.
         22    1    3    3    0    0 -0.24767569570E+02 -0.38572346016E+02  0.23072776708E+02  0.51318723724E+02  0.00000000000E+00 0. -1.
         22    1    3    3    0    0  0.61719477549E+02  0.29339785071E+02  0.15647518486E+03  0.17074718262E+03  0.00000000000E+00 0. -1.
</event>
<event>
 7    1  0.5970484E-006  0.2445960E+03  0.7818608E-02  0.1259513E+00
          2   -1    0    0  502    0  0.00000000000E+00  0.00000000000E+00  0.23627349323E+04  0.23627349323E+04  0.00000000000E+00 0. -1.
          1   -1    0    0  501    0 -0.00000000000E+00 -0.00000000000E+00 -0.38832860073E+03  0.38832860073E+03  0.00000000000E+00 0. -1.
         25    2    1    2    0    0 -0.29012134229E+03 -0.19500587384E+01  0.99960362563E+00  0.31591165450E+03  0.12499991305E+03 0.  0.
          2    1    1    2  501    0  0.47967459647E+02 -0.14061191012E+02 -0.22139820144E+03  0.22697083046E+03  0.00000000000E+00 0. -1.
          1    1    1    2  502    0  0.24215388264E+03  0.16011249751E+02  0.21948049294E+04  0.22081810481E+04  0.00000000000E+00 0. -1.
         22    1    3    3    0    0 -0.27938500505E+03 -0.31840533077E+02 -0.12339162015E+02  0.28146412829E+03  0.00000000000E+00 0.  1.
         22    1    3    3    0    0 -0.10736337239E+02  0.29890474339E+02  0.13338765640E+02  0.34447526215E+02  0.00000000000E+00 0.  1.
</event>
<event>
 7    1  0.5970484E-006  0.4615649E+02  0.7818608E-02  0.1549825E+00
          2   -1    0    0  502    0  0.00000000000E+00  0.00000000000E+00  0.85088226932E+03  0.85088226932E+03  0.00000000000E+00 0. -1.
          1   -1    0    0  501    0 -0.00000000000E+00 -0.00000000000E+00 -0.53644921207E+03  0.53644921207E+03  0.00000000000E+00 0. -1.
         25    2    1    2    0    0  0.54617009944E+02  0.17230620428E+02 -0.31104524593E+02  0.14099908287E+03  0.12503334701E+03 0.  0.
          2    1    1    2  501    0 -0.91092862195E+01 -0.24706236888E+02 -0.44934361179E+03  0.45011449509E+03  0.00000000000E+00 0. -1.
          1    1    1    2  502    0 -0.45507723724E+02  0.74756164598E+01  0.79488119363E+03  0.79621790343E+03  0.00000000000E+00 0. -1.
         22    1    3    3    0    0 -0.17716402550E+02  0.53671073573E+02 -0.13698696036E+02  0.58155905382E+02  0.00000000000E+00 0. -1.
         22    1    3    3    0    0  0.72333412493E+02 -0.36440453145E+02 -0.17405828557E+02  0.82843177486E+02  0.00000000000E+00 0. -1.
</event>
<event>
 7    1  0.5970484E-006  0.1285437E+03  0.7818608E-02  0.1253609E+00
          2   -1    0    0  502    0  0.00000000000E+00  0.00000000000E+00  0.18459998556E+04  0.18459998556E+04  0.00000000000E+00 0. -1.
          1   -1    0    0  501    0 -0.00000000000E+00 -0.00000000000E+00 -0.29266998375E+03  0.29266998375E+03  0.00000000000E+00 0. -1.
         25    2    1    2    0    0  0.12767444841E+03 -0.20284738774E+02  0.62754563206E+03  0.65280154383E+03  0.12499639959E+03 0.  0.
          2    1    1    2  501    0 -0.10357515761E+03 -0.77621240534E+02 -0.26283705399E+03  0.29297813435E+03  0.00000000000E+00 0. -1.
          1    1    1    2  502    0 -0.24099290797E+02  0.97905979308E+02  0.11886212938E+04  0.11928901611E+04  0.00000000000E+00 0. -1.
         22    1    3    3    0    0  0.11221764208E+03 -0.60739195187E+02  0.54322140016E+03  0.55800675500E+03  0.00000000000E+00 0. -1.
         22    1    3    3    0    0  0.15456806327E+02  0.40454456413E+02  0.84324231892E+02  0.94794788832E+02  0.00000000000E+00 0. -1.
</event>
<event>
 7    1  0.5970484E-006  0.6958452E+02  0.7818608E-02  0.1374844E+00
          2   -1    0    0  502    0  0.00000000000E+00  0.00000000000E+00  0.29218382797E+04  0.29218382797E+04  0.00000000000E+00 0. -1.
          1   -1    0    0  501    0 -0.00000000000E+00 -0.00000000000E+00 -0.11540108880E+02  0.11540108880E+02  0.00000000000E+00 0. -1.
         25    2    1    2    0    0  0.82617523347E+01  0.39189737137E+02  0.10231161323E+04  0.10315016998E+04  0.12500017792E+03 0.  0.
          2    1    1    2  501    0 -0.58445784182E+02  0.21556951849E+02  0.14377959463E+03  0.15669455540E+03  0.00000000000E+00 0. -1.
          1    1    1    2  502    0  0.50184031847E+02 -0.60746688986E+02  0.17434024439E+04  0.17451821334E+04  0.00000000000E+00 0. -1.
         22    1    3    3    0    0 -0.32597709862E+02 -0.18644628435E+02  0.68608441408E+03  0.68711138551E+03  0.00000000000E+00 0. -1.
         22    1    3    3    0    0  0.40859462196E+02  0.57834365571E+02  0.33703171823E+03  0.34439031430E+03  0.00000000000E+00 0. -1.
</event>
<event>
 7    1  0.5970484E-006  0.7942208E+02  0.7818608E-02  0.1381914E+00
          2   -1    0    0  502    0  0.00000000000E+00  0.00000000000E+00  0.12254192833E+04  0.12254192833E+04  0.00000000000E+00 0. -1.
          1   -1    0    0  501    0 -0.00000000000E+00 -0.00000000000E+00 -0.33937519811E+02  0.33937519811E+02  0.00000000000E+00 0. -1.
         25    2    1    2    0    0  0.65128113990E+01  0.82468809841E+02  0.61474094925E+03  0.63275089164E+03  0.12499493938E+03 0.  0.
          2    1    1    2  501    0 -0.53193773447E+02 -0.60684818659E+02  0.45042175337E+02  0.92417651497E+02  0.00000000000E+00 0. -1.
          1    1    1    2  502    0  0.46680962048E+02 -0.21783991183E+02  0.53169863894E+03  0.53418826002E+03  0.00000000000E+00 0. -1.
         22    1    3    3    0    0  0.13224292282E+02 -0.12324760904E+02  0.10139530843E+02  0.20726594593E+02  0.00000000000E+00 0. -1.
         22    1    3    3    0    0 -0.67114808830E+01  0.94793570746E+02  0.60460141841E+03  0.61202429704E+03  0.00000000000E+00 0. -1.
</event>
<event>
 7    1  0.5970484E-006  0.4547104E+02  0.7818608E-02  0.1514651E+00
          2   -1    0    0  502    0  0.00000000000E+00  0.00000000000E+00  0.31938323516E+03  0.31938323516E+03  0.00000000000E+00 0. -1.
          1   -1    0    0  501    0 -0.00000000000E+00 -0.00000000000E+00 -0.70900477185E+03  0.70900477185E+03  0.00000000000E+00 0. -1.
         25    2    1    2    0    0 -0.19769548407E+02 -0.67226429486E+01  0.72374311294E+02  0.14594304157E+03  0.12500120590E+03 0.  0.
          2    1    1    2  501    0 -0.25167714820E+02  0.22392309391E+02 -0.66909779555E+03  0.66994528836E+03  0.00000000000E+00 0. -1.
          1    1    1    2  502    0  0.44937263227E+02 -0.15669666443E+02  0.20710194757E+03  0.21249967708E+03  0.00000000000E+00 0. -1.
         22    1    3    3    0    0 -0.35631519353E+02  0.52476951985E+02  0.49747918668E+02  0.80611978470E+02  0.00000000000E+00 0.  1.
         22    1    3    3    0    0  0.15861970945E+02 -0.59199594934E+02  0.22626392626E+02  0.65331063101E+02  0.00000000000E+00 0.  1.
</event>
<event>
 7    1  0.5970484E-006  0.5383502E+02  0.7818608E-02  0.1461516E+00
          2   -1    0    0  502    0  0.00000000000E+00  0.00000000000E+00  0.76402643021E+02  0.76402643021E+02  0.00000000000E+00 0. -1.
          1   -1    0    0  501    0 -0.00000000000E+00 -0.00000000000E+00 -0.22061214170E+03  0.22061214170E+03  0.00000000000E+00 0. -1.
         25    2    1    2    0    0  0.61602836969E+02 -0.20791620514E+02 -0.80100025648E+02  0.16207684931E+03  0.12500275984E+03 0.  0.
          2    1    1    2  501    0 -0.28728893583E+02  0.45700920039E+02 -0.74880648665E+02  0.92309452189E+02  0.00000000000E+00 0. -1.
          1    1    1    2  502    0 -0.32873943386E+02 -0.24909299525E+02  0.10771175639E+02  0.42628483215E+02  0.00000000000E+00 0. -1.
         22    1    3    3    0    0 -0.10062226478E+02  0.20451535083E+02  0.21328554856E+02  0.31215716253E+02  0.00000000000E+00 0.  1.
         22    1    3    3    0    0  0.71665063448E+02 -0.41243155598E+02 -0.10142858050E+03  0.13086113306E+03  0.00000000000E+00 0.  1.
</event>
<event>
 7    1  0.5970484E-006  0.1021680E+03  0.7818608E-02  0.1338534E+00
          2   -1    0    0  502    0  0.00000000000E+00  0.00000000000E+00  0.80556318167E+03  0.80556318167E+03  0.00000000000E+00 0. -1.
          1   -1    0    0  501    0 -0.00000000000E+00 -0.00000000000E+00 -0.42656802632E+03  0.42656802632E+03  0.00000000000E+00 0. -1.
         25    2    1    2    0    0  0.14163840113E+03  0.40804175785E+02  0.94686900883E+02  0.21521229855E+03  0.12499722722E+03 0.  0.
          2    1    1    2  501    0 -0.56591145607E+02  0.11033408852E+02 -0.36018725209E+03  0.36477273807E+03  0.00000000000E+00 0. -1.
          1    1    1    2  502    0 -0.85047255527E+02 -0.51837584638E+02  0.64449550655E+03  0.65214617136E+03  0.00000000000E+00 0. -1.
         22    1    3    3    0    0  0.11467607314E+03 -0.18931864527E+02  0.23742902845E+02  0.11862859133E+03  0.00000000000E+00 0.  1.
         22    1    3    3    0    0  0.26962327991E+02  0.59736040313E+02  0.70943998038E+02  0.96583707221E+02  0.00000000000E+00 0.  1.
</event>
<event>
 7    1  0.5970484E-006  0.5995321E+02  0.7818608E-02  0.1421399E+00
          2   -1    0    0  502    0  0.00000000000E+00  0.00000000000E+00  0.73176213244E+03  0.73176213244E+03  0.00000000000E+00 0. -1.
          1   -1    0    0  501    0 -0.00000000000E+00 -0.00000000000E+00 -0.14404946405E+04  0.14404946405E+04  0.00000000000E+00 0. -1.
         25    2    1    2    0    0 -0.30889768478E+02  0.10187759237E+03 -0.16937765747E+03  0.23586800609E+03  0.12494680399E+03 0.  0.
          2    1    1    2  501    0  0.27871540809E+02 -0.52014121979E+02 -0.12362739843E+04  0.12376815648E+04  0.00000000000E+00 0. -1.
          1    1    1    2  502    0  0.30182276689E+01 -0.49863470394E+02  0.69691913364E+03  0.69870720206E+03  0.00000000000E+00 0. -1.
         22    1    3    3    0    0  0.29625557747E+01  0.31476921032E+01 -0.12057010365E+03  0.12064756358E+03  0.00000000000E+00 0.  1.
         22    1    3    3    0    0 -0.33852324252E+02  0.98729900270E+02 -0.48807553811E+02  0.11522044252E+03  0.00000000000E+00 0.  1.
</event>
<event>
 7    1  0.5970484E-006  0.5206311E+02  0.7818608E-02  0.1489748E+00
          2   -1    0    0  502    0  0.00000000000E+00  0.00000000000E+00  0.17438942358E+04  0.17438942358E+04  0.00000000000E+00 0. -1.
          1   -1    0    0  501    0 -0.00000000000E+00 -0.00000000000E+00 -0.16579347710E+03  0.16579347710E+03  0.00000000000E+00 0. -1.
         25    2    1    2    0    0  0.51640109181E+02 -0.69458465030E+02 -0.36670468035E+02  0.15640366169E+03  0.12500481160E+03 0.  0.
          2    1    1    2  501    0 -0.18063498680E+02  0.29856077378E+02 -0.64434019476E+02  0.73276314092E+02  0.00000000000E+00 0. -1.
          1    1    1    2  502    0 -0.33576610500E+02  0.39602387653E+02  0.16792052462E+04  0.16800077371E+04  0.00000000000E+00 0. -1.
         22    1    3    3    0    0 -0.27041039147E+02 -0.26227510075E+02 -0.53131949400E+02  0.65131437340E+02  0.00000000000E+00 0. -1.
         22    1    3    3    0    0  0.78681148328E+02 -0.43230954955E+02  0.16461481365E+02  0.91272224347E+02  0.00000000000E+00 0. -1.
</event>
<event>
 7    1  0.5970484E-006  0.2016081E+03  0.7818608E-02  0.1323256E+00
          2   -1    0    0  502    0  0.00000000000E+00  0.00000000000E+00  0.13338090216E+04  0.13338090216E+04  0.00000000000E+00 0. -1.
          1   -1    0    0  501    0 -0.00000000000E+00 -0.00000000000E+00 -0.11616425282E+04  0.11616425282E+04  0.00000000000E+00 0. -1.
         25    2    1    2    0    0 -0.14127183214E+03 -0.17084370609E+03  0.46199963780E+03  0.52746036740E+03  0.12500188549E+03 0.  0.
          2    1    1    2  501    0  0.10786924213E+03  0.16992867404E+03 -0.11196018525E+04  0.11375499267E+04  0.00000000000E+00 0. -1.
          1    1    1    2  502    0  0.33402590005E+02  0.91503204799E+00  0.82976870802E+03  0.83044125567E+03  0.00000000000E+00 0. -1.
         22    1    3    3    0    0 -0.86238525682E+02 -0.16736905400E+03  0.41217444538E+03  0.45314154188E+03  0.00000000000E+00 0.  1.
         22    1    3    3    0    0 -0.55033306456E+02 -0.34746520932E+01  0.49825192420E+02  0.74318825518E+02  0.00000000000E+00 0.  1.
</event>
<event>
 7    1  0.5970484E-006  0.4347490E+02  0.7818608E-02  0.1551158E+00
          2   -1    0    0  502    0  0.00000000000E+00  0.00000000000E+00  0.23572000592E+04  0.23572000592E+04  0.00000000000E+00 0. -1.
          1   -1    0    0  501    0 -0.00000000000E+00 -0.00000000000E+00 -0.78702173894E+02  0.78702173894E+02  0.00000000000E+00 0. -1.
         25    2    1    2    0    0  0.42789767754E+01 -0.34156177060E+02  0.15970312941E+04  0.16022859533E+04  0.12500547138E+03 0.  0.
          2    1    1    2  501    0  0.23315361241E+02  0.36772363246E+02 -0.69568088480E+02  0.82070285142E+02  0.00000000000E+00 0. -1.
          1    1    1    2  502    0 -0.27594338017E+02 -0.26161861858E+01  0.75103467970E+03  0.75154599462E+03  0.00000000000E+00 0. -1.
         22    1    3    3    0    0 -0.59730300525E+01  0.42089195528E+02  0.30271843021E+03  0.30568877222E+03  0.00000000000E+00 0.  1.
         22    1    3    3    0    0  0.10252006828E+02 -0.76245372588E+02  0.12943128639E+04  0.12965971811E+04  0.00000000000E+00 0.  1.
</event>
<event>
 7    1  0.5970484E-006  0.9837478E+02  0.7818608E-02  0.1418560E+00
          2   -1    0    0  502    0  0.00000000000E+00  0.00000000000E+00  0.27263667450E+03  0.27263667450E+03  0.00000000000E+00 0. -1.
          1   -1    0    0  501    0 -0.00000000000E+00 -0.00000000000E+00 -0.17399821170E+04  0.17399821170E+04  0.00000000000E+00 0. -1.
         25    2    1    2    0    0  0.12193822314E+03 -0.95411100327E+01  0.78519015699E+02  0.19170211125E+03  0.12499800234E+03 0.  0.
          2    1    1    2  501    0 -0.30028788459E+02  0.81543806931E+01 -0.16678698419E+04  0.16681600737E+04  0.00000000000E+00 0. -1.
          1    1    1    2  502    0 -0.91909434682E+02  0.13867293396E+01  0.12200538367E+03  0.15275660655E+03  0.00000000000E+00 0. -1.
         22    1    3    3    0    0  0.12956661944E+03 -0.38749519617E+02  0.36705116542E+02  0.14012958190E+03  0.00000000000E+00 0.  1.
         22    1    3    3    0    0 -0.76283963027E+01  0.29208409584E+02  0.41813899158E+02  0.51572529348E+02  0.00000000000E+00 0.  1.
</event>
<event>
 7    1  0.5970484E-006  0.7562568E+02  0.7818608E-02  0.1405003E+00
          2   -1    0    0  502    0  0.00000000000E+00  0.00000000000E+00  0.99410249357E+03  0.99410249357E+03  0.00000000000E+00 0. -1.
          1   -1    0    0  501    0 -0.00000000000E+00 -0.00000000000E+00 -0.58678900502E+03  0.58678900502E+03  0.00000000000E+00 0. -1.
         25    2    1    2    0    0 -0.33960102478E+02  0.41162416192E+02 -0.17503491485E+03  0.22160545858E+03  0.12499649911E+03 0.  0.
          2    1    1    2  501    0 -0.39378247331E+02 -0.21739488128E+02 -0.38567756247E+03  0.38829168663E+03  0.00000000000E+00 0. -1.
          1    1    1    2  502    0  0.73338349808E+02 -0.19422928064E+02  0.96802596587E+03  0.97099435338E+03  0.00000000000E+00 0. -1.
         22    1    3    3    0    0 -0.58598713062E+02 -0.18337425618E+02 -0.12765660883E+03  0.14165549806E+03  0.00000000000E+00 0.  1.
         22    1    3    3    0    0  0.24638610585E+02  0.59499841809E+02 -0.47378306014E+02  0.79949960523E+02  0.00000000000E+00 0.  1.
</event>
<event>
 7    1  0.5970484E-006  0.7135968E+02  0.7818608E-02  0.1374992E+00
          2   -1    0    0  502    0  0.00000000000E+00  0.00000000000E+00  0.14130124937E+04  0.14130124937E+04  0.00000000000E+00 0. -1.
          1   -1    0    0  501    0 -0.00000000000E+00 -0.00000000000E+00 -0.22001640542E+02  0.22001640542E+02  0.00000000000E+00 0. -1.
         25    2    1    2    0    0 -0.34854100364E+02 -0.92967250451E+02  0.39746717979E+03  0.42832587710E+03  0.12500072006E+03 0.  0.
          2    1    1    2  501    0 -0.24678526505E+02  0.55424962534E+02  0.17685164942E+03  0.18696914731E+03  0.00000000000E+00 0. -1.
          1    1    1    2  502    0  0.59532626869E+02  0.37542287917E+02  0.81669202393E+03  0.81971910982E+03  0.00000000000E+00 0. -1.
         22    1    3    3    0    0 -0.26733428993E+02 -0.11867910056E+03  0.37142230841E+03  0.39083748070E+03  0.00000000000E+00 0. -1.
         22    1    3    3    0    0 -0.81206713710E+01  0.25711850110E+02  0.26044871380E+02  0.37488396402E+02  0.00000000000E+00 0. -1.
</event>
<event>
 7    1  0.5970484E-006  0.4017639E+02  0.7818608E-02  0.1532036E+00
          2   -1    0    0  502    0  0.00000000000E+00  0.00000000000E+00  0.17608428237E+03  0.17608428237E+03  0.00000000000E+00 0. -1.
          1   -1    0    0  501    0 -0.00000000000E+00 -0.00000000000E+00 -0.23440380100E+04  0.23440380100E+04  0.00000000000E+00 0. -1.
         25    2    1    2    0    0 -0.22063626187E+02  0.67135584611E+01 -0.35616623756E+03  0.37816788380E+03  0.12499873637E+03 0.  0.
          2    1    1    2  501    0  0.11581008714E+02 -0.39015595474E+02 -0.19749125274E+04  0.19753318271E+04  0.00000000000E+00 0. -1.
          1    1    1    2  502    0  0.10482617473E+02  0.32302037013E+02  0.16312503729E+03  0.16662258147E+03  0.00000000000E+00 0. -1.
         22    1    3    3    0    0 -0.56889403771E+02 -0.10899153052E+02 -0.77354361603E+02  0.96637948331E+02  0.00000000000E+00 0. -1.
         22    1    3    3    0    0  0.34825777584E+02  0.17612711513E+02 -0.27881187595E+03  0.28152993547E+03  0.00000000000E+00 0. -1.
</event>
<event>
 7    1  0.5970484E-006  0.7544441E+02  0.7818608E-02  0.1448115E+00
          2   -1    0    0  502    0  0.00000000000E+00  0.00000000000E+00  0.12095452946E+04  0.12095452946E+04  0.00000000000E+00 0. -1.
          1   -1    0    0  501    0 -0.00000000000E+00 -0.00000000000E+00 -0.82612495316E+02  0.82612495316E+02  0.00000000000E+00 0. -1.
         25    2    1    2    0    0 -0.41824275617E+02  0.17247455297E+02  0.31538486989E+03  0.34225607603E+03  0.12499944272E+03 0.  0.
          2    1    1    2  501    0  0.69416528440E+02 -0.34351876614E+02 -0.47094733777E+02  0.90645572408E+02  0.00000000000E+00 0. -1.
          1    1    1    2  502    0 -0.27592252824E+02  0.17104421317E+02  0.85864266313E+03  0.85925614143E+03  0.00000000000E+00 0. -1.
         22    1    3    3    0    0 -0.18751860410E+02  0.64183238095E+02  0.97797255302E+02  0.11847119256E+03  0.00000000000E+00 0. -1.
         22    1    3    3    0    0 -0.23072415207E+02 -0.46935782798E+02  0.21758761458E+03  0.22378488347E+03  0.00000000000E+00 0. -1.
</event>
<event>
 7    1  0.5970484E-006  0.6359411E+02  0.7818608E-02  0.1399804E+00
          2   -1    0    0  502    0  0.00000000000E+00  0.00000000000E+00  0.13149080645E+03  0.13149080645E+03  0.00000000000E+00 0. -1.
          1   -1    0    0  501    0 -0.00000000000E+00 -0.00000000000E+00 -0.13919706750E+04  0.13919706750E+04  0.00000000000E+00 0. -1.
         25    2    1    2    0    0 -0.75760438449E+02  0.30984357339E+01  0.17792966002E+01  0.14620642449E+03  0.12499563324E+03 0.  0.
          2    1    1    2  501    0  0.46032467266E+02  0.44040789924E+02 -0.13052910666E+04  0.13068448063E+04  0.00000000000E+00 0. -1.
          1    1    1    2  502    0  0.29727971183E+02 -0.47139225658E+02  0.43031901400E+02  0.70410250706E+02  0.00000000000E+00 0. -1.
         22    1    3    3    0    0  0.23347560611E+02  0.23130706223E+01  0.34598089150E+02  0.41802950315E+02  0.00000000000E+00 0. -1.
         22    1    3    3    0    0 -0.99107999060E+02  0.78536511158E+00 -0.32818792550E+02  0.10440347418E+03  0.00000000000E+00 0. -1.
</event>
<event>
 7    1  0.5970484E-006  0.1177602E+03  0.7818608E-02  0.1419786E+00
          2   -1    0    0  502    0  0.00000000000E+00  0.00000000000E+00  0.10995988850E+04  0.10995988850E+04  0.00000000000E+00 0. -1.
          1   -1    0    0  501    0 -0.00000000000E+00 -0.00000000000E+00 -0.11905532891E+03  0.11905532891E+03  0.00000000000E+00 0. -1.
         25    2    1    2    0    0 -0.38349271245E+02 -0.13072905953E+03  0.21777241442E+03  0.28567619419E+03  0.12500123934E+03 0.  0.
          2    1    1    2  501    0 -0.76978361828E+01  0.24572183211E+02 -0.79103141810E+02  0.83188676597E+02  0.00000000000E+00 0. -1.
          1    1    1    2  502    0  0.46047107427E+02  0.10615687632E+03  0.84187428343E+03  0.84978934307E+03  0.00000000000E+00 0. -1.
         22    1    3    3    0    0 -0.70103273103E+02 -0.13362337740E+03  0.16169304830E+03  0.22116581507E+03  0.00000000000E+00 0.  1.
         22    1    3    3    0    0  0.31754001858E+02  0.28943178741E+01  0.56079366120E+02  0.64510379122E+02  0.00000000000E+00 0.  1.
</event>
<event>
 7    1  0.5970484E-006  0.2281266E+03  0.7818608E-02  0.1208459E+00
          2   -1    0    0  502    0  0.00000000000E+00  0.00000000000E+00  0.31184439733E+04  0.31184439733E+04  0.00000000000E+00 0. -1.
          1   -1    0    0  501    0 -0.00000000000E+00 -0.00000000000E+00 -0.14137505549E+03  0.14137505549E+03  0.00000000000E+00 0. -1.
         25    2    1    2    0    0 -0.43150906528E+02  0.14168815634E+03  0.71072208373E+02  0.20643126960E+03  0.12500030353E+03 0.  0.
          2    1    1    2  501    0  0.11056458233E+02  0.89817941728E+02 -0.39422729414E+02  0.98709976797E+02  0.00000000000E+00 0. -1.
          1    1    1    2  502    0  0.32094448295E+02 -0.23150609807E+03  0.29454194389E+04  0.29546777824E+04  0.00000000000E+00 0. -1.
         22    1    3    3    0    0 -0.73699531326E+02  0.46091986624E+02  0.66603964877E+01  0.87180577137E+02  0.00000000000E+00 0.  1.
         22    1    3    3    0    0  0.30548624798E+02  0.95596169716E+02  0.64411811885E+02  0.11925069246E+03  0.00000000000E+00 0.  1.
</event>
<event>
 7    1  0.5970484E-006  0.8100043E+02  0.7818608E-02  0.1389416E+00
          2   -1    0    0  502    0  0.00000000000E+00  0.00000000000E+00  0.30959129031E+03  0.30959129031E+03  0.00000000000E+00 0. -1.
          1   -1    0    0  501    0 -0.00000000000E+00 -0.00000000000E+00 -0.30803808337E+04  0.30803808337E+04  0.00000000000E+00 0. -1.
         25    2    1    2    0    0  0.77771917051E+02  0.22550004995E+02  0.16908612324E+03  0.22532605818E+03  0.12499896646E+03 0.  0.
          2    1    1    2  501    0 -0.77091921491E+02  0.24981452093E+02 -0.30466711714E+04  0.30477487534E+04  0.00000000000E+00 0. -1.
          1    1    1    2  502    0 -0.67999555960E+00 -0.47531457088E+02  0.10679550478E+03  0.11689731241E+03  0.00000000000E+00 0. -1.
         22    1    3    3    0    0 -0.32481390615E+02 -0.85955749591E+01  0.48407110541E+02  0.58925147400E+02  0.00000000000E+00 0. -1.
         22    1    3    3    0    0  0.11025330767E+03  0.31145579954E+02  0.12067901270E+03  0.16640091078E+03  0.00000000000E+00 0. -1.
</event>
<event>
 7    1  0.5970484E-006  0.2556820E+03  0.7818608E-02  0.1196647E+00
          2   -1    0    0  502    0  0.00000000000E+00  0.00000000000E+00  0.45203096789E+04  0.45203096789E+04  0.00000000000E+00 0. -1.
          1   -1    0    0  501    0 -0.00000000000E+00 -0.00000000000E+00 -0.77907134373E+03  0.77907134373E+03  0.00000000000E+00 0. -1.
         25    2    1    2    0    0  0.15151084354E+03  0.20111564543E+03  0.47305103757E+03  0.55027616466E+03  0.12499413863E+03 0.  0.
          2    1    1    2  501    0 -0.21698281781E+03 -0.13684980185E+03 -0.71769596042E+03  0.76216592885E+03  0.00000000000E+00 0. -1.
          1    1    1    2  502    0  0.65471974263E+02 -0.64265843583E+02  0.39858832580E+04  0.39869389291E+04  0.00000000000E+00 0. -1.
         22    1    3    3    0    0 -0.20589611478E+02  0.13774936636E+02  0.25995824351E+02  0.35909105584E+02  0.00000000000E+00 0. -1.
         22    1    3    3    0    0  0.17210045502E+03  0.18734070880E+03  0.44705521322E+03  0.51436705907E+03  0.00000000000E+00 0. -1.
</event>
<event>
 7    1  0.5970484E-006  0.6871930E+02  0.7818608E-02  0.1398321E+00
          2   -1    0    0  502    0  0.00000000000E+00  0.00000000000E+00  0.19093417097E+04  0.19093417097E+04  0.00000000000E+00 0. -1.
          1   -1    0    0  501    0 -0.00000000000E+00 -0.00000000000E+00 -0.19093987488E+03  0.19093987488E+03  0.00000000000E+00 0. -1.
         25    2    1    2    0    0  0.97774975365E+02 -0.28081392612E+01 -0.11527525632E+02  0.15914505353E+03  0.12500573091E+03 0.  0.
          2    1    1    2  501    0 -0.37752303211E+02  0.36026656291E+02 -0.98474171693E+02  0.11144648425E+03  0.00000000000E+00 0. -1.
          1    1    1    2  502    0 -0.60022672154E+02 -0.33218517030E+02  0.18284035321E+04  0.18296900468E+04  0.00000000000E+00 0. -1.
         22    1    3    3    0    0  0.35935011555E+02  0.35640392276E+02 -0.54674290539E+02  0.74503964075E+02  0.00000000000E+00 0.  1.
         22    1    3    3    0    0  0.61839963810E+02 -0.38448531537E+02  0.43146764906E+02  0.84641089450E+02  0.00000000000E+00 0.  1.
</event>
<event>
 7    1  0.5970484E-006  0.1006964E+03  0.7818608E-02  0.1342783E+00
          2   -1    0    0  502    0  0.00000000000E+00  0.00000000000E+00  0.90278933693E+03  0.90278933693E+03  0.00000000000E+00 0. -1.
          1   -1    0    0  501    0 -0.00000000000E+00 -0.00000000000E+00 -0.18831327534E+03  0.18831327534E+03  0.00000000000E+00 0. -1.
         25    2    1    2    0    0 -0.13628565221E+03  0.52767704310E+02  0.19329117476E+03  0.27266253360E+03  0.12500067749E+03 0.  0.
          2    1    1    2  501    0  0.40244753206E+02 -0.39495224310E+02 -0.13961170332E+03  0.15056872387E+03  0.00000000000E+00 0. -1.
          1    1    1    2  502    0  0.96040899007E+02 -0.13272480000E+02  0.66079659015E+03  0.66787135480E+03  0.00000000000E+00 0. -1.
         22    1    3    3    0    0 -0.10347942724E+03  0.93733965384E+02  0.13476083779E+03  0.19404775580E+03  0.00000000000E+00 0. -1.
         22    1    3    3    0    0 -0.32806224975E+02 -0.40966261074E+02  0.58530336974E+02  0.78614777807E+02  0.00000000000E+00 0. -1.
</event>
<event>
 7    1  0.5970484E-006  0.3779075E+02  0.7818608E-02  0.1560742E+00
          2   -1    0    0  502    0  0.00000000000E+00  0.00000000000E+00  0.79598625160E+03  0.79598625160E+03  0.00000000000E+00 0. -1.
          1   -1    0    0  501    0 -0.00000000000E+00 -0.00000000000E+00 -0.28347020740E+03  0.28347020740E+03  0.00000000000E+00 0. -1.
         25    2    1    2    0    0 -0.15342166986E+02 -0.65141201788E+02  0.16945645296E+03  0.22095350586E+03  0.12500481608E+03 0.  0.
          2    1    1    2  501    0  0.39804646075E+01  0.37378189185E+02 -0.25597372635E+03  0.25871900144E+03  0.00000000000E+00 0. -1.
          1    1    1    2  502    0  0.11361702379E+02  0.27763012603E+02  0.59903331758E+03  0.59978395171E+03  0.00000000000E+00 0. -1.
         22    1    3    3    0    0 -0.21814559187E+02 -0.59728777107E+02  0.13799265333E+02  0.65067822546E+02  0.00000000000E+00 0.  1.
         22    1    3    3    0    0  0.64723922007E+01 -0.54124246813E+01  0.15565718763E+03  0.15588568331E+03  0.00000000000E+00 0.  1.
</event>
<event>
 7    1  0.5970484E-006  0.3283029E+02  0.7818608E-02  0.1570909E+00
          2   -1    0    0  502    0  0.00000000000E+00  0.00000000000E+00  0.83549529498E+03  0.83549529498E+03  0.00000000000E+00 0. -1.
          1   -1    0    0  501    0 -0.00000000000E+00 -0.00000000000E+00 -0.12120092679E+03  0.12120092679E+03  0.00000000000E+00 0. -1.
         25    2    1    2    0    0  0.23735471843E+01 -0.41526364248E+02  0.68153349288E+02  0.14828350828E+03  0.12495217948E+03 0.  0.
          2    1    1    2  501    0  0.23946856147E+02  0.21811563962E+02 -0.77514652601E+02  0.84010223244E+02  0.00000000000E+00 0. -1.
          1    1    1    2  502    0 -0.26320403331E+02  0.19714800285E+02  0.72365567150E+03  0.72440249024E+03  0.00000000000E+00 0. -1.
         22    1    3    3    0    0 -0.25799937843E+02  0.37704064269E+02  0.36339062351E+02  0.58376028536E+02  0.00000000000E+00 0. -1.
         22    1    3    3    0    0  0.28173485027E+02 -0.79230428516E+02  0.31814286937E+02  0.89907479749E+02  0.00000000000E+00 0. -1.
</event>
<event>
 7    1  0.5970484E-006  0.1292247E+03  0.7818608E-02  0.1319596E+00
          2   -1    0    0  502    0  0.00000000000E+00  0.00000000000E+00  0.91630116532E+03  0.91630116532E+03  0.00000000000E+00 0. -1.
          1   -1    0    0  501    0 -0.00000000000E+00 -0.00000000000E+00 -0.95079113748E+03  0.95079113748E+03  0.00000000000E+00 0. -1.
         25    2    1    2    0    0  0.95817354523E+02  0.79913070320E+02  0.33798665249E+01  0.17664659306E+03  0.12500212441E+03 0.  0.
          2    1    1    2  501    0 -0.56757902841E+02 -0.11699926461E+03 -0.85837767914E+03  0.86817194582E+03  0.00000000000E+00 0. -1.
          1    1    1    2  502    0 -0.39059451683E+02  0.37086194288E+02  0.82050784046E+03  0.82227376392E+03  0.00000000000E+00 0. -1.
         22    1    3    3    0    0  0.14293843675E+02  0.22498305846E+02 -0.54987562805E+02  0.61107444687E+02  0.00000000000E+00 0. -1.
         22    1    3    3    0    0  0.81523510848E+02  0.57414764475E+02  0.58367429330E+02  0.11553914838E+03  0.00000000000E+00 0. -1.
</event>
<event>
 7    1  0.5970484E-006  0.1076780E+03  0.7818608E-02  0.1457414E+00
          2   -1    0    0  502    0  0.00000000000E+00  0.00000000000E+00  0.34863598826E+03  0.34863598826E+03  0.00000000000E+00 0. -1.
          1   -1    0    0  501    0 -0.00000000000E+00 -0.00000000000E+00 -0.62311084386E+03  0.62311084386E+03  0.00000000000E+00 0. -1.
         25    2    1    2    0    0  0.51849825951E+02 -0.79535841108E+02 -0.29648069483E+03  0.33547393466E+03  0.12501041540E+03 0.  0.
          2    1    1    2  501    0 -0.55530469359E+02  0.10045983698E+03 -0.29604192074E+03  0.31751634716E+03  0.00000000000E+00 0. -1.
          1    1    1    2  502    0  0.36806434071E+01 -0.20923995872E+02  0.31804775997E+03  0.31875655031E+03  0.00000000000E+00 0. -1.
         22    1    3    3    0    0 -0.35149569574E+02 -0.10878772148E+01 -0.10774327189E+03  0.11333705641E+03  0.00000000000E+00 0.  1.
         22    1    3    3    0    0  0.86999395525E+02 -0.78447963893E+02 -0.18873742293E+03  0.22213687825E+03  0.00000000000E+00 0.  1.
</event>
<event>
 7    1  0.5970484E-006  0.1431564E+03  0.7818608E-02  0.1276996E+00
          2   -1    0    0  502    0  0.00000000000E+00  0.00000000000E+00  0.14349583998E+04  0.14349583998E+04  0.00000000000E+00 0. -1.
          1   -1    0    0  501    0 -0.00000000000E+00 -0.00000000000E+00 -0.62457950108E+03  0.62457950108E+03  0.00000000000E+00 0. -1.
         25    2    1    2    0    0 -0.46532446593E+02 -0.16356888103E+03  0.32522186024E+02  0.21354598923E+03  0.12499659797E+03 0.  0.
          2    1    1    2  501    0 -0.46288070424E+02  0.55262297917E+02 -0.52773288663E+03  0.53263355759E+03  0.00000000000E+00 0. -1.
          1    1    1    2  502    0  0.92820517017E+02  0.10830658311E+03  0.13055895994E+04  0.13133583541E+04  0.00000000000E+00 0. -1.
         22    1    3    3    0    0 -0.29060673994E+02  0.11197219640E+02  0.20937555334E+02  0.37527079875E+02  0.00000000000E+00 0.  1.
         22    1    3    3    0    0 -0.17471772599E+02 -0.17476610067E+03  0.11584630690E+02  0.17601890935E+03  0.00000000000E+00 0.  1.
</event>
<event>
 7    1  0.5970484E-006  0.1439251E+03  0.7818608E-02  0.1272852E+00
          2   -1    0    0  502    0  0.00000000000E+00  0.00000000000E+00  0.10580280777E+04  0.10580280777E+04  0.00000000000E+00 0. -1.
          1   -1    0    0  501    0 -0.00000000000E+00 -0.00000000000E+00 -0.20246561476E+03  0.20246561476E+03  0.00000000000E+00 0. -1.
         25    2    1    2    0    0  0.95253587493E+02  0.95534084952E+02  0.20509324033E+03  0.27547851998E+03  0.12500068170E+03 0.  0.
          2    1    1    2  501    0 -0.56996444890E+02  0.48145296183E+02 -0.15176805165E+03  0.16911565799E+03  0.00000000000E+00 0. -1.
          1    1    1    2  502    0 -0.38257142603E+02 -0.14367938113E+03  0.80223727431E+03  0.81589951453E+03  0.00000000000E+00 0. -1.
         22    1    3    3    0    0  0.58181294631E+02  0.52858980491E+02  0.20434684311E+03  0.21894466687E+03  0.00000000000E+00 0.  1.
         22    1    3    3    0    0  0.37072292862E+02  0.42675104461E+02  0.74639722080E+00  0.56533853111E+02  0.00000000000E+00 0.  1.
</event>
<event>
 7    1  0.5970484E-006  0.1470714E+03  0.7818608E-02  0.1398113E+00
          2   -1    0    0  502    0  0.00000000000E+00  0.00000000000E+00  0.76635932335E+03  0.76635932335E+03  0.00000000000E+00 0. -1.
          1   -1    0    0  501    0 -0.00000000000E+00 -0.00000000000E+00 -0.20155720827E+03  0.20155720827E+03  0.00000000000E+00 0. -1.
         25    2    1    2    0    0 -0.14287746695E+03  0.27956806173E+02  0.35716590310E+02  0.19517667469E+03  0.12499082344E+03 0.  0.
          2    1    1    2  501    0  0.14815816112E+03 -0.41112710757E+01 -0.76409971814E+02  0.16675199264E+03  0.00000000000E+00 0. -1.
          1    1    1    2  502    0 -0.52806941700E+01 -0.23845535098E+02  0.60549549659E+03  0.60598786429E+03  0.00000000000E+00 0. -1.
         22    1    3    3    0    0 -0.22554791837E+01 -0.29581259555E+02  0.31369862041E+02  0.43176455942E+02  0.00000000000E+00 0. -1.
         22    1    3    3    0    0 -0.14062198777E+03  0.57538065729E+02  0.43467282685E+01  0.15200021875E+03  0.00000000000E+00 0. -1.
</event>
<event>
 7    1  0.5970484E-006  0.1482551E+03  0.7818608E-02  0.1301804E+00
          2   -1    0    0  502    0  0.00000000000E+00  0.00000000000E+00  0.17992279366E+04  0.17992279366E+04  0.00000000000E+00 0. -1.
          1   -1    0    0  501    0 -0.00000000000E+00 -0.00000000000E+00 -0.80722848565E+03  0.80722848565E+03  0.00000000000E+00 0. -1.
         25    2    1    2    0    0  0.15786256555E+03  0.91596280239E+02 -0.19004816725E+02  0.22202391343E+03  0.12499186742E+03 0.  0.
          2    1    1    2  501    0 -0.53658458147E+02  0.12799653226E+02 -0.68239512858E+03  0.68462118925E+03  0.00000000000E+00 0. -1.
          1    1    1    2  502    0 -0.10420410741E+03 -0.10439593346E+03  0.16933993962E+04  0.16998113196E+04  0.00000000000E+00 0. -1.
         22    1    3    3    0    0  0.15565073225E+03  0.28899721340E+02 -0.97675661628E+01  0.15861194688E+03  0.00000000000E+00 0. -1.
         22    1    3    3    0    0  0.22118333015E+01  0.62696558899E+02 -0.92372505624E+01  0.63411966554E+02  0.00000000000E+00 0. -1.
</event>
<event>
 7    1  0.5970484E-006  0.1294093E+03  0.7818608E-02  0.1288594E+00
          2   -1    0    0  502    0  0.00000000000E+00  0.00000000000E+00  0.44655014385E+03  0.44655014385E+03  0.00000000000E+00 0. -1.
          1   -1    0    0  501    0 -0.00000000000E+00 -0.00000000000E+00 -0.46405024261E+03  0.46405024261E+03  0.00000000000E+00 0. -1.
         25    2    1    2    0    0  0.25185972230E+02  0.78656859261E+02  0.34651638858E+02  0.15377724047E+03  0.12500187561E+03 0.  0.
          2    1    1    2  501    0  0.63997330057E+02  0.31765108633E+02 -0.38678663121E+03  0.39333011386E+03  0.00000000000E+00 0. -1.
          1    1    1    2  502    0 -0.89183302288E+02 -0.11042196789E+03  0.33463489359E+03  0.36349303213E+03  0.00000000000E+00 0. -1.
         22    1    3    3    0    0  0.12057661470E+02 -0.22648290453E+02 -0.24716388181E+02  0.35626283911E+02  0.00000000000E+00 0. -1.
         22    1    3    3    0    0  0.13128310761E+02  0.10130514971E+03  0.59368027039E+02  0.11815095656E+03  0.00000000000E+00 0. -1.
</event>
<event>
 7    1  0.5970484E-006  0.1048372E+03  0.7818608E-02  0.1281456E+00
          2   -1    0    0  502    0  0.00000000000E+00  0.00000000000E+00  0.14066350616E+04  0.14066350616E+04  0.00000000000E+00 0. -1.
          1   -1    0    0  501    0 -0.00000000000E+00 -0.00000000000E+00 -0.18659392820E+04  0.18659392820E+04  0.00000000000E+00 0. -1.
         25    2    1    2    0    0 -0.14455475628E+02 -0.54427713254E+02  0.10339019791E+02  0.13749129021E+03  0.12500249121E+03 0.  0.
          2    1    1    2  501    0 -0.89884309336E+02  0.28651611647E+02 -0.17989582967E+04  0.18014302810E+04  0.00000000000E+00 0. -1.
          1    1    1    2  502    0  0.10433978496E+03  0.25776101608E+02  0.13293150565E+04  0.13336527725E+04  0.00000000000E+00 0. -1.
         22    1    3    3    0    0  0.39460111852E+02 -0.29564978831E+02 -0.36927429524E+02  0.61602138371E+02  0.00000000000E+00 0.  1.
         22    1    3    3    0    0 -0.53915587480E+02 -0.24862734423E+02  0.47266449314E+02  0.75889151841E+02  0.00000000000E+00 0.  1.
</event>
<event>
 7    1  0.5970484E-006  0.6982738E+02  0.7818608E-02  0.1432105E+00
          2   -1    0    0  502    0  0.00000000000E+00  0.00000000000E+00  0.14644322460E+04  0.14644322460E+04  0.00000000000E+00 0. -1.
          1   -1    0    0  501    0 -0.00000000000E+00 -0.00000000000E+00 -0.36058561847E+03  0.36058561847E+03  0.00000000000E+00 0. -1.
         25    2    1    2    0    0  0.37171712097E+02 -0.64900491032E+01  0.58481022355E+02  0.14306738968E+03  0.12499756436E+03 0.  0.
          2    1    1    2  501    0  0.31117760027E+02  0.24382131405E+02 -0.31614694078E+03  0.31860899467E+03  0.00000000000E+00 0. -1.
          1    1    1    2  502    0 -0.68289472124E+02 -0.17892082302E+02  0.13615125459E+04  0.13633414801E+04  0.00000000000E+00 0. -1.
         22    1    3    3    0    0  0.79501987745E+02  0.12243646007E+02  0.53283036523E+02  0.96486034761E+02  0.00000000000E+00 0.  1.
         22    1    3    3    0    0 -0.42330275648E+02 -0.18733695111E+02  0.51979858325E+01  0.46581354914E+02  0.00000000000E+00 0.  1.
</event>
<event>
 7    1  0.5970484E-006  0.4520941E+03  0.7818608E-02  0.1176511E+00
          2   -1    0    0  502    0  0.00000000000E+00  0.00000000000E+00  0.14979820640E+04  0.14979820640E+04  0.00000000000E+00 0. -1.
          1   -1    0    0  501    0 -0.00000000000E+00 -0.00000000000E+00 -0.11638414783E+04  0.11638414783E+04  0.00000000000E+00 0. -1.
         25    2    1    2    0    0  0.46557152329E+03 -0.19617186077E+03 -0.27249946290E+02  0.52115985195E+03  0.12499915784E+03 0.  0.
          2    1    1    2  501    0 -0.40669279454E+03  0.16887845451E+03 -0.83420874572E+03  0.94330440101E+03  0.00000000000E+00 0. -1.
          1    1    1    2  502    0 -0.58878728753E+02  0.27293406267E+02  0.11955992777E+04  0.11973592893E+04  0.00000000000E+00 0. -1.
         22    1    3    3    0    0  0.34673357917E+03 -0.19604620889E+03 -0.45571623700E+02  0.40091777690E+03  0.00000000000E+00 0.  1.
         22    1    3    3    0    0  0.11883794412E+03 -0.12565187843E+00  0.18321677410E+02  0.12024207506E+03  0.00000000000E+00 0.  1.
</event>
<event>
 7    1  0.5970484E-006  0.7183155E+02  0.7818608E-02  0.1391375E+00
          2   -1    0    0  502    0  0.00000000000E+00  0.00000000000E+00  0.35742654005E+03  0.35742654005E+03  0.00000000000E+00 0. -1.
          1   -1    0    0  501    0 -0.00000000000E+00 -0.00000000000E+00 -0.84576713444E+02  0.84576713444E+02  0.00000000000E+00 0. -1.
         25    2    1    2    0    0  0.69856316637E+02  0.90549384841E+02  0.97069266612E+02  0.19526677951E+03  0.12501030594E+03 0.  0.
          2    1    1    2  501    0 -0.44869056805E+02 -0.44073035524E+02 -0.32538494953E+00  0.62894917078E+02  0.00000000000E+00 0. -1.
          1    1    1    2  502    0 -0.24987259832E+02 -0.46476349316E+02  0.17610594494E+03  0.18384155690E+03  0.00000000000E+00 0. -1.
         22    1    3    3    0    0  0.74310394266E+02  0.11486082789E+03  0.57032003287E+02  0.14821502582E+03  0.00000000000E+00 0. -1.
         22    1    3    3    0    0 -0.44540776295E+01 -0.24311443053E+02  0.40037263325E+02  0.47051753692E+02  0.00000000000E+00 0. -1.
</event>
<event>
 7    1  0.5970484E-006  0.2200952E+03  0.7818608E-02  0.1232981E+00
          2   -1    0    0  502    0  0.00000000000E+00  0.00000000000E+00  0.20813861200E+04  0.20813861200E+04  0.00000000000E+00 0. -1.
          1   -1    0    0  501    0 -0.00000000000E+00 -0.00000000000E+00 -0.68872479760E+02  0.68872479760E+02  0.00000000000E+00 0. -1.
         25    2    1    2    0    0  0.19394881439E+03  0.67245875765E+00  0.63973918480E+03  0.68007916437E+03  0.12499940178E+03 0.  0.
          2    1    1    2  501    0  0.32470845700E+02  0.64853993108E+02 -0.47024598395E+01  0.72680873488E+02  0.00000000000E+00 0. -1.
          1    1    1    2  502    0 -0.22641966009E+03 -0.65526451865E+02  0.13774769152E+04  0.13974985619E+04  0.00000000000E+00 0. -1.
         22    1    3    3    0    0  0.20189897219E+03  0.26084809757E+02  0.57948132790E+03  0.61420047351E+03  0.00000000000E+00 0.  1.
         22    1    3    3    0    0 -0.79501578009E+01 -0.25412351000E+02  0.60257856896E+02  0.65878690865E+02  0.00000000000E+00 0.  1.
</event>
<event>
 7    1  0.5970484E-006  0.8518209E+02  0.7818608E-02  0.1402078E+00
          2   -1    0    0  502    0  0.00000000000E+00  0.00000000000E+00  0.18167662509E+04  0.18167662509E+04  0.00000000000E+00 0. -1.
          1   -1    0    0  501    0 -0.00000000000E+00 -0.00000000000E+00 -0.18740073723E+02  0.18740073723E+02  0.00000000000E+00 0. -1.
         25    2    1    2    0    0 -0.51162718043E+02  0.32355231449E+02  0.47889818853E+03  0.49863459442E+03  0.12501399546E+03 0.  0.
          2    1    1    2  501    0  0.90519859267E+02 -0.43353570849E+02  0.28897204272E+03  0.30590557122E+03  0.00000000000E+00 0. -1.
          1    1    1    2  502    0 -0.39357141224E+02  0.10998339400E+02  0.10301559459E+04  0.10309661590E+04  0.00000000000E+00 0. -1.
         22    1    3    3    0    0 -0.11228493509E+02  0.74441397920E+02  0.33754195688E+03  0.34583547164E+03  0.00000000000E+00 0. -1.
         22    1    3    3    0    0 -0.39934224535E+02 -0.42086166471E+02  0.14135623165E+03  0.15279912278E+03  0.00000000000E+00 0. -1.
</event>
<event>
 7    1  0.5970484E-006  0.5897823E+02  0.7818608E-02  0.1471253E+00
          2   -1    0    0  502    0  0.00000000000E+00  0.00000000000E+00  0.15065009341E+04  0.15065009341E+04  0.00000000000E+00 0. -1.
          1   -1    0    0  501    0 -0.00000000000E+00 -0.00000000000E+00 -0.23282441316E+04  0.23282441316E+04  0.00000000000E+00 0. -1.
         25    2    1    2    0    0 -0.54290695755E+02 -0.32451183831E+02  0.17606571575E+03  0.22499998484E+03  0.12500119174E+03 0.  0.
          2    1    1    2  501    0  0.25851619039E+02  0.53023187684E+02 -0.23031634368E+04  0.23039187445E+04  0.00000000000E+00 0. -1.
          1    1    1    2  502    0  0.28439076717E+02 -0.20572003852E+02  0.13053545236E+04  0.13058263364E+04  0.00000000000E+00 0. -1.
         22    1    3    3    0    0 -0.60198945791E+02 -0.75485656014E+02  0.12538768040E+03  0.15825317607E+03  0.00000000000E+00 0. -1.
         22    1    3    3    0    0  0.59082500359E+01  0.43034472183E+02  0.50678035350E+02  0.66746808774E+02  0.00000000000E+00 0. -1.
</event>
<event>
 7    1  0.5970484E-006  0.9313527E+02  0.7818608E-02  0.1374486E+00
          2   -1    0    0  502    0  0.00000000000E+00  0.00000000000E+00  0.11420680239E+04  0.11420680239E+04  0.00000000000E+00 0. -1.
          1   -1    0    0  501    0 -0.00000000000E+00 -0.00000000000E+00 -0.51860381750E+03  0.51860381750E+03  0.00000000000E+00 0. -1.
         25    2    1    2    0    0 -0.81572323570E+02 -0.96880971938E+02  0.56015708479E+03  0.58774257439E+03  0.12500162965E+03 0.  0.
          2    1    1    2  501    0  0.36289502898E+02  0.85547696494E+02 -0.49956020954E+03  0.50812964817E+03  0.00000000000E+00 0. -1.
          1    1    1    2  502    0  0.45282820671E+02  0.11333275444E+02  0.56286733110E+03  0.56479961881E+03  0.00000000000E+00 0. -1.
         22    1    3    3    0    0 -0.34265675471E+02  0.26265829994E+02  0.97211112069E+02  0.10636743228E+03  0.00000000000E+00 0. -1.
         22    1    3    3    0    0 -0.47306648098E+02 -0.12314680193E+03  0.46294597272E+03  0.48137514210E+03  0.00000000000E+00 0. -1.
</event>
<event>
 7    1  0.5970484E-006  0.5191080E+02  0.7818608E-02  0.1454513E+00
          2   -1    0    0  502    0  0.00000000000E+00  0.00000000000E+00  0.12323890781E+03  0.12323890781E+03  0.00000000000E+00 0. -1.
          1   -1    0    0  501    0 -0.00000000000E+00 -0.00000000000E+00 -0.42880416780E+03  0.42880416780E+03  0.00000000000E+00 0. -1.
         25    2    1    2    0    0  0.89323174095E+02 -0.27713688643E+01 -0.26630277771E+03  0.30745427961E+03  0.12499861887E+03 0.  0.
          2    1    1    2  501    0 -0.44573700647E+02  0.76319821558E+01 -0.13306811710E+03  0.14054246949E+03  0.00000000000E+00 0. -1.
          1    1    1    2  502    0 -0.44749473447E+02 -0.48606132915E+01  0.93805634820E+02  0.10404632651E+03  0.00000000000E+00 0. -1.
         22    1    3    3    0    0  0.21777352393E+02 -0.60159831462E+02 -0.12960061400E+03  0.14453296354E+03  0.00000000000E+00 0. -1.
         22    1    3    3    0    0  0.67545821701E+02  0.57388462598E+02 -0.13670216371E+03  0.16292131607E+03  0.00000000000E+00 0. -1.
</event>
<event>
 7    1  0.5970484E-006  0.1096592E+03  0.7818608E-02  0.1385100E+00
          2   -1    0    0  502    0  0.00000000000E+00  0.00000000000E+00  0.68002791257E+03  0.68002791257E+03  0.00000000000E+00 0. -1.
          1   -1    0    0  501    0 -0.00000000000E+00 -0.00000000000E+00 -0.29686638546E+03  0.29686638546E+03  0.00000000000E+00 0. -1.
         25    2    1    2    0    0  0.53781947709E+02  0.70854449269E+02  0.66530796012E+02  0.16719213756E+03  0.12495604492E+03 0.  0.
          2    1    1    2  501    0 -0.89954435350E+02 -0.67193122382E+02 -0.23312017931E+03  0.25875033167E+03  0.00000000000E+00 0. -1.
          1    1    1    2  502    0  0.36172487641E+02 -0.36613268872E+01  0.54975091041E+03  0.55095182881E+03  0.00000000000E+00 0. -1.
         22    1    3    3    0    0 -0.38562774613E+02  0.40789263360E+01  0.10336716586E+02  0.40131944081E+02  0.00000000000E+00 0. -1.
         22    1    3    3    0    0  0.92344722322E+02  0.66775522933E+02  0.56194079425E+02  0.12706019348E+03  0.00000000000E+00 0. -1.
</event>
<event>
 7    1  0.5970484E-006  0.1936746E+03  0.7818608E-02  0.1185669E+00
          2   -1    0    0  502    0  0.00000000000E+00  0.00000000000E+00  0.33240156719E+03  0.33240156719E+03  0.00000000000E+00 0. -1.
          1   -1    0    0  501    0 -0.00000000000E+00 -0.00000000000E+00 -0.12024391665E+04  0.12024391665E+04  0.00000000000E+00 0. -1.
         25    2    1    2    0    0  0.16775671600E+03 -0.20388357217E+03 -0.66372988749E+03  0.72517114112E+03  0.12499997440E+03 0.  0.
          2    1    1    2  501    0 -0.36907526360E+02  0.16432204079E+03 -0.47730527186E+03  0.50614644239E+03  0.00000000000E+00 0. -1.
          1    1    1    2  502    0 -0.13084918964E+03  0.39561531377E+02  0.27099756000E+03  0.30352315023E+03  0.00000000000E+00 0. -1.
         22    1    3    3    0    0  0.66190683455E+02 -0.14279608407E+02 -0.24820219445E+03  0.25727309056E+03  0.00000000000E+00 0.  1.
         22    1    3    3    0    0  0.10156603255E+03 -0.18960396376E+03 -0.41552769304E+03  0.46789805057E+03  0.00000000000E+00 0.  1.
</event>
<event>
 7    1  0.5970484E-006  0.1602327E+03  0.7818608E-02  0.1295785E+00
          2   -1    0    0  502    0  0.00000000000E+00  0.00000000000E+00  0.14491559760E+04  0.14491559760E+04  0.00000000000E+00 0. -1.
          1   -1    0    0  501    0 -0.00000000000E+00 -0.00000000000E+00 -0.32806434602E+03  0.32806434602E+03  0.00000000000E+00 0. -1.
         25    2    1    2    0    0 -0.16216886457E+03  0.21274118335E+01 -0.84856631283E+01  0.20494001141E+03  0.12500054112E+03 0.  0.
          2    1    1    2  501    0  0.15344741707E+03  0.51120916385E+02 -0.19118177986E+03  0.25041950972E+03  0.00000000000E+00 0. -1.
          1    1    1    2  502    0  0.87214475067E+01 -0.53248328218E+02  0.13207590729E+04  0.13218608009E+04  0.00000000000E+00 0. -1.
         22    1    3    3    0    0 -0.12241637203E+03  0.23353601899E+02  0.47236402611E+02  0.13327579148E+03  0.00000000000E+00 0. -1.
         22    1    3    3    0    0 -0.39752492542E+02 -0.21226190066E+02 -0.55722065739E+02  0.71664219930E+02  0.00000000000E+00 0. -1.
</event>
<event>
 7    1  0.5970484E-006  0.8212434E+02  0.7818608E-02  0.1456178E+00
          2   -1    0    0  502    0  0.00000000000E+00  0.00000000000E+00  0.48440971837E+03  0.48440971837E+03  0.00000000000E+00 0. -1.
          1   -1    0    0  501    0 -0.00000000000E+00 -0.00000000000E+00 -0.31975614947E+03  0.31975614947E+03  0.00000000000E+00 0. -1.
         25    2    1    2    0    0  0.51283805758E+02  0.19460197589E+02 -0.12542999333E+03  0.18537775134E+03  0.12499399762E+03 0.  0.
          2    1    1    2  501    0  0.24690279184E+02  0.13433534947E+02 -0.15934130997E+03  0.16180149199E+03  0.00000000000E+00 0. -1.
          1    1    1    2  502    0 -0.75974084942E+02 -0.32893732536E+02  0.44942487221E+03  0.45698662451E+03  0.00000000000E+00 0. -1.
         22    1    3    3    0    0  0.33392130092E+01  0.65866580963E+02 -0.84153831431E+02  0.10691783844E+03  0.00000000000E+00 0. -1.
         22    1    3    3    0    0  0.47944592748E+02 -0.46406383374E+02 -0.41276161898E+02  0.78459912903E+02  0.00000000000E+00 0. -1.
</event>
<event>
 7    1  0.5970484E-006  0.1136960E+03  0.7818608E-02  0.1264898E+00
          2   -1    0    0  502    0  0.00000000000E+00  0.00000000000E+00  0.77604974927E+03  0.77604974927E+03  0.00000000000E+00 0. -1.
          1   -1    0    0  501    0 -0.00000000000E+00 -0.00000000000E+00 -0.13024095485E+04  0.13024095485E+04  0.00000000000E+00 0. -1.
         25    2    1    2    0    0  0.15958253519E+02 -0.75052174846E+02  0.39156408229E+02  0.15180884243E+03  0.12500082212E+03 0.  0.
          2    1    1    2  501    0 -0.10155721886E+03 -0.96145037707E+01 -0.12386452495E+04  0.12428388317E+04  0.00000000000E+00 0. -1.
          1    1    1    2  502    0  0.85598965343E+02  0.84666678616E+02  0.67312904208E+03  0.68381162364E+03  0.00000000000E+00 0. -1.
         22    1    3    3    0    0  0.41114519484E+02 -0.43549374121E+02 -0.33568665923E+02  0.68657170278E+02  0.00000000000E+00 0.  1.
         22    1    3    3    0    0 -0.25156265965E+02 -0.31502800725E+02  0.72725074152E+02  0.83151672149E+02  0.00000000000E+00 0.  1.
</event>
<event>
 7    1  0.5970484E-006  0.5641099E+03  0.7818608E-02  0.1101346E+00
          2   -1    0    0  502    0  0.00000000000E+00  0.00000000000E+00  0.69937897006E+03  0.69937897006E+03  0.00000000000E+00 0. -1.
          1   -1    0    0  501    0 -0.00000000000E+00 -0.00000000000E+00 -0.85116382602E+03  0.85116382602E+03  0.00000000000E+00 0. -1.
         25    2    1    2    0    0 -0.56156653016E+03  0.30283961092E+02 -0.14504600753E+03  0.59408563058E+03  0.12500122427E+03 0.  0.
          2    1    1    2  501    0  0.14419616261E+02  0.12831217732E+03 -0.29206098614E+03  0.31932986050E+03  0.00000000000E+00 0. -1.
          1    1    1    2  502    0  0.54714691390E+03 -0.15859613841E+03  0.28532213771E+03  0.63712730500E+03  0.00000000000E+00 0. -1.
         22    1    3    3    0    0 -0.51112317572E+03  0.44789580710E+02 -0.95473974010E+02  0.52188915203E+03  0.00000000000E+00 0.  1.
         22    1    3    3    0    0 -0.50443354444E+02 -0.14505619618E+02 -0.49572033516E+02  0.72196478550E+02  0.00000000000E+00 0.  1.
</event>
<event>
 7    1  0.5970484E-006  0.1683919E+03  0.7818608E-02  0.1254596E+00
          2   -1    0    0  502    0  0.00000000000E+00  0.00000000000E+00  0.97249679892E+02  0.97249679892E+02  0.00000000000E+00 0. -1.
          1   -1    0    0  501    0 -0.00000000000E+00 -0.00000000000E+00 -0.19228510662E+04  0.19228510662E+04  0.00000000000E+00 0. -1.
         25    2    1    2    0    0  0.37336117644E+02  0.17895536701E+03 -0.34803875735E+03  0.41252396397E+03  0.12500414064E+03 0.  0.
          2    1    1    2  501    0  0.37437542477E+02 -0.16418254470E+03 -0.15138312281E+04  0.15231685608E+04  0.00000000000E+00 0. -1.
          1    1    1    2  502    0 -0.74773660121E+02 -0.14772822307E+02  0.36268599173E+02  0.84408221239E+02  0.00000000000E+00 0. -1.
         22    1    3    3    0    0 -0.36864689491E+02  0.12122835922E+03 -0.21629035294E+03  0.25067276914E+03  0.00000000000E+00 0. -1.
         22    1    3    3    0    0  0.74200807135E+02  0.57727007781E+02 -0.13174840441E+03  0.16185119484E+03  0.00000000000E+00 0. -1.
</event>
<event>
 7    1  0.5970484E-006  0.8032101E+02  0.7818608E-02  0.1477501E+00
          2   -1    0    0  502    0  0.00000000000E+00  0.00000000000E+00  0.16900898707E+04  0.16900898707E+04  0.00000000000E+00 0. -1.
          1   -1    0    0  501    0 -0.00000000000E+00 -0.00000000000E+00 -0.42492072195E+02  0.42492072195E+02  0.00000000000E+00 0. -1.
         25    2    1    2    0    0  0.26152349623E+02  0.50404055131E+02  0.98453349764E+03  0.99406240877E+03  0.12501740035E+03 0.  0.
          2    1    1    2  501    0 -0.39356820024E+02 -0.71221264642E+02  0.66510264848E+01  0.81643517641E+02  0.00000000000E+00 0. -1.
          1    1    1    2  502    0  0.13204470401E+02  0.20817209510E+02  0.65641327434E+03  0.65687601644E+03  0.00000000000E+00 0. -1.
         22    1    3    3    0    0 -0.87512986376E+01  0.71369088236E+02  0.30705654881E+03  0.31536305451E+03  0.00000000000E+00 0. -1.
         22    1    3    3    0    0  0.34903648261E+02 -0.20965033105E+02  0.67747694883E+03  0.67869935426E+03  0.00000000000E+00 0. -1.
</event>
<event>
 7    1  0.5970484E-006  0.7283046E+02  0.7818608E-02  0.1491952E+00
          2   -1    0    0  502    0  0.00000000000E+00  0.00000000000E+00  0.51669489864E+03  0.51669489864E+03  0.00000000000E+00 0. -1.
          1   -1    0    0  501    0 -0.00000000000E+00 -0.00000000000E+00 -0.70141691117E+03  0.70141691117E+03  0.00000000000E+00 0. -1.
         25    2    1    2    0    0  0.55328476780E+02  0.88947929019E+01  0.96030753070E+01  0.13732307498E+03  0.12500020073E+03 0.  0.
          2    1    1    2  501    0 -0.66639203839E+02 -0.30701289350E+02 -0.63510284586E+03  0.63932697228E+03  0.00000000000E+00 0. -1.
          1    1    1    2  502    0  0.11310727059E+02  0.21806496448E+02  0.44077775802E+03  0.44146176256E+03  0.00000000000E+00 0. -1.
         22    1    3    3    0    0  0.81527610782E+02 -0.11907203441E+02 -0.27974522428E+02  0.87012106736E+02  0.00000000000E+00 0. -1.
         22    1    3    3    0    0 -0.26199134002E+02  0.20801996343E+02  0.37577597735E+02  0.50310968246E+02  0.00000000000E+00 0. -1.
</event>
<event>
 7    1  0.5970484E-006  0.6778101E+02  0.7818608E-02  0.1387560E+00
          2   -1    0    0  502    0  0.00000000000E+00  0.00000000000E+00  0.67674507256E+03  0.67674507256E+03  0.00000000000E+00 0. -1.
          1   -1    0    0  501    0 -0.00000000000E+00 -0.00000000000E+00 -0.23689067872E+04  0.23689067872E+04  0.00000000000E+00 0. -1.
         25    2    1    2    0    0 -0.59249662326E+02 -0.78946895536E+01  0.19564519952E+03  0.23973911145E+03  0.12499979543E+03 0.  0.
          2    1    1    2  501    0  0.47411845681E+02 -0.48540347183E+02 -0.23445562470E+04  0.23455379007E+04  0.00000000000E+00 0. -1.
          1    1    1    2  502    0  0.11837816646E+02  0.56435036736E+02  0.45674933282E+03  0.46037484761E+03  0.00000000000E+00 0. -1.
         22    1    3    3    0    0  0.32698837701E+02 -0.11698420715E+02  0.16740052262E+02  0.38552514625E+02  0.00000000000E+00 0. -1.
         22    1    3    3    0    0 -0.91948500027E+02  0.38037311618E+01  0.17890514725E+03  0.20118659683E+03  0.00000000000E+00 0. -1.
</event>
<event>
 7    1  0.7825799E-006  0.5459195E+02  0.7818608E-02  0.1523357E+00
          2   -1    0    0  502    0  0.00000000000E+00  0.00000000000E+00  0.11422740298E+04  0.11422740298E+04  0.00000000000E+00 0. -1.
          1   -1    0    0  501    0 -0.00000000000E+00 -0.00000000000E+00 -0.17324481457E+04  0.17324481457E+04  0.00000000000E+00 0. -1.
         25    2    1    2    0    0  0.26549249417E+02 -0.10224710723E+02 -0.32986201370E+03  0.35389695114E+03  0.12499878637E+03 0.  0.
          2    1    1    2  501    0  0.26104941888E+02 -0.43822127347E+01 -0.13897821301E+04  0.13900341870E+04  0.00000000000E+00 0. -1.
          1    1    1    2  502    0 -0.52654191306E+02  0.14606923457E+02  0.11294700280E+04  0.11307910373E+04  0.00000000000E+00 0. -1.
         22    1    3    3    0    0  0.70742492711E+02  0.20627227638E+02 -0.20730968871E+03  0.22001656717E+03  0.00000000000E+00 0.  1.
         22    1    3    3    0    0 -0.44193243294E+02 -0.30851938361E+02 -0.12255232499E+03  0.13388038398E+03  0.00000000000E+00 0.  1.
</event>
<event>
 7    1  0.5970484E-006  0.1522494E+03  0.7818608E-02  0.1357789E+00
          2   -1    0    0  502    0  0.00000000000E+00  0.00000000000E+00  0.30484612816E+03  0.30484612816E+03  0.00000000000E+00 0. -1.
          1   -1    0    0  501    0 -0.00000000000E+00 -0.00000000000E+00 -0.13329982731E+04  0.13329982731E+04  0.00000000000E+00 0. -1.
         25    2    1    2    0    0  0.40761449018E+02  0.17547940747E+03 -0.45265343194E+03  0.50296500670E+03  0.12499660135E+03 0.  0.
          2    1    1    2  501    0  0.68531738571E+01 -0.32090583628E+02 -0.83443875353E+03  0.83508371133E+03  0.00000000000E+00 0. -1.
          1    1    1    2  502    0 -0.47614622875E+02 -0.14338882384E+03  0.25894004051E+03  0.29979568324E+03  0.00000000000E+00 0. -1.
         22    1    3    3    0    0  0.60170244975E+02  0.17684071591E+03 -0.33364741589E+03  0.38237899434E+03  0.00000000000E+00 0.  1.
         22    1    3    3    0    0 -0.19408795957E+02 -0.13613084402E+01 -0.11900601605E+03  0.12058601236E+03  0.00000000000E+00 0.  1.
</event>
<event>
 7    1  0.5970484E-006  0.2920634E+03  0.7818608E-02  0.1153128E+00
          2   -1    0    0  502    0  0.00000000000E+00  0.00000000000E+00  0.92491052864E+03  0.92491052864E+03  0.00000000000E+00 0. -1.
          1   -1    0    0  501    0 -0.00000000000E+00 -0.00000000000E+00 -0.44521561284E+03  0.44521561284E+03  0.00000000000E+00 0. -1.
         25    2    1    2    0    0 -0.37584919039E+03  0.15256130629E+03  0.33178348879E+03  0.53874209570E+03  0.12500078461E+03 0.  0.
          2    1    1    2  501    0  0.24708733806E+03 -0.12547687147E+03 -0.27383272337E+03  0.38959075745E+03  0.00000000000E+00 0. -1.
          1    1    1    2  502    0  0.12876185233E+03 -0.27084434827E+02  0.42174415039E+03  0.44179328833E+03  0.00000000000E+00 0. -1.
         22    1    3    3    0    0 -0.27040516920E+03  0.16599211482E+03  0.23322112626E+03  0.39378221321E+03  0.00000000000E+00 0. -1.
         22    1    3    3    0    0 -0.10544402120E+03 -0.13430808528E+02  0.98562362531E+02  0.14495988249E+03  0.00000000000E+00 0. -1.
</event>
<event>
 7    1  0.5970484E-006  0.3357281E+03  0.7818608E-02  0.1201492E+00
          2   -1    0    0  502    0  0.00000000000E+00  0.00000000000E+00  0.95186861131E+03  0.95186861131E+03  0.00000000000E+00 0. -1.
          1   -1    0    0  501    0 -0.00000000000E+00 -0.00000000000E+00 -0.13655460098E+04  0.13655460098E+04  0.00000000000E+00 0. -1.
         25    2    1    2    0    0  0.14682688822E+03 -0.29825162843E+03  0.34689839098E+03  0.49646276175E+03  0.12499844467E+03 0.  0.
          2    1    1    2  501    0  0.60293802813E+02  0.27531977451E+02 -0.12349968567E+04  0.12367742674E+04  0.00000000000E+00 0. -1.
          1    1    1    2  502    0 -0.20712069103E+03  0.27071965098E+03  0.47442106715E+03  0.58417759204E+03  0.00000000000E+00 0. -1.
         22    1    3    3    0    0  0.12737264815E+02  0.10169547441E+02  0.54091573009E+01  0.17173135789E+02  0.00000000000E+00 0. -1.
         22    1    3    3    0    0  0.13408962340E+03 -0.30842117587E+03  0.34148923368E+03  0.47928962596E+03  0.00000000000E+00 0. -1.
</event>
<event>
 7    1  0.5970484E-006  0.5734674E+02  0.7818608E-02  0.1422375E+00
          2   -1    0    0  502    0  0.00000000000E+00  0.00000000000E+00  0.13382653744E+04  0.13382653744E+04  0.00000000000E+00 0. -1.
          1   -1    0    0  501    0 -0.00000000000E+00 -0.00000000000E+00 -0.56071263173E+03  0.56071263173E+03  0.00000000000E+00 0. -1.
         25    2    1    2    0    0  0.25628613911E+02  0.68316545157E+00  0.14153422975E+03  0.19055978236E+03  0.12499519949E+03 0.  0.
          2    1    1    2  501    0 -0.24132188144E+02 -0.52497206278E+02 -0.53406790908E+03  0.53718418692E+03  0.00000000000E+00 0. -1.
          1    1    1    2  502    0 -0.14964257675E+01  0.51814040826E+02  0.11700864220E+04  0.11712340368E+04  0.00000000000E+00 0. -1.
         22    1    3    3    0    0  0.58210874026E+02 -0.76450040037E+01  0.14530632779E+03  0.15671911446E+03  0.00000000000E+00 0.  1.
         22    1    3    3    0    0 -0.32582260115E+02  0.83281694553E+01 -0.37720980327E+01  0.33840667905E+02  0.00000000000E+00 0.  1.
</event>
<event>
 7    1  0.5970484E-006  0.1481617E+03  0.7818608E-02  0.1295365E+00
          2   -1    0    0  502    0  0.00000000000E+00  0.00000000000E+00  0.22969104882E+03  0.22969104882E+03  0.00000000000E+00 0. -1.
          1   -1    0    0  501    0 -0.00000000000E+00 -0.00000000000E+00 -0.15820751372E+04  0.15820751372E+04  0.00000000000E+00 0. -1.
         25    2    1    2    0    0 -0.98613399042E+02 -0.11035963565E+02 -0.30824386555E+03  0.34710995075E+03  0.12499856918E+03 0.  0.
          2    1    1    2  501    0 -0.53260212488E+02  0.24395661701E+02 -0.12259690097E+04  0.12273678386E+04  0.00000000000E+00 0. -1.
          1    1    1    2  502    0  0.15187361153E+03 -0.13359698137E+02  0.18182878691E+03  0.23728839660E+03  0.00000000000E+00 0. -1.
         22    1    3    3    0    0 -0.89709831429E+02  0.21863390541E+02 -0.29730677883E+03  0.31131524607E+03  0.00000000000E+00 0. -1.
         22    1    3    3    0    0 -0.89035676127E+01 -0.32899354106E+02 -0.10937086725E+02  0.35794704676E+02  0.00000000000E+00 0. -1.
</event>
<event>
 7    1  0.5970484E-006  0.7441619E+02  0.7818608E-02  0.1381505E+00
          2   -1    0    0  502    0  0.00000000000E+00  0.00000000000E+00  0.72284933297E+03  0.72284933297E+03  0.00000000000E+00 0. -1.
          1   -1    0    0  501    0 -0.00000000000E+00 -0.00000000000E+00 -0.15927394465E+04  0.15927394465E+04  0.00000000000E+00 0. -1.
         25    2    1    2    0    0  0.27201206737E+02 -0.22092803426E+02 -0.98655442874E+01  0.13019285366E+03  0.12499941027E+03 0.  0.
          2    1    1    2  501    0  0.48611305044E+02  0.26072450292E+02 -0.15200340661E+04  0.15210346458E+04  0.00000000000E+00 0. -1.
          1    1    1    2  502    0 -0.75812511781E+02 -0.39796468660E+01  0.66000949682E+03  0.66436128004E+03  0.00000000000E+00 0. -1.
         22    1    3    3    0    0 -0.28131970122E+02 -0.54245820791E+02  0.12553776883E+02  0.62382803161E+02  0.00000000000E+00 0.  1.
         22    1    3    3    0    0  0.55333176859E+02  0.32153017364E+02 -0.22419321170E+02  0.67810050499E+02  0.00000000000E+00 0.  1.
</event>
<event>
 7    1  0.5970484E-006  0.7037347E+02  0.7818608E-02  0.1429559E+00
          2   -1    0    0  502    0  0.00000000000E+00  0.00000000000E+00  0.20247506281E+04  0.20247506281E+04  0.00000000000E+00 0. -1.
          1   -1    0    0  501    0 -0.00000000000E+00 -0.00000000000E+00 -0.27658439497E+02  0.27658439497E+02  0.00000000000E+00 0. -1.
         25    2    1    2    0    0 -0.27830385360E+02 -0.76440958431E+02  0.14314657237E+04  0.14392147952E+04  0.12500943181E+03 0.  0.
          2    1    1    2  501    0 -0.11531727990E+02  0.69388839587E+02  0.30654775963E+02  0.76730092526E+02  0.00000000000E+00 0. -1.
          1    1    1    2  502    0  0.39362113351E+02  0.70521188442E+01  0.53497168891E+03  0.53646417987E+03  0.00000000000E+00 0. -1.
         22    1    3    3    0    0 -0.69188274296E+02 -0.22239382855E+02  0.97264037209E+03  0.97535168061E+03  0.00000000000E+00 0.  1.
         22    1    3    3    0    0  0.41357888935E+02 -0.54201575576E+02  0.45882535166E+03  0.46386311461E+03  0.00000000000E+00 0.  1.
</event>
<event>
 7    1  0.5970484E-006  0.1045174E+03  0.7818608E-02  0.1305493E+00
          2   -1    0    0  502    0  0.00000000000E+00  0.00000000000E+00  0.41215120497E+03  0.41215120497E+03  0.00000000000E+00 0. -1.
          1   -1    0    0  501    0 -0.00000000000E+00 -0.00000000000E+00 -0.37294498279E+03  0.37294498279E+03  0.00000000000E+00 0. -1.
         25    2    1    2    0    0 -0.16266592249E+02 -0.57124349745E+02  0.66079977547E+02  0.15334635142E+03  0.12498298565E+03 0.  0.
          2    1    1    2  501    0  0.49589884966E+02 -0.57125418525E+02 -0.31292003994E+03  0.32193387757E+03  0.00000000000E+00 0. -1.
          1    1    1    2  502    0 -0.33323292717E+02  0.11424976827E+03  0.28604628458E+03  0.30981595877E+03  0.00000000000E+00 0. -1.
         22    1    3    3    0    0  0.26742144963E+02 -0.79872115232E+02  0.61868671041E+02  0.10451042802E+03  0.00000000000E+00 0. -1.
         22    1    3    3    0    0 -0.43008737212E+02  0.22747765487E+02  0.42113065059E+01  0.48835923394E+02  0.00000000000E+00 0. -1.
</event>
<event>
 7    1  0.5970484E-006  0.5756479E+02  0.7818608E-02  0.1437285E+00
          2   -1    0    0  502    0  0.00000000000E+00  0.00000000000E+00  0.11784648622E+04  0.11784648622E+04  0.00000000000E+00 0. -1.
          1   -1    0    0  501    0 -0.00000000000E+00 -0.00000000000E+00 -0.27739144930E+03  0.27739144930E+03  0.00000000000E+00 0. -1.
         25    2    1    2    0    0  0.30557152238E+02 -0.35309481080E+01  0.36156938313E+03  0.38380040729E+03  0.12499650663E+03 0.  0.
          2    1    1    2  501    0  0.16320009182E+02  0.43135131926E+02 -0.26309880551E+03  0.26711039622E+03  0.00000000000E+00 0. -1.
          1    1    1    2  502    0 -0.46877161420E+02 -0.39604183818E+02  0.80260283525E+03  0.80494550796E+03  0.00000000000E+00 0. -1.
         22    1    3    3    0    0 -0.47134421839E+02 -0.14286502365E+02  0.11640945498E+03  0.12639983814E+03  0.00000000000E+00 0. -1.
         22    1    3    3    0    0  0.77691574077E+02  0.10755554257E+02  0.24515992815E+03  0.25740056915E+03  0.00000000000E+00 0. -1.
</event>
<event>
 7    1  0.5970484E-006  0.7646815E+02  0.7818608E-02  0.1400112E+00
          2   -1    0    0  502    0  0.00000000000E+00  0.00000000000E+00  0.33223592001E+04  0.33223592001E+04  0.00000000000E+00 0. -1.
          1   -1    0    0  501    0 -0.00000000000E+00 -0.00000000000E+00 -0.64313688933E+03  0.64313688933E+03  0.00000000000E+00 0. -1.
         25    2    1    2    0    0  0.49927058615E+02 -0.51505257331E+02  0.50280293921E+02  0.15263859411E+03  0.12499971897E+03 0.  0.
          2    1    1    2  501    0 -0.39281961746E+02 -0.24384061564E+02 -0.59059831248E+03  0.59240528499E+03  0.00000000000E+00 0. -1.
          1    1    1    2  502    0 -0.10645096869E+02  0.75889318896E+02  0.32195403293E+04  0.32204522103E+04  0.00000000000E+00 0. -1.
         22    1    3    3    0    0  0.14257493988E+02  0.21865254544E+02 -0.28904787473E+02  0.38946787158E+02  0.00000000000E+00 0. -1.
         22    1    3    3    0    0  0.35669564627E+02 -0.73370511875E+02  0.79185081394E+02  0.11369180696E+03  0.00000000000E+00 0. -1.
</event>
<event>
 7    1  0.5970484E-006  0.1392324E+03  0.7818608E-02  0.1370401E+00
          2   -1    0    0  502    0  0.00000000000E+00  0.00000000000E+00  0.13508567407E+03  0.13508567407E+03  0.00000000000E+00 0. -1.
          1   -1    0    0  501    0 -0.00000000000E+00 -0.00000000000E+00 -0.75443742187E+03  0.75443742187E+03  0.00000000000E+00 0. -1.
         25    2    1    2    0    0  0.57153430141E+02 -0.15132560581E+03 -0.17361037559E+03  0.26819878074E+03  0.12499627964E+03 0.  0.
          2    1    1    2  501    0 -0.24328194623E+02  0.21238969473E+02 -0.48141610822E+03  0.48249810791E+03  0.00000000000E+00 0. -1.
          1    1    1    2  502    0 -0.32825235518E+02  0.13008663634E+03  0.35674736018E+02  0.13882620729E+03  0.00000000000E+00 0. -1.
         22    1    3    3    0    0  0.51338126522E+02 -0.16821195940E+03 -0.12323284622E+03  0.21474915811E+03  0.00000000000E+00 0. -1.
         22    1    3    3    0    0  0.58153036197E+01  0.16886353587E+02 -0.50377529370E+02  0.53449622628E+02  0.00000000000E+00 0. -1.
</event>
<event>
 7    1  0.5970484E-006  0.6779165E+02  0.7818608E-02  0.1381936E+00
          2   -1    0    0  502    0  0.00000000000E+00  0.00000000000E+00  0.81521219998E+03  0.81521219998E+03  0.00000000000E+00 0. -1.
          1   -1    0    0  501    0 -0.00000000000E+00 -0.00000000000E+00 -0.28520345969E+03  0.28520345969E+03  0.00000000000E+00 0. -1.
         25    2    1    2    0    0  0.52589377549E+02 -0.45847395388E+02  0.19019765540E+03  0.23804819181E+03  0.12499666879E+03 0.  0.
          2    1    1    2  501    0 -0.67104022685E+02 -0.12721265509E+02 -0.25526283693E+03  0.26424211696E+03  0.00000000000E+00 0. -1.
          1    1    1    2  502    0  0.14514645136E+02  0.58568660897E+02  0.59507392182E+03  0.59812535090E+03  0.00000000000E+00 0. -1.
         22    1    3    3    0    0 -0.24221584517E+02 -0.59917456272E+02  0.95387562784E+02  0.11521967652E+03  0.00000000000E+00 0. -1.
         22    1    3    3    0    0  0.76810962066E+02  0.14070060884E+02  0.94810092618E+02  0.12282851529E+03  0.00000000000E+00 0. -1.
</event>
<event>
 7    1  0.5970484E-006  0.3894063E+02  0.7818608E-02  0.1566559E+00
          2   -1    0    0  502    0  0.00000000000E+00  0.00000000000E+00  0.17921686420E+04  0.17921686420E+04  0.00000000000E+00 0. -1.
          1   -1    0    0  501    0 -0.00000000000E+00 -0.00000000000E+00 -0.15101891207E+03  0.15101891207E+03  0.00000000000E+00 0. -1.
         25    2    1    2    0    0 -0.30809451223E+02  0.57481634363E+02  0.22310948441E+03  0.26392382423E+03  0.12499832954E+03 0.  0.
          2    1    1    2  501    0  0.24056638830E+02 -0.30242989595E+02 -0.12762318692E+03  0.13334555910E+03  0.00000000000E+00 0. -1.
          1    1    1    2  502    0  0.67528123931E+01 -0.27238644768E+02  0.15456634325E+04  0.15459181708E+04  0.00000000000E+00 0. -1.
         22    1    3    3    0    0  0.13680964135E+02  0.78401245180E+02  0.81022902163E+02  0.11357215636E+03  0.00000000000E+00 0.  1.
         22    1    3    3    0    0 -0.44490415358E+02 -0.20919610816E+02  0.14208658225E+03  0.15035166787E+03  0.00000000000E+00 0.  1.
</event>
<event>
 7    1  0.5970484E-006  0.1728230E+03  0.7818608E-02  0.1257799E+00
          2   -1    0    0  502    0  0.00000000000E+00  0.00000000000E+00  0.56433576195E+03  0.56433576195E+03  0.00000000000E+00 0. -1.
          1   -1    0    0  501    0 -0.00000000000E+00 -0.00000000000E+00 -0.74620554059E+03  0.74620554059E+03  0.00000000000E+00 0. -1.
         25    2    1    2    0    0  0.10343618722E+03  0.21705659892E+03 -0.43192363392E+03  0.50989849995E+03  0.12500337097E+03 0.  0.
          2    1    1    2  501    0 -0.16393505236E+02 -0.70056512537E+02 -0.25632036181E+03  0.26622695175E+03  0.00000000000E+00 0. -1.
          1    1    1    2  502    0 -0.87042681981E+02 -0.14700008639E+03  0.50637421710E+03  0.53441585083E+03  0.00000000000E+00 0. -1.
         22    1    3    3    0    0  0.86391827384E+02  0.22688359301E+03 -0.42420678834E+03  0.48876488406E+03  0.00000000000E+00 0. -1.
         22    1    3    3    0    0  0.17044359833E+02 -0.98269940873E+01 -0.77168455758E+01  0.21133615889E+02  0.00000000000E+00 0. -1.
</event>
<event>
 7    1  0.5970484E-006  0.5876229E+03  0.7818608E-02  0.1257439E+00
          2   -1    0    0  502    0  0.00000000000E+00  0.00000000000E+00  0.96282020814E+03  0.96282020814E+03  0.00000000000E+00 0. -1.
          1   -1    0    0  501    0 -0.00000000000E+00 -0.00000000000E+00 -0.10484477346E+04  0.10484477346E+04  0.00000000000E+00 0. -1.
         25    2    1    2    0    0  0.58863986050E+02  0.58114894579E+03 -0.61461300770E+03  0.85707267750E+03  0.12500143690E+03 0.  0.
          2    1    1    2  501    0 -0.42356946452E+02 -0.59450876849E+03 -0.28126161635E+02  0.59667903239E+03  0.00000000000E+00 0. -1.
          1    1    1    2  502    0 -0.16507039598E+02  0.13359822694E+02  0.55711164290E+03  0.55751623283E+03  0.00000000000E+00 0. -1.
         22    1    3    3    0    0  0.95713115911E+02  0.40508822238E+03 -0.45389957572E+03  0.61585898817E+03  0.00000000000E+00 0.  1.
         22    1    3    3    0    0 -0.36849129861E+02  0.17606072342E+03 -0.16071343198E+03  0.24121368933E+03  0.00000000000E+00 0.  1.
</event>
<event>
 7    1  0.5970484E-006  0.3689417E+02  0.7818608E-02  0.1555465E+00
          2   -1    0    0  502    0  0.00000000000E+00  0.00000000000E+00  0.13610533104E+02  0.13610533104E+02  0.00000000000E+00 0. -1.
          1   -1    0    0  501    0 -0.00000000000E+00 -0.00000000000E+00 -0.10340291635E+04  0.10340291635E+04  0.00000000000E+00 0. -1.
         25    2    1    2    0    0  0.17849125288E+02  0.36000139122E+02 -0.56502518829E+03  0.58009149337E+03  0.12505229302E+03 0.  0.
          2    1    1    2  501    0 -0.36483798920E+02 -0.10263364476E+02 -0.41213489921E+03  0.41387386892E+03  0.00000000000E+00 0. -1.
          1    1    1    2  502    0  0.18634673632E+02 -0.25736774646E+02 -0.43258542947E+02  0.53674334356E+02  0.00000000000E+00 0. -1.
         22    1    3    3    0    0  0.18762748005E+02  0.26532562632E+02 -0.27751540293E+02  0.42733658644E+02  0.00000000000E+00 0. -1.
         22    1    3    3    0    0 -0.91362271684E+00  0.94675764905E+01 -0.53727364800E+03  0.53735783473E+03  0.00000000000E+00 0. -1.
</event>
<event>
 7    1  0.5970484E-006  0.1070521E+03  0.7818608E-02  0.1418097E+00
          2   -1    0    0  502    0  0.00000000000E+00  0.00000000000E+00  0.15029667311E+03  0.15029667311E+03  0.00000000000E+00 0. -1.
          1   -1    0    0  501    0 -0.00000000000E+00 -0.00000000000E+00 -0.15997833078E+03  0.15997833078E+03  0.00000000000E+00 0. -1.
         25    2    1    2    0    0  0.95004025442E+02 -0.14296760032E+02  0.19039836817E+02  0.15879795205E+03  0.12499644792E+03 0.  0.
          2    1    1    2  501    0  0.17172823414E+02 -0.22990672117E+02 -0.15259801795E+02  0.32501360267E+02  0.00000000000E+00 0. -1.
          1    1    1    2  502    0 -0.11217684886E+03  0.37287432150E+02 -0.13461692695E+02  0.11897569157E+03  0.00000000000E+00 0. -1.
         22    1    3    3    0    0  0.24967195855E+02  0.53990454163E+02  0.12345384207E+02  0.60751448714E+02  0.00000000000E+00 0.  1.
         22    1    3    3    0    0  0.70036829586E+02 -0.68287214196E+02  0.66944526099E+01  0.98046503338E+02  0.00000000000E+00 0.  1.
</event>
<event>
 7    1  0.5970484E-006  0.1119079E+03  0.7818608E-02  0.1297636E+00
          2   -1    0    0  502    0  0.00000000000E+00  0.00000000000E+00  0.13970107153E+04  0.13970107153E+04  0.00000000000E+00 0. -1.
          1   -1    0    0  501    0 -0.00000000000E+00 -0.00000000000E+00 -0.47571026594E+02  0.47571026594E+02  0.00000000000E+00 0. -1.
         25    2    1    2    0    0 -0.16979522737E+03  0.97032012164E+01  0.80243522565E+03  0.82973283584E+03  0.12501886319E+03 0.  0.
          2    1    1    2  501    0  0.75906038769E+02 -0.24203554091E+01  0.18694674887E+02  0.78211736403E+02  0.00000000000E+00 0. -1.
          1    1    1    2  502    0  0.93889188598E+02 -0.72828458074E+01  0.52830978816E+03  0.53663716964E+03  0.00000000000E+00 0. -1.
         22    1    3    3    0    0 -0.16276322801E+03  0.44882293032E+02  0.72486502145E+03  0.74426849183E+03  0.00000000000E+00 0.  1.
         22    1    3    3    0    0 -0.70319993587E+01 -0.35179091816E+02  0.77570204203E+02  0.85464344004E+02  0.00000000000E+00 0.  1.
</event>
<event>
 7    1  0.5970484E-006  0.8231137E+02  0.7818608E-02  0.1429987E+00
          2   -1    0    0  502    0  0.00000000000E+00  0.00000000000E+00  0.14670888370E+04  0.14670888370E+04  0.00000000000E+00 0. -1.
          1   -1    0    0  501    0 -0.00000000000E+00 -0.00000000000E+00 -0.13751627566E+03  0.13751627566E+03  0.00000000000E+00 0. -1.
         25    2    1    2    0    0  0.30617411239E+02  0.68294424938E+02 -0.19341389082E+02  0.14697714153E+03  0.12500654564E+03 0.  0.
          2    1    1    2  501    0 -0.30968690057E+02  0.14222160442E+02 -0.47675569365E+02  0.58602811586E+02  0.00000000000E+00 0. -1.
          1    1    1    2  502    0  0.35127881810E+00 -0.82516585380E+02  0.13965895198E+04  0.13990251595E+04  0.00000000000E+00 0. -1.
         22    1    3    3    0    0  0.15208283166E+02  0.48577669492E+02  0.51158200104E+02  0.72168159794E+02  0.00000000000E+00 0. -1.
         22    1    3    3    0    0  0.15409128073E+02  0.19716755446E+02 -0.70499589185E+02  0.74808981737E+02  0.00000000000E+00 0. -1.
</event>
<event>
 7    1  0.5970484E-006  0.7890447E+02  0.7818608E-02  0.1448678E+00
          2   -1    0    0  502    0  0.00000000000E+00  0.00000000000E+00  0.11520121866E+03  0.11520121866E+03  0.00000000000E+00 0. -1.
          1   -1    0    0  501    0 -0.00000000000E+00 -0.00000000000E+00 -0.92205280456E+03  0.92205280456E+03  0.00000000000E+00 0. -1.
         25    2    1    2    0    0 -0.59162443229E+02  0.98985413340E+01 -0.47933071950E+03  0.49897891959E+03  0.12499539086E+03 0.  0.
          2    1    1    2  501    0 -0.19123910897E+02 -0.24285583176E+02 -0.41721309806E+03  0.41835664535E+03  0.00000000000E+00 0. -1.
          1    1    1    2  502    0  0.78286354126E+02  0.14387041842E+02  0.89692231659E+02  0.11991845828E+03  0.00000000000E+00 0. -1.
         22    1    3    3    0    0 -0.99090814850E-01  0.58981966751E+02 -0.15946631888E+03  0.17002467197E+03  0.00000000000E+00 0.  1.
         22    1    3    3    0    0 -0.59063352414E+02 -0.49083425417E+02 -0.31986440062E+03  0.32895424763E+03  0.00000000000E+00 0.  1.
</event>
<event>
 7    1  0.5970484E-006  0.1637083E+03  0.7818608E-02  0.1395081E+00
          2   -1    0    0  502    0  0.00000000000E+00  0.00000000000E+00  0.81014804703E+02  0.81014804703E+02  0.00000000000E+00 0. -1.
          1   -1    0    0  501    0 -0.00000000000E+00 -0.00000000000E+00 -0.58813956513E+03  0.58813956513E+03  0.00000000000E+00 0. -1.
         25    2    1    2    0    0  0.54422490274E+02 -0.13995101456E+03 -0.34430202143E+03  0.39587499715E+03  0.12500014992E+03 0.  0.
          2    1    1    2  501    0  0.19085104853E+02 -0.11873262806E+02 -0.84245450482E+02  0.87192382258E+02  0.00000000000E+00 0. -1.
          1    1    1    2  502    0 -0.73507595127E+02  0.15182427736E+03 -0.78577288516E+02  0.18608699043E+03  0.00000000000E+00 0. -1.
         22    1    3    3    0    0  0.20390275876E+01 -0.25449156079E+02 -0.21087644171E+03  0.21241631492E+03  0.00000000000E+00 0.  1.
         22    1    3    3    0    0  0.52383462686E+02 -0.11450185848E+03 -0.13342557972E+03  0.18345868222E+03  0.00000000000E+00 0.  1.
</event>
<event>
 7    1  0.5970484E-006  0.1063835E+03  0.7818608E-02  0.1303217E+00
          2   -1    0    0  502    0  0.00000000000E+00  0.00000000000E+00  0.79023323709E+03  0.79023323709E+03  0.00000000000E+00 0. -1.
          1   -1    0    0  501    0 -0.00000000000E+00 -0.00000000000E+00 -0.21399571308E+04  0.21399571308E+04  0.00000000000E+00 0. -1.
         25    2    1    2    0    0 -0.16242789871E+03 -0.78227267190E+02 -0.63026158229E+02  0.22825223909E+03  0.12499784164E+03 0.  0.
          2    1    1    2  501    0  0.67670594890E+02  0.34340182545E+02 -0.19897380105E+04  0.19911845490E+04  0.00000000000E+00 0. -1.
          1    1    1    2  502    0  0.94757303823E+02  0.43887084645E+02  0.70304027507E+03  0.71075357980E+03  0.00000000000E+00 0. -1.
         22    1    3    3    0    0 -0.15155166327E+03 -0.13757373311E+02 -0.30394786406E+02  0.15518058835E+03  0.00000000000E+00 0. -1.
         22    1    3    3    0    0 -0.10876235444E+02 -0.64469893879E+02 -0.32631371823E+02  0.73071650736E+02  0.00000000000E+00 0. -1.
</event>
<event>
 7    1  0.5970484E-006  0.1594668E+03  0.7818608E-02  0.1310348E+00
          2   -1    0    0  502    0  0.00000000000E+00  0.00000000000E+00  0.41414467681E+03  0.41414467681E+03  0.00000000000E+00 0. -1.
          1   -1    0    0  501    0 -0.00000000000E+00 -0.00000000000E+00 -0.95558869969E+03  0.95558869969E+03  0.00000000000E+00 0. -1.
         25    2    1    2    0    0 -0.79737040366E+02  0.11461684627E+03 -0.20612660012E+03  0.27858355131E+03  0.12500241090E+03 0.  0.
          2    1    1    2  501    0 -0.45579770189E+02 -0.13143340710E+02 -0.69518811101E+03  0.69680468751E+03  0.00000000000E+00 0. -1.
          1    1    1    2  502    0  0.12531681056E+03 -0.10147350556E+03  0.35987068825E+03  0.39434513767E+03  0.00000000000E+00 0. -1.
         22    1    3    3    0    0 -0.40652424251E+02  0.24534632632E+01 -0.13300916134E+03  0.13910455089E+03  0.00000000000E+00 0. -1.
         22    1    3    3    0    0 -0.39084616115E+02  0.11216338301E+03 -0.73117438781E+02  0.13947900042E+03  0.00000000000E+00 0. -1.
</event>
<event>
 7    1  0.5970484E-006  0.1178934E+03  0.7818608E-02  0.1270417E+00
          2   -1    0    0  502    0  0.00000000000E+00  0.00000000000E+00  0.22265067083E+04  0.22265067083E+04  0.00000000000E+00 0. -1.
          1   -1    0    0  501    0 -0.00000000000E+00 -0.00000000000E+00 -0.54753554450E+02  0.54753554450E+02  0.00000000000E+00 0. -1.
         25    2    1    2    0    0 -0.28628468377E+02  0.54013753774E+02  0.44197097370E+03  0.46335806656E+03  0.12500112580E+03 0.  0.
          2    1    1    2  501    0  0.49652324585E+02  0.78929883694E+02  0.11042055281E+02  0.93899983288E+02  0.00000000000E+00 0. -1.
          1    1    1    2  502    0 -0.21023856208E+02 -0.13294363747E+03  0.17187401248E+04  0.17240022129E+04  0.00000000000E+00 0. -1.
         22    1    3    3    0    0 -0.38497897939E+02  0.83641441405E+02  0.21005788838E+03  0.22935190284E+03  0.00000000000E+00 0. -1.
         22    1    3    3    0    0  0.98694295627E+01 -0.29627687630E+02  0.23191308532E+03  0.23400616372E+03  0.00000000000E+00 0. -1.
</event>
<event>
 7    1  0.5970484E-006  0.8386264E+02  0.7818608E-02  0.1379517E+00
          2   -1    0    0  502    0  0.00000000000E+00  0.00000000000E+00  0.12245845132E+04  0.12245845132E+04  0.00000000000E+00 0. -1.
          1   -1    0    0  501    0 -0.00000000000E+00 -0.00000000000E+00 -0.24435794840E+03  0.24435794840E+03  0.00000000000E+00 0. -1.
         25    2    1    2    0    0 -0.10019497715E+03  0.48889469763E+02  0.45635530192E+03  0.48612154227E+03  0.12499911427E+03 0.  0.
          2    1    1    2  501    0  0.48010037462E+02  0.13033690443E+02 -0.22456862087E+03  0.23001283935E+03  0.00000000000E+00 0. -1.
          1    1    1    2  502    0  0.52184939691E+02 -0.61923160206E+02  0.74843988374E+03  0.75280807998E+03  0.00000000000E+00 0. -1.
         22    1    3    3    0    0 -0.54063337493E+02 -0.39225632776E+02  0.21293996866E+03  0.22317017046E+03  0.00000000000E+00 0.  1.
         22    1    3    3    0    0 -0.46131639659E+02  0.88115102539E+02  0.24341533326E+03  0.26295137181E+03  0.00000000000E+00 0.  1.
</event>
<event>
 7    1  0.5970484E-006  0.9238128E+02  0.7818608E-02  0.1358704E+00
          2   -1    0    0  502    0  0.00000000000E+00  0.00000000000E+00  0.16660644729E+03  0.16660644729E+03  0.00000000000E+00 0. -1.
          1   -1    0    0  501    0 -0.00000000000E+00 -0.00000000000E+00 -0.32509598680E+03  0.32509598680E+03  0.00000000000E+00 0. -1.
         25    2    1    2    0    0 -0.28561555893E+02 -0.82318799667E+02  0.43431447271E+02  0.15843987698E+03  0.12499902700E+03 0.  0.
          2    1    1    2  501    0  0.50779735460E+02 -0.17357158084E+02 -0.22267719511E+03  0.22905236452E+03  0.00000000000E+00 0. -1.
          1    1    1    2  502    0 -0.22218179568E+02  0.99675957751E+02  0.20756208326E+02  0.10421019260E+03  0.00000000000E+00 0. -1.
         22    1    3    3    0    0 -0.32755120207E+01 -0.81068648552E+02  0.80013460583E+02  0.11395178205E+03  0.00000000000E+00 0. -1.
         22    1    3    3    0    0 -0.25286043872E+02 -0.12501511150E+01 -0.36582013312E+02  0.44488094929E+02  0.00000000000E+00 0. -1.
</event>
<event>
 7    1  0.5970484E-006  0.4896019E+02  0.7818608E-02  0.1481057E+00
          2   -1    0    0  502    0  0.00000000000E+00  0.00000000000E+00  0.22472951538E+03  0.22472951538E+03  0.00000000000E+00 0. -1.
          1   -1    0    0  501    0 -0.00000000000E+00 -0.00000000000E+00 -0.97371961017E+03  0.97371961017E+03  0.00000000000E+00 0. -1.
         25    2    1    2    0    0 -0.77414464115E+02 -0.34047472876E+02 -0.82671050773E+01  0.15115079336E+03  0.12500395052E+03 0.  0.
          2    1    1    2  501    0  0.48035008423E+02  0.77376651114E+01 -0.89079909948E+03  0.89212682346E+03  0.00000000000E+00 0. -1.
          1    1    1    2  502    0  0.29379455692E+02  0.26309807764E+02  0.15007610976E+03  0.15517150874E+03  0.00000000000E+00 0. -1.
         22    1    3    3    0    0  0.21376970546E+02  0.17058012434E+02 -0.26914585556E+02  0.38371155489E+02  0.00000000000E+00 0. -1.
         22    1    3    3    0    0 -0.98791434661E+02 -0.51105485310E+02  0.18647480478E+02  0.11277963788E+03  0.00000000000E+00 0. -1.
</event>
<event>
 7    1  0.5970484E-006  0.6674048E+02  0.7818608E-02  0.1410491E+00
          2   -1    0    0  502    0  0.00000000000E+00  0.00000000000E+00  0.70824755962E+03  0.70824755962E+03  0.00000000000E+00 0. -1.
          1   -1    0    0  501    0 -0.00000000000E+00 -0.00000000000E+00 -0.11050199492E+03  0.11050199492E+03  0.00000000000E+00 0. -1.
         25    2    1    2    0    0  0.37401861818E+02  0.28764508761E+02  0.70345197356E+02  0.15099840116E+03  0.12500309648E+03 0.  0.
          2    1    1    2  501    0  0.30313456661E+02 -0.38275325132E+02 -0.59450280949E+02  0.76930111618E+02  0.00000000000E+00 0. -1.
          1    1    1    2  502    0 -0.67715318478E+02  0.95108163712E+01  0.58685064830E+03  0.59082104176E+03  0.00000000000E+00 0. -1.
         22    1    3    3    0    0  0.45314779157E+02  0.35908504722E+02  0.10219232835E+03  0.11741431725E+03  0.00000000000E+00 0.  1.
         22    1    3    3    0    0 -0.79129173395E+01 -0.71439959615E+01 -0.31847130998E+02  0.33584083908E+02  0.00000000000E+00 0.  1.
</event>
<event>
 7    1  0.5970484E-006  0.9056107E+02  0.7818608E-02  0.1312282E+00
          2   -1    0    0  502    0  0.00000000000E+00  0.00000000000E+00  0.22455351465E+03  0.22455351465E+03  0.00000000000E+00 0. -1.
          1   -1    0    0  501    0 -0.00000000000E+00 -0.00000000000E+00 -0.17385217089E+04  0.17385217089E+04  0.00000000000E+00 0. -1.
         25    2    1    2    0    0 -0.52976139194E+02 -0.92423229558E+02  0.63464083260E+02  0.17607274931E+03  0.12500159399E+03 0.  0.
          2    1    1    2  501    0 -0.38963667054E+02  0.72242741738E+02 -0.16598577609E+04  0.16618859670E+04  0.00000000000E+00 0. -1.
          1    1    1    2  502    0  0.91939806248E+02  0.20180487820E+02  0.82425483376E+02  0.12511650719E+03  0.00000000000E+00 0. -1.
         22    1    3    3    0    0 -0.79102981784E+02 -0.49695973014E+02 -0.22552841122E+01  0.93445480187E+02  0.00000000000E+00 0. -1.
         22    1    3    3    0    0  0.26126842590E+02 -0.42727256543E+02  0.65719367372E+02  0.82627269126E+02  0.00000000000E+00 0. -1.
</event>
<event>
 7    1  0.5970484E-006  0.9202613E+02  0.7818608E-02  0.1305838E+00
          2   -1    0    0  502    0  0.00000000000E+00  0.00000000000E+00  0.12926875937E+04  0.12926875937E+04  0.00000000000E+00 0. -1.
          1   -1    0    0  501    0 -0.00000000000E+00 -0.00000000000E+00 -0.11644142539E+03  0.11644142539E+03  0.00000000000E+00 0. -1.
         25    2    1    2    0    0 -0.21253391757E+02  0.36943268099E+01  0.20918042396E+03  0.24463510591E+03  0.12499812225E+03 0.  0.
          2    1    1    2  501    0 -0.71891965886E+02 -0.46546577273E+02 -0.77141993270E+02  0.11526459014E+03  0.00000000000E+00 0. -1.
          1    1    1    2  502    0  0.93145357642E+02  0.42852250463E+02  0.10442077376E+04  0.10492293230E+04  0.00000000000E+00 0. -1.
         22    1    3    3    0    0 -0.33674618950E+02 -0.55029273223E+02  0.85014653411E+02  0.10672250076E+03  0.00000000000E+00 0. -1.
         22    1    3    3    0    0  0.12421227193E+02  0.58723600033E+02  0.12416577055E+03  0.13791260516E+03  0.00000000000E+00 0. -1.
</event>
<event>
 7    1  0.5970484E-006  0.5517137E+02  0.7818608E-02  0.1419681E+00
          2   -1    0    0  502    0  0.00000000000E+00  0.00000000000E+00  0.31121085711E+04  0.31121085711E+04  0.00000000000E+00 0. -1.
          1   -1    0    0  501    0 -0.00000000000E+00 -0.00000000000E+00 -0.23503721514E+03  0.23503721514E+03  0.00000000000E+00 0. -1.
         25    2    1    2    0    0 -0.72625020494E+02  0.44049588380E+02  0.74384454763E+03  0.75904220521E+03  0.12500239359E+03 0.  0.
          2    1    1    2  501    0  0.18201912542E+02 -0.52032808866E+02 -0.22377263339E+03  0.23046239231E+03  0.00000000000E+00 0. -1.
          1    1    1    2  502    0  0.54423107951E+02  0.79832204861E+01  0.23569994417E+04  0.23576411887E+04  0.00000000000E+00 0. -1.
         22    1    3    3    0    0 -0.74108280843E+02 -0.27835732841E+02  0.40099956378E+03  0.40873893314E+03  0.00000000000E+00 0. -1.
         22    1    3    3    0    0  0.14832603487E+01  0.71885321220E+02  0.34284498386E+03  0.35030327207E+03  0.00000000000E+00 0. -1.
</event>
<event>
 7    1  0.5970484E-006  0.9278467E+02  0.7818608E-02  0.1317715E+00
          2   -1    0    0  502    0  0.00000000000E+00  0.00000000000E+00  0.19679123340E+04  0.19679123340E+04  0.00000000000E+00 0. -1.
          1   -1    0    0  501    0 -0.00000000000E+00 -0.00000000000E+00 -0.33992778296E+03  0.33992778296E+03  0.00000000000E+00 0. -1.
         25    2    1    2    0    0 -0.20595358597E+02  0.64123099739E+02 -0.97657026925E+01  0.14231803119E+03  0.12499244912E+03 0.  0.
          2    1    1    2  501    0  0.92153545906E+02 -0.37677648778E+02 -0.25369923455E+03  0.27253473696E+03  0.00000000000E+00 0. -1.
          1    1    1    2  502    0 -0.71558187309E+02 -0.26445450962E+02  0.18914494883E+04  0.18929873489E+04  0.00000000000E+00 0. -1.
         22    1    3    3    0    0 -0.28581660352E+02  0.16977934064E+01 -0.56894914003E+02  0.63693210394E+02  0.00000000000E+00 0.  1.
         22    1    3    3    0    0  0.79863017545E+01  0.62425306333E+02  0.47129211310E+02  0.78624820796E+02  0.00000000000E+00 0.  1.
</event>
<event>
 7    1  0.5970484E-006  0.6508819E+02  0.7818608E-02  0.1421372E+00
          2   -1    0    0  502    0  0.00000000000E+00  0.00000000000E+00  0.35421841920E+03  0.35421841920E+03  0.00000000000E+00 0. -1.
          1   -1    0    0  501    0 -0.00000000000E+00 -0.00000000000E+00 -0.73503338410E+03  0.73503338410E+03  0.00000000000E+00 0. -1.
         25    2    1    2    0    0 -0.77522296211E+02  0.29843339303E+02  0.35233148509E+02  0.15416361372E+03  0.12499885491E+03 0.  0.
          2    1    1    2  501    0  0.37721497279E+02 -0.52952313792E+02 -0.67194635812E+03  0.67508426665E+03  0.00000000000E+00 0. -1.
          1    1    1    2  502    0  0.39800798932E+02  0.23108974489E+02  0.25589824471E+03  0.26000392293E+03  0.00000000000E+00 0. -1.
         22    1    3    3    0    0  0.18815116880E+02  0.44288589508E+02  0.29796001988E+02  0.56597610536E+02  0.00000000000E+00 0. -1.
         22    1    3    3    0    0 -0.96337413091E+02 -0.14445250205E+02  0.54371465210E+01  0.97566003182E+02  0.00000000000E+00 0. -1.
</event>
<event>
 7    1  0.5970484E-006  0.1388696E+03  0.7818608E-02  0.1340049E+00
          2   -1    0    0  502    0  0.00000000000E+00  0.00000000000E+00  0.15150745459E+04  0.15150745459E+04  0.00000000000E+00 0. -1.
          1   -1    0    0  501    0 -0.00000000000E+00 -0.00000000000E+00 -0.20469488670E+04  0.20469488670E+04  0.00000000000E+00 0. -1.
         25    2    1    2    0    0 -0.77804616040E+02 -0.66615787615E+02  0.10903929227E+03  0.19495024011E+03  0.12499922970E+03 0.  0.
          2    1    1    2  501    0 -0.39742295702E+02 -0.13161541996E+02 -0.20000722566E+04  0.20005103619E+04  0.00000000000E+00 0. -1.
          1    1    1    2  502    0  0.11754691174E+03  0.79777329612E+02  0.13591586432E+04  0.13665628109E+04  0.00000000000E+00 0. -1.
         22    1    3    3    0    0 -0.94383516602E+02 -0.63021276175E+02  0.12694874240E+03  0.17028186237E+03  0.00000000000E+00 0.  1.
         22    1    3    3    0    0  0.16578900562E+02 -0.35945114405E+01 -0.17909450129E+02  0.24668377739E+02  0.00000000000E+00 0.  1.
</event>
<event>
 7    1  0.5970484E-006  0.1647631E+03  0.7818608E-02  0.1345861E+00
          2   -1    0    0  502    0  0.00000000000E+00  0.00000000000E+00  0.25941238577E+04  0.25941238577E+04  0.00000000000E+00 0. -1.
          1   -1    0    0  501    0 -0.00000000000E+00 -0.00000000000E+00 -0.55561128396E+02  0.55561128396E+02  0.00000000000E+00 0. -1.
         25    2    1    2    0    0 -0.13768301902E+03  0.33816193853E+02  0.19059780584E+04  0.19153269513E+04  0.12499929118E+03 0.  0.
          2    1    1    2  501    0  0.15411405558E+03 -0.63079463327E+02  0.87259269506E+02  0.18800090674E+03  0.00000000000E+00 0. -1.
          1    1    1    2  502    0 -0.16431036564E+02  0.29263269474E+02  0.54532540137E+03  0.54635712797E+03  0.00000000000E+00 0. -1.
         22    1    3    3    0    0 -0.57618010536E+02 -0.48232371784E+00  0.23072488930E+03  0.23781093818E+03  0.00000000000E+00 0. -1.
         22    1    3    3    0    0 -0.80065008481E+02  0.34298517571E+02  0.16752531691E+04  0.16775160132E+04  0.00000000000E+00 0. -1.
</event>
<event>
 7    1  0.5970484E-006  0.1479761E+03  0.7818608E-02  0.1336195E+00
          2   -1    0    0  502    0  0.00000000000E+00  0.00000000000E+00  0.19039300593E+04  0.19039300593E+04  0.00000000000E+00 0. -1.
          1   -1    0    0  501    0 -0.00000000000E+00 -0.00000000000E+00 -0.60838454613E+03  0.60838454613E+03  0.00000000000E+00 0. -1.
         25    2    1    2    0    0 -0.17999684882E+03 -0.65930271816E+01  0.78321669699E+01  0.21938031597E+03  0.12499618635E+03 0.  0.
          2    1    1    2  501    0  0.14452901041E+03 -0.13219476934E+02 -0.49189680912E+03  0.51286046859E+03  0.00000000000E+00 0. -1.
          1    1    1    2  502    0  0.35467838412E+02  0.19812504115E+02  0.17796101553E+04  0.17800738209E+04  0.00000000000E+00 0. -1.
         22    1    3    3    0    0 -0.13506005453E+03 -0.13799523586E+02  0.61474691502E+02  0.14903282483E+03  0.00000000000E+00 0.  1.
         22    1    3    3    0    0 -0.44936794287E+02  0.72064964043E+01 -0.53642524532E+02  0.70347491138E+02  0.00000000000E+00 0.  1.
</event>
<event>
 7    1  0.5970484E-006  0.8510177E+02  0.7818608E-02  0.1340000E+00
          2   -1    0    0  502    0  0.00000000000E+00  0.00000000000E+00  0.13297331466E+04  0.13297331466E+04  0.00000000000E+00 0. -1.
          1   -1    0    0  501    0 -0.00000000000E+00 -0.00000000000E+00 -0.82095647588E+02  0.82095647588E+02  0.00000000000E+00 0. -1.
         25    2    1    2    0    0 -0.27333460222E+02 -0.23820445195E+02  0.39977123746E+03  0.42042410730E+03  0.12499942416E+03 0.  0.
          2    1    1    2  501    0 -0.68338778382E+02 -0.88993475175E+00 -0.52157391667E+02  0.85973101143E+02  0.00000000000E+00 0. -1.
          1    1    1    2  502    0  0.95672238605E+02  0.24710379947E+02  0.90002365320E+03  0.90543158573E+03  0.00000000000E+00 0. -1.
         22    1    3    3    0    0 -0.20744203788E+02 -0.41946486330E+02  0.39834569146E+03  0.40108492818E+03  0.00000000000E+00 0.  1.
         22    1    3    3    0    0 -0.65892564346E+01  0.18126041135E+02  0.14255459978E+01  0.19339179118E+02  0.00000000000E+00 0.  1.
</event>
<event>
 7    1  0.1224090E-005  0.7869617E+02  0.7818608E-02  0.1459575E+00
          2   -1    0    0  502    0  0.00000000000E+00  0.00000000000E+00  0.19348409122E+04  0.19348409122E+04  0.00000000000E+00 0. -1.
          1   -1    0    0  501    0 -0.00000000000E+00 -0.00000000000E+00 -0.28065346300E+04  0.28065346300E+04  0.00000000000E+00 0. -1.
         25    2    1    2    0    0 -0.49573956819E+02 -0.30290123786E+02 -0.12021953815E+04  0.12100716637E+04  0.12499850965E+03 0.  0.
          2    1    1    2  501    0 -0.27865097437E+01 -0.28479653477E+02 -0.15994709246E+04  0.15997268811E+04  0.00000000000E+00 0. -1.
          1    1    1    2  502    0  0.52360466563E+02  0.58769777263E+02  0.19299725883E+04  0.19315769974E+04  0.00000000000E+00 0. -1.
         22    1    3    3    0    0 -0.36107809963E+02 -0.73714752597E+02 -0.52770784995E+03  0.53405356809E+03  0.00000000000E+00 0.  1.
         22    1    3    3    0    0 -0.13466146856E+02  0.43424628811E+02 -0.67448753151E+03  0.67601809566E+03  0.00000000000E+00 0.  1.
</event>
<event>
 7    1  0.5970484E-006  0.5982730E+02  0.7818608E-02  0.1421676E+00
          2   -1    0    0  502    0  0.00000000000E+00  0.00000000000E+00  0.11456316887E+04  0.11456316887E+04  0.00000000000E+00 0. -1.
          1   -1    0    0  501    0 -0.00000000000E+00 -0.00000000000E+00 -0.22427096746E+03  0.22427096746E+03  0.00000000000E+00 0. -1.
         25    2    1    2    0    0 -0.78734418985E+01 -0.62980008552E+02 -0.94282452328E+02  0.16894638429E+03  0.12500090953E+03 0.  0.
          2    1    1    2  501    0 -0.41085899572E+02  0.28413146299E+02 -0.85048749302E+02  0.98633907882E+02  0.00000000000E+00 0. -1.
          1    1    1    2  502    0  0.48959341471E+02  0.34566862253E+02  0.11006919228E+04  0.11023223639E+04  0.00000000000E+00 0. -1.
         22    1    3    3    0    0  0.12454146216E+02  0.29394219240E+02  0.44347078977E+01  0.32230304324E+02  0.00000000000E+00 0.  1.
         22    1    3    3    0    0 -0.20327588115E+02 -0.92374227792E+02 -0.98717160225E+02  0.13671607997E+03  0.00000000000E+00 0.  1.
</event>
<event>
 7    1  0.5970484E-006  0.1560282E+03  0.7818608E-02  0.1306981E+00
          2   -1    0    0  502    0  0.00000000000E+00  0.00000000000E+00  0.24105751491E+04  0.24105751491E+04  0.00000000000E+00 0. -1.
          1   -1    0    0  501    0 -0.00000000000E+00 -0.00000000000E+00 -0.11849486685E+04  0.11849486685E+04  0.00000000000E+00 0. -1.
         25    2    1    2    0    0 -0.16806462392E+03  0.58403744384E+02  0.38927306840E+03  0.44588839805E+03  0.12500490614E+03 0.  0.
          2    1    1    2  501    0  0.15551067274E+03 -0.10016319735E+02 -0.11510764859E+04  0.11615769335E+04  0.00000000000E+00 0. -1.
          1    1    1    2  502    0  0.12553951183E+02 -0.48387424650E+02  0.19874298980E+04  0.19880584861E+04  0.00000000000E+00 0. -1.
         22    1    3    3    0    0 -0.22088010847E+02  0.11548006903E+02 -0.26315769499E+01  0.25063157898E+02  0.00000000000E+00 0.  1.
         22    1    3    3    0    0 -0.14597661307E+03  0.46855737481E+02  0.39190464535E+03  0.42082524015E+03  0.00000000000E+00 0.  1.
</event>
<event>
 7    1  0.5970484E-006  0.6918586E+02  0.7818608E-02  0.1420080E+00
          2   -1    0    0  502    0  0.00000000000E+00  0.00000000000E+00  0.57478281305E+02  0.57478281305E+02  0.00000000000E+00 0. -1.
          1   -1    0    0  501    0 -0.00000000000E+00 -0.00000000000E+00 -0.33505165772E+04  0.33505165772E+04  0.00000000000E+00 0. -1.
         25    2    1    2    0    0 -0.99274078208E+02 -0.10746460659E+02 -0.18471484507E+03  0.24436680247E+03  0.12499892455E+03 0.  0.
          2    1    1    2  501    0  0.40646377932E+02 -0.16128175712E+02 -0.30980054829E+04  0.30983140929E+04  0.00000000000E+00 0. -1.
          1    1    1    2  502    0  0.58627700276E+02  0.26874636371E+02 -0.10317967920E+02  0.65313963145E+02  0.00000000000E+00 0. -1.
         22    1    3    3    0    0  0.11782727157E+02 -0.40978159362E+02 -0.69319057697E+02  0.81382884957E+02  0.00000000000E+00 0.  1.
         22    1    3    3    0    0 -0.11105680536E+03  0.30231698703E+02 -0.11539578737E+03  0.16298391751E+03  0.00000000000E+00 0.  1.
</event>
<event>
 7    1  0.5970484E-006  0.8830347E+02  0.7818608E-02  0.1472408E+00
          2   -1    0    0  502    0  0.00000000000E+00  0.00000000000E+00  0.46203166829E+03  0.46203166829E+03  0.00000000000E+00 0. -1.
          1   -1    0    0  501    0 -0.00000000000E+00 -0.00000000000E+00 -0.16590026613E+03  0.16590026613E+03  0.00000000000E+00 0. -1.
         25    2    1    2    0    0 -0.32017957301E+02 -0.70666689795E+02  0.50130152413E+02  0.15542269544E+03  0.12499700572E+03 0.  0.
          2    1    1    2  501    0  0.15378889505E+02 -0.17437770257E+02 -0.10638444348E+03  0.10889552740E+03  0.00000000000E+00 0. -1.
          1    1    1    2  502    0  0.16639067796E+02  0.88104460052E+02  0.35238569323E+03  0.36361371158E+03  0.00000000000E+00 0. -1.
         22    1    3    3    0    0 -0.76627524326E+02 -0.42879468331E+02  0.53388745199E+02  0.10276567716E+03  0.00000000000E+00 0. -1.
         22    1    3    3    0    0  0.44609567025E+02 -0.27787221464E+02 -0.32585927863E+01  0.52657018276E+02  0.00000000000E+00 0. -1.
</event>
<event>
 7    1  0.5970484E-006  0.3940673E+02  0.7818608E-02  0.1597994E+00
          2   -1    0    0  502    0  0.00000000000E+00  0.00000000000E+00  0.18924317046E+03  0.18924317046E+03  0.00000000000E+00 0. -1.
          1   -1    0    0  501    0 -0.00000000000E+00 -0.00000000000E+00 -0.52250980450E+03  0.52250980450E+03  0.00000000000E+00 0. -1.
         25    2    1    2    0    0 -0.20955188961E+02  0.31843703843E+02 -0.30271246591E+03  0.32971609527E+03  0.12499890016E+03 0.  0.
          2    1    1    2  501    0  0.21546079145E+02  0.76137204133E+01 -0.20343246272E+03  0.20471191747E+03  0.00000000000E+00 0. -1.
          1    1    1    2  502    0 -0.59089018418E+00 -0.39457424256E+02  0.17287829460E+03  0.17732496222E+03  0.00000000000E+00 0. -1.
         22    1    3    3    0    0 -0.32478757126E+02  0.15569186526E+02 -0.30717684963E+03  0.30928124124E+03  0.00000000000E+00 0. -1.
         22    1    3    3    0    0  0.11523568165E+02  0.16274517317E+02  0.44643837195E+01  0.20434854028E+02  0.00000000000E+00 0. -1.
</event>
<event>
 7    1  0.5970484E-006  0.1109324E+03  0.7818608E-02  0.1310466E+00
          2   -1    0    0  502    0  0.00000000000E+00  0.00000000000E+00  0.35801134349E+04  0.35801134349E+04  0.00000000000E+00 0. -1.
          1   -1    0    0  501    0 -0.00000000000E+00 -0.00000000000E+00 -0.13205256494E+03  0.13205256494E+03  0.00000000000E+00 0. -1.
         25    2    1    2    0    0  0.10141299245E+03  0.84276743213E+02  0.72512685405E+03  0.74754413411E+03  0.12500445387E+03 0.  0.
          2    1    1    2  501    0 -0.10958151953E+03 -0.16650238414E+02 -0.94929738706E+02  0.14593490039E+03  0.00000000000E+00 0. -1.
          1    1    1    2  502    0  0.81685270808E+01 -0.67626504799E+02  0.28178637546E+04  0.28186869654E+04  0.00000000000E+00 0. -1.
         22    1    3    3    0    0  0.10686978075E+03  0.17949886248E+02  0.54131366398E+03  0.55205419232E+03  0.00000000000E+00 0.  1.
         22    1    3    3    0    0 -0.54567882990E+01  0.66326856965E+02  0.18381319007E+03  0.19548994178E+03  0.00000000000E+00 0.  1.
</event>
<event>
 7    1  0.5970484E-006  0.4609513E+02  0.7818608E-02  0.1512418E+00
          2   -1    0    0  502    0  0.00000000000E+00  0.00000000000E+00  0.22377522612E+03  0.22377522612E+03  0.00000000000E+00 0. -1.
          1   -1    0    0  501    0 -0.00000000000E+00 -0.00000000000E+00 -0.66356666346E+03  0.66356666346E+03  0.00000000000E+00 0. -1.
         25    2    1    2    0    0 -0.54911092007E+02 -0.15289375211E+01 -0.27544882690E+03  0.30743206700E+03  0.12499941563E+03 0.  0.
          2    1    1    2  501    0  0.17673592022E+02  0.28735624408E+02 -0.36878784369E+03  0.37032764630E+03  0.00000000000E+00 0. -1.
          1    1    1    2  502    0  0.37237499985E+02 -0.27206686887E+02  0.20444523324E+03  0.20958217628E+03  0.00000000000E+00 0. -1.
         22    1    3    3    0    0 -0.86452347249E+02  0.15331224335E+02 -0.24568460012E+03  0.26090223748E+03  0.00000000000E+00 0. -1.
         22    1    3    3    0    0  0.31541255242E+02 -0.16860161856E+02 -0.29764226773E+02  0.46529829523E+02  0.00000000000E+00 0. -1.
</event>
<event>
 7    1  0.5970484E-006  0.3142368E+03  0.7818608E-02  0.1307889E+00
          2   -1    0    0  502    0  0.00000000000E+00  0.00000000000E+00  0.84794561243E+03  0.84794561243E+03  0.00000000000E+00 0. -1.
          1   -1    0    0  501    0 -0.00000000000E+00 -0.00000000000E+00 -0.32008641120E+03  0.32008641120E+03  0.00000000000E+00 0. -1.
         25    2    1    2    0    0  0.16163829076E+03  0.29343518337E+03  0.66110600457E+03  0.75160981145E+03  0.12500006199E+03 0.  0.
          2    1    1    2  501    0 -0.15680168098E+03 -0.26929812011E+03 -0.18266449085E+03  0.36121262556E+03  0.00000000000E+00 0. -1.
          1    1    1    2  502    0 -0.48366097847E+01 -0.24137063269E+02  0.49417687499E+02  0.55209586625E+02  0.00000000000E+00 0. -1.
         22    1    3    3    0    0  0.15845209505E+03  0.17398802150E+03  0.39278051435E+03  0.45788145901E+03  0.00000000000E+00 0. -1.
         22    1    3    3    0    0  0.31861957176E+01  0.11944716187E+03  0.26832549022E+03  0.29372835244E+03  0.00000000000E+00 0. -1.
</event>
<event>
 7    1  0.5970484E-006  0.1030506E+03  0.7818608E-02  0.1276303E+00
          2   -1    0    0  502    0  0.00000000000E+00  0.00000000000E+00  0.28006087066E+04  0.28006087066E+04  0.00000000000E+00 0. -1.
          1   -1    0    0  501    0 -0.00000000000E+00 -0.00000000000E+00 -0.11695404058E+03  0.11695404058E+03  0.00000000000E+00 0. -1.
         25    2    1    2    0    0  0.11335994401E+02 -0.58093657569E+01  0.71065898937E+02  0.14434875851E+03  0.12499579429E+03 0.  0.
          2    1    1    2  501    0  0.73905297724E+02  0.68559230611E+02 -0.47206086642E+02  0.11131386144E+03  0.00000000000E+00 0. -1.
          1    1    1    2  502    0 -0.85241292126E+02 -0.62749864854E+02  0.26597948537E+04  0.26619001272E+04  0.00000000000E+00 0. -1.
         22    1    3    3    0    0  0.24888270557E+02  0.46700508460E+02  0.72906141722E+02  0.90087007956E+02  0.00000000000E+00 0.  1.
         22    1    3    3    0    0 -0.13552276156E+02 -0.52509874217E+02 -0.18402427847E+01  0.54261750550E+02  0.00000000000E+00 0.  1.
</event>
<event>
 7    1  0.5970484E-006  0.1191084E+03  0.7818608E-02  0.1322816E+00
          2   -1    0    0  502    0  0.00000000000E+00  0.00000000000E+00  0.30727181390E+03  0.30727181390E+03  0.00000000000E+00 0. -1.
          1   -1    0    0  501    0 -0.00000000000E+00 -0.00000000000E+00 -0.40608317380E+04  0.40608317380E+04  0.00000000000E+00 0. -1.
         25    2    1    2    0    0 -0.10994470390E+03  0.13409734520E+03 -0.30113897347E+04  0.30189672522E+04  0.12500079711E+03 0.  0.
          2    1    1    2  501    0  0.24842699953E+02 -0.51058796719E+02 -0.10331974541E+04  0.10347565606E+04  0.00000000000E+00 0. -1.
          1    1    1    2  502    0  0.85102003948E+02 -0.83038548481E+02  0.29102726471E+03  0.31437973919E+03  0.00000000000E+00 0. -1.
         22    1    3    3    0    0 -0.74383084394E+02  0.26962791553E+02 -0.63684609613E+03  0.64174199296E+03  0.00000000000E+00 0.  1.
         22    1    3    3    0    0 -0.35561619507E+02  0.10713455365E+03 -0.23745436386E+04  0.23772252592E+04  0.00000000000E+00 0.  1.
</event>
<event>
 7    1  0.5970484E-006  0.1371966E+03  0.7818608E-02  0.1352539E+00
          2   -1    0    0  502    0  0.00000000000E+00  0.00000000000E+00  0.34669121192E+03  0.34669121192E+03  0.00000000000E+00 0. -1.
          1   -1    0    0  501    0 -0.00000000000E+00 -0.00000000000E+00 -0.35660609104E+03  0.35660609104E+03  0.00000000000E+00 0. -1.
         25    2    1    2    0    0 -0.54465354744E+02  0.10094385239E+03 -0.11498857410E+03  0.20494727956E+03  0.12499951609E+03 0.  0.
          2    1    1    2  501    0  0.79419609361E+02 -0.12969370089E+03 -0.16570200170E+03  0.22491127977E+03  0.00000000000E+00 0. -1.
          1    1    1    2  502    0 -0.24954254618E+02  0.28749848492E+02  0.27077569667E+03  0.27343874363E+03  0.00000000000E+00 0. -1.
         22    1    3    3    0    0  0.39501475407E+01 -0.24760760792E+02 -0.40373810326E+02  0.47526240129E+02  0.00000000000E+00 0. -1.
         22    1    3    3    0    0 -0.58415502284E+02  0.12570461319E+03 -0.74614763773E+02  0.15742103943E+03  0.00000000000E+00 0. -1.
</event>
<event>
 7    1  0.5970484E-006  0.8760999E+02  0.7818608E-02  0.1417105E+00
          2   -1    0    0  502    0  0.00000000000E+00  0.00000000000E+00  0.18326999677E+04  0.18326999677E+04  0.00000000000E+00 0. -1.
          1   -1    0    0  501    0 -0.00000000000E+00 -0.00000000000E+00 -0.93209359510E+02  0.93209359510E+02  0.00000000000E+00 0. -1.
         25    2    1    2    0    0 -0.53369382521E+02  0.56263649258E+02  0.15575264089E+03  0.21424181612E+03  0.12500712544E+03 0.  0.
          2    1    1    2  501    0  0.82590722042E+02 -0.36399264946E+02 -0.31836798080E+02  0.95706402963E+02  0.00000000000E+00 0. -1.
          1    1    1    2  502    0 -0.29221339521E+02 -0.19864384312E+02  0.16155747654E+04  0.16159611081E+04  0.00000000000E+00 0. -1.
         22    1    3    3    0    0 -0.75147230689E+02  0.20410626231E+02  0.15363160801E+03  0.17223928391E+03  0.00000000000E+00 0.  1.
         22    1    3    3    0    0  0.21777848168E+02  0.35853023027E+02  0.21210328783E+01  0.42002532203E+02  0.00000000000E+00 0.  1.
</event>
<event>
 7    1  0.5970484E-006  0.9113938E+02  0.7818608E-02  0.1437472E+00
          2   -1    0    0  502    0  0.00000000000E+00  0.00000000000E+00  0.86606382702E+03  0.86606382702E+03  0.00000000000E+00 0. -1.
          1   -1    0    0  501    0 -0.00000000000E+00 -0.00000000000E+00 -0.11216942963E+04  0.11216942963E+04  0.00000000000E+00 0. -1.
         25    2    1    2    0    0  0.47987710329E+01 -0.72945873559E+02 -0.70556583986E+02  0.16108720347E+03  0.12500690743E+03 0.  0.
          2    1    1    2  501    0  0.25829269333E+02 -0.13378839154E+02 -0.10031054607E+04  0.10035271345E+04  0.00000000000E+00 0. -1.
          1    1    1    2  502    0 -0.30628040366E+02  0.86324712713E+02  0.81803157542E+03  0.82314378529E+03  0.00000000000E+00 0. -1.
         22    1    3    3    0    0  0.20774546787E+02 -0.25994571385E+02 -0.98634074412E+02  0.10409601419E+03  0.00000000000E+00 0. -1.
         22    1    3    3    0    0 -0.15975775754E+02 -0.46951302174E+02  0.28077490426E+02  0.56991189278E+02  0.00000000000E+00 0. -1.
</event>
<event>
 7    1  0.5970484E-006  0.1622328E+03  0.7818608E-02  0.1205859E+00
          2   -1    0    0  502    0  0.00000000000E+00  0.00000000000E+00  0.88520847295E+03  0.88520847295E+03  0.00000000000E+00 0. -1.
          1   -1    0    0  501    0 -0.00000000000E+00 -0.00000000000E+00 -0.42672270412E+03  0.42672270412E+03  0.00000000000E+00 0. -1.
         25    2    1    2    0    0 -0.16027600697E+03  0.11840174052E+03 -0.21188984641E+02  0.23618298311E+03  0.12500423142E+03 0.  0.
          2    1    1    2  501    0  0.35796579664E+02 -0.15873614460E+03 -0.26972622523E+03  0.31500919874E+03  0.00000000000E+00 0. -1.
          1    1    1    2  502    0  0.12447942730E+03  0.40334404081E+02  0.74940097870E+03  0.76073899522E+03  0.00000000000E+00 0. -1.
         22    1    3    3    0    0 -0.13703235679E+03  0.91880119002E+02  0.36120732446E+02  0.16889206727E+03  0.00000000000E+00 0. -1.
         22    1    3    3    0    0 -0.23243650177E+02  0.26521621520E+02 -0.57309717087E+02  0.67290915837E+02  0.00000000000E+00 0. -1.
</event>
<event>
 7    1  0.5970484E-006  0.4912516E+02  0.7818608E-02  0.1480674E+00
          2   -1    0    0  502    0  0.00000000000E+00  0.00000000000E+00  0.87763360510E+03  0.87763360510E+03  0.00000000000E+00 0. -1.
          1   -1    0    0  501    0 -0.00000000000E+00 -0.00000000000E+00 -0.29792414529E+03  0.29792414529E+03  0.00000000000E+00 0. -1.
         25    2    1    2    0    0 -0.50363617201E+02 -0.81440988267E+01  0.86279836329E+02  0.16022599091E+03  0.12500135089E+03 0.  0.
          2    1    1    2  501    0  0.39435953948E+02 -0.29722700271E+02 -0.25809377701E+03  0.26277562883E+03  0.00000000000E+00 0. -1.
          1    1    1    2  502    0  0.10927663253E+02  0.37866799097E+02  0.75152340049E+03  0.75255613065E+03  0.00000000000E+00 0. -1.
         22    1    3    3    0    0 -0.29993213944E+02  0.53218407303E+01  0.11704715201E+03  0.12094606511E+03  0.00000000000E+00 0. -1.
         22    1    3    3    0    0 -0.20370403257E+02 -0.13465939557E+02 -0.30767315680E+02  0.39279925804E+02  0.00000000000E+00 0. -1.
</event>
<event>
 7    1  0.5970484E-006  0.5097350E+02  0.7818608E-02  0.1573835E+00
          2   -1    0    0  502    0  0.00000000000E+00  0.00000000000E+00  0.25092493730E+03  0.25092493730E+03  0.00000000000E+00 0. -1.
          1   -1    0    0  501    0 -0.00000000000E+00 -0.00000000000E+00 -0.92584295353E+03  0.92584295353E+03  0.00000000000E+00 0. -1.
         25    2    1    2    0    0  0.45879134873E+02  0.53671450541E+02  0.40661932754E+02  0.14920905432E+03  0.12499771796E+03 0.  0.
          2    1    1    2  501    0 -0.29475100421E+02 -0.41401980754E+02 -0.87015219508E+03  0.87163510035E+03  0.00000000000E+00 0. -1.
          1    1    1    2  502    0 -0.16404034452E+02 -0.12269469787E+02  0.15457224609E+03  0.15592373616E+03  0.00000000000E+00 0. -1.
         22    1    3    3    0    0  0.11643412074E+02  0.90274148462E+02  0.39104975679E+02  0.99066594007E+02  0.00000000000E+00 0.  1.
         22    1    3    3    0    0  0.34235722799E+02 -0.36602697921E+02  0.15569570751E+01  0.50142460310E+02  0.00000000000E+00 0.  1.
</event>
<event>
 7    1  0.5970484E-006  0.6290692E+02  0.7818608E-02  0.1420894E+00
          2   -1    0    0  502    0  0.00000000000E+00  0.00000000000E+00  0.83197234279E+03  0.83197234279E+03  0.00000000000E+00 0. -1.
          1   -1    0    0  501    0 -0.00000000000E+00 -0.00000000000E+00 -0.13244036067E+03  0.13244036067E+03  0.00000000000E+00 0. -1.
         25    2    1    2    0    0  0.25194031969E+02 -0.83659859702E+02  0.87789458362E+02  0.17597044709E+03  0.12499959151E+03 0.  0.
          2    1    1    2  501    0  0.16169503226E+02  0.59715355335E+02 -0.76588508751E+02  0.98453929175E+02  0.00000000000E+00 0. -1.
          1    1    1    2  502    0 -0.41363535195E+02  0.23944504367E+02  0.68833103251E+03  0.68998832718E+03  0.00000000000E+00 0. -1.
         22    1    3    3    0    0 -0.43717400746E+02  0.50275050204E+00  0.26163850490E+02  0.50951064351E+02  0.00000000000E+00 0.  1.
         22    1    3    3    0    0  0.68911432716E+02 -0.84162610205E+02  0.61625607872E+02  0.12501938274E+03  0.00000000000E+00 0.  1.
</event>
<event>
 7    1  0.5970484E-006  0.1068992E+03  0.7818608E-02  0.1322304E+00
          2   -1    0    0  502    0  0.00000000000E+00  0.00000000000E+00  0.30689771475E+03  0.30689771475E+03  0.00000000000E+00 0. -1.
          1   -1    0    0  501    0 -0.00000000000E+00 -0.00000000000E+00 -0.12968889671E+04  0.12968889671E+04  0.00000000000E+00 0. -1.
         25    2    1    2    0    0  0.14572206891E+03 -0.78840289783E+02 -0.10436265436E+03  0.23230859453E+03  0.12500002722E+03 0.  0.
          2    1    1    2  501    0 -0.84469291005E+02  0.61886973881E+02 -0.11219161556E+04  0.11267923140E+04  0.00000000000E+00 0. -1.
          1    1    1    2  502    0 -0.61252777907E+02  0.16953315902E+02  0.23628755768E+03  0.24468577326E+03  0.00000000000E+00 0. -1.
         22    1    3    3    0    0  0.60230159226E+02 -0.95021068112E+02 -0.26577444070E+02  0.11559859860E+03  0.00000000000E+00 0.  1.
         22    1    3    3    0    0  0.85491909687E+02  0.16180778329E+02 -0.77785210293E+02  0.11670999593E+03  0.00000000000E+00 0.  1.
</event>
<event>
 7    1  0.5970484E-006  0.1304852E+03  0.7818608E-02  0.1372200E+00
          2   -1    0    0  502    0  0.00000000000E+00  0.00000000000E+00  0.11100658089E+04  0.11100658089E+04  0.00000000000E+00 0. -1.
          1   -1    0    0  501    0 -0.00000000000E+00 -0.00000000000E+00 -0.50358683350E+03  0.50358683350E+03  0.00000000000E+00 0. -1.
         25    2    1    2    0    0 -0.28213371710E+02  0.16107863975E+03 -0.11152353703E+03  0.23410540564E+03  0.12500207641E+03 0.  0.
          2    1    1    2  501    0  0.31474375081E+01 -0.33805091349E+02 -0.32587599697E+03  0.32763982659E+03  0.00000000000E+00 0. -1.
          1    1    1    2  502    0  0.25065934202E+02 -0.12727354840E+03  0.10438785095E+04  0.10519074102E+04  0.00000000000E+00 0. -1.
         22    1    3    3    0    0  0.35147162905E+02  0.49952906039E+02 -0.82987293745E+02  0.10304128690E+03  0.00000000000E+00 0.  1.
         22    1    3    3    0    0 -0.63360534615E+02  0.11112573371E+03 -0.28536243287E+02  0.13106411874E+03  0.00000000000E+00 0.  1.
</event>
<event>
 7    1  0.5970484E-006  0.1620025E+03  0.7818608E-02  0.1256969E+00
          2   -1    0    0  502    0  0.00000000000E+00  0.00000000000E+00  0.71079954225E+03  0.71079954225E+03  0.00000000000E+00 0. -1.
          1   -1    0    0  501    0 -0.00000000000E+00 -0.00000000000E+00 -0.49963125137E+03  0.49963125137E+03  0.00000000000E+00 0. -1.
         25    2    1    2    0    0  0.12523360223E+03  0.76369155728E+02  0.12200533752E+02  0.19310571703E+03  0.12500104740E+03 0.  0.
          2    1    1    2  501    0 -0.16664642063E+03 -0.10996295323E+02 -0.38949780587E+03  0.42379297870E+03  0.00000000000E+00 0. -1.
          1    1    1    2  502    0  0.41412818405E+02 -0.65372860405E+02  0.58846556299E+03  0.59353209790E+03  0.00000000000E+00 0. -1.
         22    1    3    3    0    0 -0.85803559940E+01  0.49686681083E+02 -0.17665477915E+02  0.53427126967E+02  0.00000000000E+00 0.  1.
         22    1    3    3    0    0  0.13381395822E+03  0.26682474646E+02  0.29866011667E+02  0.13967859006E+03  0.00000000000E+00 0.  1.
</event>
<event>
 7    1  0.5970484E-006  0.3617979E+02  0.7818608E-02  0.1579096E+00
          2   -1    0    0  502    0  0.00000000000E+00  0.00000000000E+00  0.10463537738E+04  0.10463537738E+04  0.00000000000E+00 0. -1.
          1   -1    0    0  501    0 -0.00000000000E+00 -0.00000000000E+00 -0.18884257377E+03  0.18884257377E+03  0.00000000000E+00 0. -1.
         25    2    1    2    0    0  0.42177730981E+02 -0.42666630620E+02  0.75816413753E+02  0.15802671777E+03  0.12499965030E+03 0.  0.
          2    1    1    2  501    0 -0.16451573555E+02  0.31780953945E+02 -0.14535678350E+03  0.14969728727E+03  0.00000000000E+00 0. -1.
          1    1    1    2  502    0 -0.25726157427E+02  0.10885676675E+02  0.92705156976E+03  0.92747234252E+03  0.00000000000E+00 0. -1.
         22    1    3    3    0    0 -0.36573767059E+02 -0.35946829327E+01 -0.68154643530E+01  0.37376633565E+02  0.00000000000E+00 0.  1.
         22    1    3    3    0    0  0.78751498041E+02 -0.39071947687E+02  0.82631878106E+02  0.12065008421E+03  0.00000000000E+00 0.  1.
</event>
<event>
 7    1  0.5970484E-006  0.5412157E+02  0.7818608E-02  0.1453710E+00
          2   -1    0    0  502    0  0.00000000000E+00  0.00000000000E+00  0.12689392771E+04  0.12689392771E+04  0.00000000000E+00 0. -1.
          1   -1    0    0  501    0 -0.00000000000E+00 -0.00000000000E+00 -0.38227400097E+02  0.38227400097E+02  0.00000000000E+00 0. -1.
         25    2    1    2    0    0  0.82283494386E+02  0.25782777041E+02  0.61697091768E+03  0.63538445287E+03  0.12499985859E+03 0.  0.
          2    1    1    2  501    0 -0.31366280227E+02 -0.30036931559E+02 -0.11124743838E+02  0.44831024059E+02  0.00000000000E+00 0. -1.
          1    1    1    2  502    0 -0.50917214159E+02  0.42541545186E+01  0.62486570314E+03  0.62695120025E+03  0.00000000000E+00 0. -1.
         22    1    3    3    0    0 -0.14840819893E+02 -0.30599766890E+02  0.82361856483E+02  0.89107076443E+02  0.00000000000E+00 0. -1.
         22    1    3    3    0    0  0.97124314280E+02  0.56382543930E+02  0.53460906120E+03  0.54627737643E+03  0.00000000000E+00 0. -1.
</event>
<event>
 7    1  0.5970484E-006  0.8989533E+02  0.7818608E-02  0.1308163E+00
          2   -1    0    0  502    0  0.00000000000E+00  0.00000000000E+00  0.20515484300E+03  0.20515484300E+03  0.00000000000E+00 0. -1.
          1   -1    0    0  501    0 -0.00000000000E+00 -0.00000000000E+00 -0.63813780577E+03  0.63813780577E+03  0.00000000000E+00 0. -1.
         25    2    1    2    0    0  0.77688409774E+01  0.80754311437E+02 -0.13603545218E+02  0.14963839259E+03  0.12499991355E+03 0.  0.
          2    1    1    2  501    0  0.79019424290E+02 -0.33521966756E+02 -0.53484131457E+03  0.54168535465E+03  0.00000000000E+00 0. -1.
          1    1    1    2  502    0 -0.86788265267E+02 -0.47232344681E+02  0.11546189702E+03  0.15196890154E+03  0.00000000000E+00 0. -1.
         22    1    3    3    0    0  0.34169067758E+02  0.20160239006E+02 -0.57816027918E+02  0.70118852761E+02  0.00000000000E+00 0.  1.
         22    1    3    3    0    0 -0.26400226781E+02  0.60594072431E+02  0.44212482701E+02  0.79519539828E+02  0.00000000000E+00 0.  1.
</event>
<event>
 7    1  0.5970484E-006  0.5172285E+02  0.7818608E-02  0.1522485E+00
          2   -1    0    0  502    0  0.00000000000E+00  0.00000000000E+00  0.31311316103E+02  0.31311316103E+02  0.00000000000E+00 0. -1.
          1   -1    0    0  501    0 -0.00000000000E+00 -0.00000000000E+00 -0.57797507625E+03  0.57797507625E+03  0.00000000000E+00 0. -1.
         25    2    1    2    0    0 -0.18180490072E+02 -0.45201278177E+02 -0.30099263948E+03  0.32954012437E+03  0.12500575500E+03 0.  0.
          2    1    1    2  501    0  0.42972852744E+02  0.31971906855E+02 -0.24587799306E+03  0.25164430526E+03  0.00000000000E+00 0. -1.
          1    1    1    2  502    0 -0.24792362672E+02  0.13229371321E+02  0.20687239195E+00  0.28101962718E+02  0.00000000000E+00 0. -1.
         22    1    3    3    0    0  0.26420506597E+02  0.12057704890E+01 -0.53649376378E+01  0.26986656095E+02  0.00000000000E+00 0. -1.
         22    1    3    3    0    0 -0.44600996669E+02 -0.46407048666E+02 -0.29562770185E+03  0.30255346828E+03  0.00000000000E+00 0. -1.
</event>
<event>
 7    1  0.5970484E-006  0.6953662E+02  0.7818608E-02  0.1455275E+00
          2   -1    0    0  502    0  0.00000000000E+00  0.00000000000E+00  0.25429187762E+04  0.25429187762E+04  0.00000000000E+00 0. -1.
          1   -1    0    0  501    0 -0.00000000000E+00 -0.00000000000E+00 -0.94967979970E+03  0.94967979970E+03  0.00000000000E+00 0. -1.
         25    2    1    2    0    0 -0.61342126258E+02  0.30193709624E+02  0.53342913137E+03  0.55212844973E+03  0.12499868100E+03 0.  0.
          2    1    1    2  501    0  0.69523370620E+02  0.22055129475E+01 -0.93890394209E+03  0.94147701822E+03  0.00000000000E+00 0. -1.
          1    1    1    2  502    0 -0.81812443618E+01 -0.32399222572E+02  0.19987137873E+04  0.19989931080E+04  0.00000000000E+00 0. -1.
         22    1    3    3    0    0 -0.70909603595E+02  0.69056128279E+02  0.31923918102E+03  0.33423132024E+03  0.00000000000E+00 0. -1.
         22    1    3    3    0    0  0.95674773372E+01 -0.38862418655E+02  0.21418995035E+03  0.21789712948E+03  0.00000000000E+00 0. -1.
</event>
<event>
 7    1  0.5970484E-006  0.1562409E+03  0.7818608E-02  0.1315766E+00
          2   -1    0    0  502    0  0.00000000000E+00  0.00000000000E+00  0.28290481853E+04  0.28290481853E+04  0.00000000000E+00 0. -1.
          1   -1    0    0  501    0 -0.00000000000E+00 -0.00000000000E+00 -0.56130868862E+03  0.56130868862E+03  0.00000000000E+00 0. -1.
         25    2    1    2    0    0  0.52945405712E+02  0.19217743782E+03 -0.61978096076E+02  0.24332226649E+03  0.12501622848E+03 0.  0.
          2    1    1    2  501    0 -0.24230729646E+02 -0.39223277360E+02 -0.40513890574E+03  0.40775375742E+03  0.00000000000E+00 0. -1.
          1    1    1    2  502    0 -0.28714676065E+02 -0.15295416046E+03  0.27348564985E+04  0.27392808500E+04  0.00000000000E+00 0. -1.
         22    1    3    3    0    0  0.53805717654E+02  0.20316915508E+03 -0.77737539214E+02  0.22408901319E+03  0.00000000000E+00 0.  1.
         22    1    3    3    0    0 -0.86031194264E+00 -0.10991717253E+02  0.15759443138E+02  0.19233253308E+02  0.00000000000E+00 0.  1.
</event>
<event>
 7    1  0.5970484E-006  0.5524882E+02  0.7818608E-02  0.1534309E+00
          2   -1    0    0  502    0  0.00000000000E+00  0.00000000000E+00  0.16442888218E+04  0.16442888218E+04  0.00000000000E+00 0. -1.
          1   -1    0    0  501    0 -0.00000000000E+00 -0.00000000000E+00 -0.49916590025E+03  0.49916590025E+03  0.00000000000E+00 0. -1.
         25    2    1    2    0    0 -0.19816611017E+02 -0.24211915317E+02  0.34833577261E+03  0.37140888402E+03  0.12501133441E+03 0.  0.
          2    1    1    2  501    0  0.31259301733E+02  0.45682763688E+02 -0.48594272201E+03  0.48908525629E+03  0.00000000000E+00 0. -1.
          1    1    1    2  502    0 -0.11442690716E+02 -0.21470848371E+02  0.12827298710E+04  0.12829605818E+04  0.00000000000E+00 0. -1.
         22    1    3    3    0    0 -0.57812294265E+02 -0.52452389648E+02  0.17302978052E+03  0.18982312687E+03  0.00000000000E+00 0.  1.
         22    1    3    3    0    0  0.37995683248E+02  0.28240474331E+02  0.17530599208E+03  0.18158575714E+03  0.00000000000E+00 0.  1.
</event>
<event>
 7    1  0.5970484E-006  0.2399963E+03  0.7818608E-02  0.1213561E+00
          2   -1    0    0  502    0  0.00000000000E+00  0.00000000000E+00  0.42767951017E+03  0.42767951017E+03  0.00000000000E+00 0. -1.
          1   -1    0    0  501    0 -0.00000000000E+00 -0.00000000000E+00 -0.58140309569E+03  0.58140309569E+03  0.00000000000E+00 0. -1.
         25    2    1    2    0    0 -0.16759523610E+03 -0.10918519862E+03  0.15609945991E+03  0.28284802072E+03  0.12500556260E+03 0.  0.
          2    1    1    2  501    0  0.15714722586E+03  0.18997918331E+03 -0.47885244541E+03  0.53859725692E+03  0.00000000000E+00 0. -1.
          1    1    1    2  502    0  0.10448010243E+02 -0.80793984687E+02  0.16902939999E+03  0.18763732822E+03  0.00000000000E+00 0. -1.
         22    1    3    3    0    0 -0.69317115347E+02 -0.61646424899E+02  0.49437682745E+00  0.92765233743E+02  0.00000000000E+00 0. -1.
         22    1    3    3    0    0 -0.98278120753E+02 -0.47538773726E+02  0.15560508308E+03  0.19008278698E+03  0.00000000000E+00 0. -1.
</event>
<event>
 7    1  0.5970484E-006  0.1084808E+03  0.7818608E-02  0.1366292E+00
          2   -1    0    0  502    0  0.00000000000E+00  0.00000000000E+00  0.43390786513E+04  0.43390786513E+04  0.00000000000E+00 0. -1.
          1   -1    0    0  501    0 -0.00000000000E+00 -0.00000000000E+00 -0.34701884089E+03  0.34701884089E+03  0.00000000000E+00 0. -1.
         25    2    1    2    0    0 -0.87387513488E+02 -0.69300843141E+01  0.11657010111E+04  0.11756564047E+04  0.12499812488E+03 0.  0.
          2    1    1    2  501    0 -0.22319743865E+02  0.36621747239E+02 -0.33967309037E+03  0.34236987551E+03  0.00000000000E+00 0. -1.
          1    1    1    2  502    0  0.10970725735E+03 -0.29691662925E+02  0.31660318897E+04  0.31680712119E+04  0.00000000000E+00 0. -1.
         22    1    3    3    0    0 -0.22707491726E+02 -0.62495369418E+02  0.44798638945E+03  0.45289414493E+03  0.00000000000E+00 0. -1.
         22    1    3    3    0    0 -0.64680021762E+02  0.55565285104E+02  0.71771462162E+03  0.72276225981E+03  0.00000000000E+00 0. -1.
</event>
<event>
 7    1  0.5970484E-006  0.4622259E+02  0.7818608E-02  0.1487635E+00
          2   -1    0    0  502    0  0.00000000000E+00  0.00000000000E+00  0.55580047385E+03  0.55580047385E+03  0.00000000000E+00 0. -1.
          1   -1    0    0  501    0 -0.00000000000E+00 -0.00000000000E+00 -0.63105367356E+03  0.63105367356E+03  0.00000000000E+00 0. -1.
         25    2    1    2    0    0  0.42081956552E+02  0.32818202392E+02 -0.56619085945E+03  0.58227519544E+03  0.12499755368E+03 0.  0.
          2    1    1    2  501    0 -0.44993231861E+01 -0.46183862701E+02 -0.46483010860E+02  0.65680007474E+02  0.00000000000E+00 0. -1.
          1    1    1    2  502    0 -0.37582633366E+02  0.13365660310E+02  0.53742067059E+03  0.53889894450E+03  0.00000000000E+00 0. -1.
         22    1    3    3    0    0 -0.25018862773E+02 -0.17087798086E+02 -0.43947984880E+02  0.53379412819E+02  0.00000000000E+00 0. -1.
         22    1    3    3    0    0  0.67100819325E+02  0.49906000477E+02 -0.52224287457E+03  0.52889578262E+03  0.00000000000E+00 0. -1.
</event>
<event>
 7    1  0.5970484E-006  0.6082585E+02  0.7818608E-02  0.1445308E+00
          2   -1    0    0  502    0  0.00000000000E+00  0.00000000000E+00  0.19918019889E+04  0.19918019889E+04  0.00000000000E+00 0. -1.
          1   -1    0    0  501    0 -0.00000000000E+00 -0.00000000000E+00 -0.49219177351E+03  0.49219177351E+03  0.00000000000E+00 0. -1.
         25    2    1    2    0    0  0.85159681444E+02  0.35402937108E+02  0.42008737392E+03  0.44788855542E+03  0.12500086818E+03 0.  0.
          2    1    1    2  501    0 -0.60664819904E+02 -0.23857276708E+01 -0.47609191258E+03  0.47994731096E+03  0.00000000000E+00 0. -1.
          1    1    1    2  502    0 -0.24494861540E+02 -0.33017209437E+02  0.15556147540E+04  0.15561578960E+04  0.00000000000E+00 0. -1.
         22    1    3    3    0    0 -0.30031490794E+02  0.24917181632E+02  0.89030765431E+02  0.97207168321E+02  0.00000000000E+00 0.  1.
         22    1    3    3    0    0  0.11519117224E+03  0.10485755476E+02  0.33105660849E+03  0.35068138710E+03  0.00000000000E+00 0.  1.
</event>
<event>
 7    1  0.5970484E-006  0.1602618E+03  0.7818608E-02  0.1215825E+00
          2   -1    0    0  502    0  0.00000000000E+00  0.00000000000E+00  0.17155263337E+04  0.17155263337E+04  0.00000000000E+00 0. -1.
          1   -1    0    0  501    0 -0.00000000000E+00 -0.00000000000E+00 -0.48357441811E+03  0.48357441811E+03  0.00000000000E+00 0. -1.
         25    2    1    2    0    0  0.78423786467E+02  0.15640603444E+02 -0.82981715505E+02  0.17001741090E+03  0.12500014456E+03 0.  0.
          2    1    1    2  501    0  0.59772761680E+02 -0.10302403450E+03 -0.34300763901E+03  0.36309912578E+03  0.00000000000E+00 0. -1.
          1    1    1    2  502    0 -0.13819654815E+03  0.87383431056E+02  0.16579412701E+04  0.16659842152E+04  0.00000000000E+00 0. -1.
         22    1    3    3    0    0  0.90200560427E+02  0.43812413832E+02 -0.94106335227E+02  0.13751971145E+03  0.00000000000E+00 0.  1.
         22    1    3    3    0    0 -0.11776773959E+02 -0.28171810388E+02  0.11124619721E+02  0.32497699447E+02  0.00000000000E+00 0.  1.
</event>
<event>
 7    1  0.5970484E-006  0.5217364E+02  0.7818608E-02  0.1436780E+00
          2   -1    0    0  502    0  0.00000000000E+00  0.00000000000E+00  0.80727349967E+03  0.80727349967E+03  0.00000000000E+00 0. -1.
          1   -1    0    0  501    0 -0.00000000000E+00 -0.00000000000E+00 -0.37723006684E+02  0.37723006684E+02  0.00000000000E+00 0. -1.
         25    2    1    2    0    0  0.46483023601E+01  0.65134450187E+02  0.26624043990E+03  0.30128614192E+03  0.12500105664E+03 0.  0.
          2    1    1    2  501    0  0.38083916657E+02 -0.34037840882E+02  0.15974694220E+02  0.53517755701E+02  0.00000000000E+00 0. -1.
          1    1    1    2  502    0 -0.42732219017E+02 -0.31096609304E+02  0.48733535887E+03  0.49019260873E+03  0.00000000000E+00 0. -1.
         22    1    3    3    0    0 -0.16685119454E+02  0.80418845894E+02  0.85154338313E+02  0.11830826395E+03  0.00000000000E+00 0. -1.
         22    1    3    3    0    0  0.21333421814E+02 -0.15284395707E+02  0.18108610158E+03  0.18297787797E+03  0.00000000000E+00 0. -1.
</event>
<event>
 7    1  0.5970484E-006  0.1150383E+03  0.7818608E-02  0.1290826E+00
          2   -1    0    0  502    0  0.00000000000E+00  0.00000000000E+00  0.60335752190E+03  0.60335752190E+03  0.00000000000E+00 0. -1.
          1   -1    0    0  501    0 -0.00000000000E+00 -0.00000000000E+00 -0.87990024855E+03  0.87990024855E+03  0.00000000000E+00 0. -1.
         25    2    1    2    0    0 -0.43309051016E+01  0.59937197978E+02 -0.50802567453E+03  0.52661773637E+03  0.12499971933E+03 0.  0.
          2    1    1    2  501    0 -0.11037584737E+03 -0.68664604340E+02 -0.34505957809E+03  0.36873265112E+03  0.00000000000E+00 0. -1.
          1    1    1    2  502    0  0.11470675247E+03  0.87274063614E+01  0.57654252597E+03  0.58790738296E+03  0.00000000000E+00 0. -1.
         22    1    3    3    0    0 -0.13079777328E+01  0.60350763222E+02 -0.51525079322E+03  0.51877481178E+03  0.00000000000E+00 0.  1.
         22    1    3    3    0    0 -0.30229273688E+01 -0.41356524375E+00  0.72251186839E+01  0.78429245874E+01  0.00000000000E+00 0.  1.
</event>
<event>
 7    1  0.5970484E-006  0.6490451E+02  0.7818608E-02  0.1537057E+00
          2   -1    0    0  502    0  0.00000000000E+00  0.00000000000E+00  0.13935013873E+04  0.13935013873E+04  0.00000000000E+00 0. -1.
          1   -1    0    0  501    0 -0.00000000000E+00 -0.00000000000E+00 -0.14747811510E+03  0.14747811510E+03  0.00000000000E+00 0. -1.
         25    2    1    2    0    0 -0.12194957341E+02  0.45092364750E+02  0.72649512360E+02  0.15193837201E+03  0.12500111560E+03 0.  0.
          2    1    1    2  501    0  0.12322500294E+02 -0.65432904086E+02 -0.97466416326E+02  0.11803817714E+03  0.00000000000E+00 0. -1.
          1    1    1    2  502    0 -0.12754295264E+00  0.20340539336E+02  0.12708401762E+04  0.12710029533E+04  0.00000000000E+00 0. -1.
         22    1    3    3    0    0  0.82314788849E+01 -0.40432777046E+02  0.41847544383E+02  0.58768900578E+02  0.00000000000E+00 0. -1.
         22    1    3    3    0    0 -0.20426436226E+02  0.85525141796E+02  0.30801967977E+02  0.93169471434E+02  0.00000000000E+00 0. -1.
</event>
<event>
 7    1  0.5970484E-006  0.4267618E+02  0.7818608E-02  0.1567739E+00
          2   -1    0    0  502    0  0.00000000000E+00  0.00000000000E+00  0.11527979022E+03  0.11527979022E+03  0.00000000000E+00 0. -1.
          1   -1    0    0  501    0 -0.00000000000E+00 -0.00000000000E+00 -0.15662734075E+03  0.15662734075E+03  0.00000000000E+00 0. -1.
         25    2    1    2    0    0 -0.28005064495E+02 -0.49061654074E+02 -0.30005111052E+02  0.14041375611E+03  0.12499754669E+03 0.  0.
          2    1    1    2  501    0 -0.60250027649E+01  0.24693424967E+02 -0.61275654950E+02  0.66338313096E+02  0.00000000000E+00 0. -1.
          1    1    1    2  502    0  0.34030067260E+02  0.24368229106E+02  0.49933215472E+02  0.65155061774E+02  0.00000000000E+00 0. -1.
         22    1    3    3    0    0 -0.36223283491E+02 -0.56751283096E+02 -0.71033143893E+02  0.97870025704E+02  0.00000000000E+00 0.  1.
         22    1    3    3    0    0  0.82182189963E+01  0.76896290223E+01  0.41028032841E+02  0.42543730405E+02  0.00000000000E+00 0.  1.
</event>
<event>
 7    1  0.5970484E-006  0.1804982E+03  0.7818608E-02  0.1272690E+00
          2   -1    0    0  502    0  0.00000000000E+00  0.00000000000E+00  0.15702445747E+03  0.15702445747E+03  0.00000000000E+00 0. -1.
          1   -1    0    0  501    0 -0.00000000000E+00 -0.00000000000E+00 -0.69983300272E+03  0.69983300272E+03  0.00000000000E+00 0. -1.
         25    2    1    2    0    0 -0.15565614920E+03 -0.13593078907E+02 -0.94523320069E+02  0.22129807397E+03  0.12499828371E+03 0.  0.
          2    1    1    2  501    0  0.18434330316E+03 -0.38631480850E+02 -0.51366119396E+03  0.54710389041E+03  0.00000000000E+00 0. -1.
          1    1    1    2  502    0 -0.28687153961E+02  0.52224559758E+02  0.65375968781E+02  0.88455495806E+02  0.00000000000E+00 0. -1.
         22    1    3    3    0    0  0.13933225783E+02 -0.16072968735E+02 -0.36117457701E+02  0.41915937965E+02  0.00000000000E+00 0. -1.
         22    1    3    3    0    0 -0.16958937498E+03  0.24798898279E+01 -0.58405862368E+02  0.17938213601E+03  0.00000000000E+00 0. -1.
</event>
<event>
 7    1  0.5970484E-006  0.6032355E+02  0.7818608E-02  0.1398676E+00
          2   -1    0    0  502    0  0.00000000000E+00  0.00000000000E+00  0.75267916773E+03  0.75267916773E+03  0.00000000000E+00 0. -1.
          1   -1    0    0  501    0 -0.00000000000E+00 -0.00000000000E+00 -0.25193007418E+03  0.25193007418E+03  0.00000000000E+00 0. -1.
         25    2    1    2    0    0  0.18963092630E+02 -0.12417783006E+01  0.72604386094E+02  0.14579973740E+03  0.12500010260E+03 0.  0.
          2    1    1    2  501    0  0.49768330362E+01  0.59070482649E+02 -0.20969162583E+03  0.21790977200E+03  0.00000000000E+00 0. -1.
          1    1    1    2  502    0 -0.23939925667E+02 -0.57828704348E+02  0.63783633329E+03  0.64089973252E+03  0.00000000000E+00 0. -1.
         22    1    3    3    0    0  0.50480180696E+02  0.36593772750E+02  0.55344750392E+01  0.62593795708E+02  0.00000000000E+00 0.  1.
         22    1    3    3    0    0 -0.31517088065E+02 -0.37835551051E+02  0.67069911055E+02  0.83205941689E+02  0.00000000000E+00 0.  1.
</event>
<event>
 7    1  0.5970484E-006  0.8461920E+02  0.7818608E-02  0.1327652E+00
          2   -1    0    0  502    0  0.00000000000E+00  0.00000000000E+00  0.12989930497E+04  0.12989930497E+04  0.00000000000E+00 0. -1.
          1   -1    0    0  501    0 -0.00000000000E+00 -0.00000000000E+00 -0.45322254531E+03  0.45322254531E+03  0.00000000000E+00 0. -1.
         25    2    1    2    0    0  0.37455810708E+02  0.12873731017E+03  0.69702111553E+03  0.72072128909E+03  0.12499803304E+03 0.  0.
          2    1    1    2  501    0  0.22688048098E+02 -0.81345476245E+02 -0.43480871673E+03  0.44293391626E+03  0.00000000000E+00 0. -1.
          1    1    1    2  502    0 -0.60143858807E+02 -0.47391833929E+02  0.58355810559E+03  0.58856038966E+03  0.00000000000E+00 0. -1.
         22    1    3    3    0    0  0.75154618982E+02  0.37204836887E+02  0.29456039029E+03  0.30626498358E+03  0.00000000000E+00 0.  1.
         22    1    3    3    0    0 -0.37698808274E+02  0.91532473287E+02  0.40246072524E+03  0.41445630551E+03  0.00000000000E+00 0.  1.
</event>
<event>
 7    1  0.5970484E-006  0.1296950E+03  0.7818608E-02  0.1286740E+00
          2   -1    0    0  502    0  0.00000000000E+00  0.00000000000E+00  0.82750559068E+03  0.82750559068E+03  0.00000000000E+00 0. -1.
          1   -1    0    0  501    0 -0.00000000000E+00 -0.00000000000E+00 -0.30671628709E+03  0.30671628709E+03  0.00000000000E+00 0. -1.
         25    2    1    2    0    0 -0.64955427800E+02 -0.63017557179E+02  0.15310176960E+03  0.21738278225E+03  0.12499880820E+03 0.  0.
          2    1    1    2  501    0  0.35719837208E+02  0.12940848196E+03 -0.25593724488E+03  0.28900923046E+03  0.00000000000E+00 0. -1.
          1    1    1    2  502    0  0.29235590592E+02 -0.66390924779E+02  0.62362477887E+03  0.62782986506E+03  0.00000000000E+00 0. -1.
         22    1    3    3    0    0  0.29060769129E+02 -0.12761370389E+02  0.85372731188E+02  0.91081744094E+02  0.00000000000E+00 0.  1.
         22    1    3    3    0    0 -0.94016196929E+02 -0.50256186790E+02  0.67729038410E+02  0.12630103816E+03  0.00000000000E+00 0.  1.
</event>
<event>
 7    1  0.5970484E-006  0.2266015E+03  0.7818608E-02  0.1242139E+00
          2   -1    0    0  502    0  0.00000000000E+00  0.00000000000E+00  0.49010195635E+03  0.49010195635E+03  0.00000000000E+00 0. -1.
          1   -1    0    0  501    0 -0.00000000000E+00 -0.00000000000E+00 -0.26518278106E+03  0.26518278106E+03  0.00000000000E+00 0. -1.
         25    2    1    2    0    0 -0.18200082425E+03 -0.48965365269E+02  0.66320481303E+02  0.23568066896E+03  0.12500025782E+03 0.  0.
          2    1    1    2  501    0  0.23329676055E+03  0.87514848358E+02 -0.88414699372E+02  0.26439248520E+03  0.00000000000E+00 0. -1.
          1    1    1    2  502    0 -0.51295936294E+02 -0.38549483089E+02  0.24701339336E+03  0.25521158325E+03  0.00000000000E+00 0. -1.
         22    1    3    3    0    0 -0.58216063622E+02 -0.37326813677E+02  0.85406114531E+02  0.10989360983E+03  0.00000000000E+00 0.  1.
         22    1    3    3    0    0 -0.12378476063E+03 -0.11638551592E+02 -0.19085633228E+02  0.12578705912E+03  0.00000000000E+00 0.  1.
</event>
<event>
 7    1  0.5970484E-006  0.9336935E+02  0.7818608E-02  0.1351813E+00
          2   -1    0    0  502    0  0.00000000000E+00  0.00000000000E+00  0.15297765374E+03  0.15297765374E+03  0.00000000000E+00 0. -1.
          1   -1    0    0  501    0 -0.00000000000E+00 -0.00000000000E+00 -0.61610471922E+03  0.61610471922E+03  0.00000000000E+00 0. -1.
         25    2    1    2    0    0  0.66953613789E+02 -0.80871779276E+01 -0.14064129915E+03  0.19988222420E+03  0.12499895871E+03 0.  0.
          2    1    1    2  501    0 -0.90442627131E+02 -0.43062425850E+02 -0.43339795147E+03  0.44482358937E+03  0.00000000000E+00 0. -1.
          1    1    1    2  502    0  0.23489013342E+02  0.51149603778E+02  0.11091218513E+03  0.12437655939E+03  0.00000000000E+00 0. -1.
         22    1    3    3    0    0 -0.22601654139E+02 -0.11010311209E+02 -0.97021530381E+02  0.10022594016E+03  0.00000000000E+00 0.  1.
         22    1    3    3    0    0  0.89555267928E+02  0.29231332811E+01 -0.43619768768E+02  0.99656284043E+02  0.00000000000E+00 0.  1.
</event>
<event>
 7    1  0.5970484E-006  0.3959619E+02  0.7818608E-02  0.1511353E+00
          2   -1    0    0  502    0  0.00000000000E+00  0.00000000000E+00  0.60400147580E+03  0.60400147580E+03  0.00000000000E+00 0. -1.
          1   -1    0    0  501    0 -0.00000000000E+00 -0.00000000000E+00 -0.43871415172E+03  0.43871415172E+03  0.00000000000E+00 0. -1.
         25    2    1    2    0    0 -0.21213986600E+02  0.23671193906E+01  0.41888060006E+00  0.12680876843E+03  0.12499860723E+03 0.  0.
          2    1    1    2  501    0  0.14203957315E+02  0.36960864359E+02 -0.37373364204E+03  0.37582534919E+03  0.00000000000E+00 0. -1.
          1    1    1    2  502    0  0.70100292856E+01 -0.39327983749E+02  0.53860208552E+03  0.54008150991E+03  0.00000000000E+00 0. -1.
         22    1    3    3    0    0 -0.41257319714E+02  0.53688542727E+02  0.15953910814E+02  0.69564023176E+02  0.00000000000E+00 0.  1.
         22    1    3    3    0    0  0.20043333114E+02 -0.51321423336E+02 -0.15535030214E+02  0.57244745255E+02  0.00000000000E+00 0.  1.
</event>
<event>
 7    1  0.5970484E-006  0.1187833E+03  0.7818608E-02  0.1346135E+00
          2   -1    0    0  502    0  0.00000000000E+00  0.00000000000E+00  0.17962021039E+04  0.17962021039E+04  0.00000000000E+00 0. -1.
          1   -1    0    0  501    0 -0.00000000000E+00 -0.00000000000E+00 -0.60066866016E+03  0.60066866016E+03  0.00000000000E+00 0. -1.
         25    2    1    2    0    0 -0.91050201276E+01  0.83054040199E+02  0.12904361701E+04  0.12991658276E+04  0.12500185436E+03 0.  0.
          2    1    1    2  501    0 -0.22860186770E+02 -0.11674533964E+03 -0.58927141199E+03  0.60115959566E+03  0.00000000000E+00 0. -1.
          1    1    1    2  502    0  0.31965206898E+02  0.33691299443E+02  0.49436868569E+03  0.49654534083E+03  0.00000000000E+00 0. -1.
         22    1    3    3    0    0  0.28110576346E+02  0.68448796715E+02  0.34320327683E+03  0.35108963456E+03  0.00000000000E+00 0.  1.
         22    1    3    3    0    0 -0.37215596474E+02  0.14605243483E+02  0.94723289323E+03  0.94807619302E+03  0.00000000000E+00 0.  1.
</event>
<event>
 7    1  0.5970484E-006  0.4159611E+02  0.7818608E-02  0.1548826E+00
          2   -1    0    0  502    0  0.00000000000E+00  0.00000000000E+00  0.52695872749E+03  0.52695872749E+03  0.00000000000E+00 0. -1.
          1   -1    0    0  501    0 -0.00000000000E+00 -0.00000000000E+00 -0.13282883122E+04  0.13282883122E+04  0.00000000000E+00 0. -1.
         25    2    1    2    0    0 -0.52638843403E+02 -0.45586253767E+02 -0.79613518635E+02  0.16374224363E+03  0.12499702250E+03 0.  0.
          2    1    1    2  501    0  0.17576102075E+02  0.23576680331E+02 -0.12055471942E+04  0.12059058075E+04  0.00000000000E+00 0. -1.
          1    1    1    2  502    0  0.35062741328E+02  0.22009573437E+02  0.48383112810E+03  0.48559898854E+03  0.00000000000E+00 0. -1.
         22    1    3    3    0    0  0.30818220289E+02 -0.16353259809E+02  0.11536583075E+02  0.36746218271E+02  0.00000000000E+00 0. -1.
         22    1    3    3    0    0 -0.83457063692E+02 -0.29232993958E+02 -0.91150101711E+02  0.12699602536E+03  0.00000000000E+00 0. -1.
</event>
<event>
 7    1  0.5970484E-006  0.3287080E+02  0.7818608E-02  0.1621624E+00
          2   -1    0    0  502    0  0.00000000000E+00  0.00000000000E+00  0.76774609753E+03  0.76774609753E+03  0.00000000000E+00 0. -1.
          1   -1    0    0  501    0 -0.00000000000E+00 -0.00000000000E+00 -0.48345570977E+03  0.48345570977E+03  0.00000000000E+00 0. -1.
         25    2    1    2    0    0 -0.11335404497E+02  0.11465637508E+01  0.79307700935E+02  0.14847563708E+03  0.12500198948E+03 0.  0.
          2    1    1    2  501    0 -0.19171442477E+02 -0.14115109050E+02 -0.44813542962E+03  0.44876736043E+03  0.00000000000E+00 0. -1.
          1    1    1    2  502    0  0.30506846974E+02  0.12968545299E+02  0.65311811644E+03  0.65395880979E+03  0.00000000000E+00 0. -1.
         22    1    3    3    0    0  0.14244807410E+02 -0.49534085634E+02  0.75713119733E+02  0.91591575363E+02  0.00000000000E+00 0. -1.
         22    1    3    3    0    0 -0.25580211907E+02  0.50680649385E+02  0.35945812019E+01  0.56884061716E+02  0.00000000000E+00 0. -1.
</event>
<event>
 7    1  0.5970484E-006  0.7423715E+02  0.7818608E-02  0.1357985E+00
          2   -1    0    0  502    0  0.00000000000E+00  0.00000000000E+00  0.13908097665E+04  0.13908097665E+04  0.00000000000E+00 0. -1.
          1   -1    0    0  501    0 -0.00000000000E+00 -0.00000000000E+00 -0.49626371865E+02  0.49626371865E+02  0.00000000000E+00 0. -1.
         25    2    1    2    0    0 -0.27760175925E+02  0.13544285842E+02  0.72171589074E+03  0.73311175507E+03  0.12499977371E+03 0.  0.
          2    1    1    2  501    0  0.63904757756E+02  0.43090649375E+02 -0.68817626793E+01  0.77382044332E+02  0.00000000000E+00 0. -1.
          1    1    1    2  502    0 -0.36144581832E+02 -0.56634935217E+02  0.62634926656E+03  0.62994233895E+03  0.00000000000E+00 0. -1.
         22    1    3    3    0    0 -0.41702607954E+02 -0.23331935687E+02  0.64583647717E+03  0.64760191628E+03  0.00000000000E+00 0.  1.
         22    1    3    3    0    0  0.13942432030E+02  0.36876221529E+02  0.75879413577E+02  0.85509838791E+02  0.00000000000E+00 0.  1.
</event>
<event>
 7    1  0.5970484E-006  0.4571758E+02  0.7818608E-02  0.1529918E+00
          2   -1    0    0  502    0  0.00000000000E+00  0.00000000000E+00  0.14446047815E+04  0.14446047815E+04  0.00000000000E+00 0. -1.
          1   -1    0    0  501    0 -0.00000000000E+00 -0.00000000000E+00 -0.22641069650E+03  0.22641069650E+03  0.00000000000E+00 0. -1.
         25    2    1    2    0    0 -0.42611583505E+02  0.70864142306E+01  0.19785684109E+03  0.23798905683E+03  0.12500198914E+03 0.  0.
          2    1    1    2  501    0  0.39658674998E+02  0.23032700966E+02 -0.20360692442E+03  0.20870815865E+03  0.00000000000E+00 0. -1.
          1    1    1    2  502    0  0.29529085077E+01 -0.30119115197E+02  0.12239441683E+04  0.12243182625E+04  0.00000000000E+00 0. -1.
         22    1    3    3    0    0  0.29315966586E+02  0.32253161752E+01  0.14671249204E+03  0.14964753216E+03  0.00000000000E+00 0. -1.
         22    1    3    3    0    0 -0.71927550091E+02  0.38610980554E+01  0.51144349044E+02  0.88341524661E+02  0.00000000000E+00 0. -1.
</event>
<event>
 7    1  0.5970484E-006  0.1129738E+03  0.7818608E-02  0.1363399E+00
          2   -1    0    0  502    0  0.00000000000E+00  0.00000000000E+00  0.13450538254E+04  0.13450538254E+04  0.00000000000E+00 0. -1.
          1   -1    0    0  501    0 -0.00000000000E+00 -0.00000000000E+00 -0.60259752331E+03  0.60259752331E+03  0.00000000000E+00 0. -1.
         25    2    1    2    0    0  0.11208316842E+03 -0.20425735127E+02  0.17525570355E+03  0.24355578466E+03  0.12500004526E+03 0.  0.
          2    1    1    2  501    0 -0.69071528933E+00  0.42181882875E+02 -0.56482310960E+03  0.56639644550E+03  0.00000000000E+00 0. -1.
          1    1    1    2  502    0 -0.11139245313E+03 -0.21756147748E+02  0.11320237081E+04  0.11376991185E+04  0.00000000000E+00 0. -1.
         22    1    3    3    0    0 -0.16541933212E+02 -0.16316933025E+02  0.80384026969E+02  0.83674785028E+02  0.00000000000E+00 0. -1.
         22    1    3    3    0    0  0.12862510164E+03 -0.41088021016E+01  0.94871676578E+02  0.15988099963E+03  0.00000000000E+00 0. -1.
</event>
<event>
 7    1  0.5970484E-006  0.2040869E+03  0.7818608E-02  0.1349108E+00
          2   -1    0    0  502    0  0.00000000000E+00  0.00000000000E+00  0.65716639603E+03  0.65716639603E+03  0.00000000000E+00 0. -1.
          1   -1    0    0  501    0 -0.00000000000E+00 -0.00000000000E+00 -0.50872034963E+03  0.50872034963E+03  0.00000000000E+00 0. -1.
         25    2    1    2    0    0 -0.19407127592E+03 -0.33792395566E+02  0.13778335132E+03  0.27095258957E+03  0.12500187102E+03 0.  0.
          2    1    1    2  501    0  0.19607980581E+03  0.60066889533E+02 -0.41792964749E+03  0.46553250339E+03  0.00000000000E+00 0. -1.
          1    1    1    2  502    0 -0.20085298936E+01 -0.26274493968E+02  0.42859234257E+03  0.42940165269E+03  0.00000000000E+00 0. -1.
         22    1    3    3    0    0 -0.19576375109E+03 -0.37894524859E+02  0.82988073948E+02  0.21597791941E+03  0.00000000000E+00 0. -1.
         22    1    3    3    0    0  0.16924751727E+01  0.41021292935E+01  0.54795277372E+02  0.54974670160E+02  0.00000000000E+00 0. -1.
</event>
<event>
 7    1  0.5970484E-006  0.2278168E+03  0.7818608E-02  0.1190962E+00
          2   -1    0    0  502    0  0.00000000000E+00  0.00000000000E+00  0.14633318463E+04  0.14633318463E+04  0.00000000000E+00 0. -1.
          1   -1    0    0  501    0 -0.00000000000E+00 -0.00000000000E+00 -0.18994553631E+04  0.18994553631E+04  0.00000000000E+00 0. -1.
         25    2    1    2    0    0 -0.15014533385E+03  0.33316414692E+02  0.25079521181E+03  0.31965083041E+03  0.12499924140E+03 0.  0.
          2    1    1    2  501    0 -0.10837317882E+03 -0.16305993500E+02 -0.18491421083E+04  0.18523868840E+04  0.00000000000E+00 0. -1.
          1    1    1    2  502    0  0.25851851267E+03 -0.17010421193E+02  0.11622233796E+04  0.11907494950E+04  0.00000000000E+00 0. -1.
         22    1    3    3    0    0 -0.14562936419E+03  0.67962408703E+02  0.18423490471E+03  0.24447760803E+03  0.00000000000E+00 0.  1.
         22    1    3    3    0    0 -0.45159696592E+01 -0.34645994011E+02  0.66560307095E+02  0.75173222383E+02  0.00000000000E+00 0.  1.
</event>
<event>
 7    1  0.5970484E-006  0.4761428E+02  0.7818608E-02  0.1552225E+00
          2   -1    0    0  502    0  0.00000000000E+00  0.00000000000E+00  0.12644606782E+04  0.12644606782E+04  0.00000000000E+00 0. -1.
          1   -1    0    0  501    0 -0.00000000000E+00 -0.00000000000E+00 -0.47688358917E+02  0.47688358917E+02  0.00000000000E+00 0. -1.
         25    2    1    2    0    0 -0.52205289668E+01 -0.70940564809E+02  0.25936569457E+03  0.29656919706E+03  0.12499162959E+03 0.  0.
          2    1    1    2  501    0  0.18948697252E+01  0.46025712219E+02 -0.10582320526E+02  0.47264598001E+02  0.00000000000E+00 0. -1.
          1    1    1    2  502    0  0.33256592416E+01  0.24914852590E+02  0.96798894519E+03  0.96831524200E+03  0.00000000000E+00 0. -1.
         22    1    3    3    0    0  0.34020533764E+02 -0.30948335735E+02  0.22752119294E+03  0.23212300497E+03  0.00000000000E+00 0. -1.
         22    1    3    3    0    0 -0.39241062731E+02 -0.39992229074E+02  0.31844501634E+02  0.64446192089E+02  0.00000000000E+00 0. -1.
</event>
<event>
 7    1  0.5970484E-006  0.5602020E+02  0.7818608E-02  0.1425669E+00
          2   -1    0    0  502    0  0.00000000000E+00  0.00000000000E+00  0.19839890131E+03  0.19839890131E+03  0.00000000000E+00 0. -1.
          1   -1    0    0  501    0 -0.00000000000E+00 -0.00000000000E+00 -0.75949956403E+03  0.75949956403E+03  0.00000000000E+00 0. -1.
         25    2    1    2    0    0  0.98285063337E+02  0.40288662154E+02  0.88094371511E+02  0.18619360647E+03  0.12499724327E+03 0.  0.
          2    1    1    2  501    0 -0.53920579012E+02 -0.13658885674E+02 -0.69821584748E+03  0.70042798607E+03  0.00000000000E+00 0. -1.
          1    1    1    2  502    0 -0.44364484326E+02 -0.26629776481E+02  0.49020813253E+02  0.71276872805E+02  0.00000000000E+00 0. -1.
         22    1    3    3    0    0  0.17585841496E+00 -0.29673878585E+02 -0.94696424453E+01  0.31148741941E+02  0.00000000000E+00 0.  1.
         22    1    3    3    0    0  0.98109204922E+02  0.69962540740E+02  0.97564013957E+02  0.15504486453E+03  0.00000000000E+00 0.  1.
</event>
<event>
 7    1  0.5970484E-006  0.1588141E+03  0.7818608E-02  0.1286362E+00
          2   -1    0    0  502    0  0.00000000000E+00  0.00000000000E+00  0.36749052713E+03  0.36749052713E+03  0.00000000000E+00 0. -1.
          1   -1    0    0  501    0 -0.00000000000E+00 -0.00000000000E+00 -0.32054586815E+04  0.32054586815E+04  0.00000000000E+00 0. -1.
         25    2    1    2    0    0  0.39295368051E+02  0.10624352783E+03 -0.10720969469E+03  0.19987895743E+03  0.12500346327E+03 0.  0.
          2    1    1    2  501    0  0.48990554225E+02  0.33684013321E+02 -0.30302943466E+04  0.30308775155E+04  0.00000000000E+00 0. -1.
          1    1    1    2  502    0 -0.88285922276E+02 -0.13992754115E+03  0.29953588688E+03  0.34219273571E+03  0.00000000000E+00 0. -1.
         22    1    3    3    0    0 -0.19609093361E+02  0.80949407647E+02 -0.10638513630E+02  0.83967262151E+02  0.00000000000E+00 0. -1.
         22    1    3    3    0    0  0.58904461412E+02  0.25294120179E+02 -0.96571181063E+02  0.11591169528E+03  0.00000000000E+00 0. -1.
</event>
<event>
 7    1  0.5970484E-006  0.1239537E+03  0.7818608E-02  0.1326539E+00
          2   -1    0    0  502    0  0.00000000000E+00  0.00000000000E+00  0.80552502020E+03  0.80552502020E+03  0.00000000000E+00 0. -1.
          1   -1    0    0  501    0 -0.00000000000E+00 -0.00000000000E+00 -0.23430957301E+03  0.23430957301E+03  0.00000000000E+00 0. -1.
         25    2    1    2    0    0  0.53389678115E+01  0.12797497631E+03 -0.15028495384E+03  0.23371751082E+03  0.12502883018E+03 0.  0.
          2    1    1    2  501    0  0.45493859362E+02 -0.11373451143E+03  0.49617072388E+02  0.13216309698E+03  0.00000000000E+00 0. -1.
          1    1    1    2  502    0 -0.50832827173E+02 -0.14240464884E+02  0.67188332864E+03  0.67395398542E+03  0.00000000000E+00 0. -1.
         22    1    3    3    0    0  0.19640394540E+02  0.87223663086E+02 -0.13679928238E+02  0.90448067621E+02  0.00000000000E+00 0.  1.
         22    1    3    3    0    0 -0.14301426728E+02  0.40751313227E+02 -0.13660502560E+03  0.14326944320E+03  0.00000000000E+00 0.  1.
</event>
<event>
 7    1  0.5970484E-006  0.1132811E+03  0.7818608E-02  0.1327165E+00
          2   -1    0    0  502    0  0.00000000000E+00  0.00000000000E+00  0.46758521218E+03  0.46758521218E+03  0.00000000000E+00 0. -1.
          1   -1    0    0  501    0 -0.00000000000E+00 -0.00000000000E+00 -0.14965494477E+04  0.14965494477E+04  0.00000000000E+00 0. -1.
         25    2    1    2    0    0  0.10505488836E+03  0.12123439081E+03 -0.65495364774E+03  0.68580148246E+03  0.12500034230E+03 0.  0.
          2    1    1    2  501    0 -0.13028352808E+02 -0.55947943156E+02 -0.81810993100E+03  0.82012424030E+03  0.00000000000E+00 0. -1.
          1    1    1    2  502    0 -0.92026535556E+02 -0.65286447652E+02  0.44409934317E+03  0.45820893717E+03  0.00000000000E+00 0. -1.
         22    1    3    3    0    0  0.10827556828E+02 -0.22022536531E+02 -0.16266126850E+03  0.16450202543E+03  0.00000000000E+00 0.  1.
         22    1    3    3    0    0  0.94227331536E+02  0.14325692734E+03 -0.49229237924E+03  0.52129945703E+03  0.00000000000E+00 0.  1.
</event>
<event>
 7    1  0.5970484E-006  0.9844683E+02  0.7818608E-02  0.1438833E+00
          2   -1    0    0  502    0  0.00000000000E+00  0.00000000000E+00  0.14432405764E+04  0.14432405764E+04  0.00000000000E+00 0. -1.
          1   -1    0    0  501    0 -0.00000000000E+00 -0.00000000000E+00 -0.83949767158E+02  0.83949767158E+02  0.00000000000E+00 0. -1.
         25    2    1    2    0    0  0.42771493932E+02 -0.10149094385E+03  0.44564318234E+03  0.47576856484E+03  0.12501227518E+03 0.  0.
          2    1    1    2  501    0 -0.25972650698E+02  0.59977547227E+01 -0.63816778652E+02  0.69160197249E+02  0.00000000000E+00 0. -1.
          1    1    1    2  502    0 -0.16798843234E+02  0.95493189129E+02  0.97746440559E+03  0.98226158151E+03  0.00000000000E+00 0. -1.
         22    1    3    3    0    0  0.65883485822E+02 -0.35631754721E+01  0.17892344911E+03  0.19070115512E+03  0.00000000000E+00 0.  1.
         22    1    3    3    0    0 -0.23111991891E+02 -0.97927768379E+02  0.26671973323E+03  0.28506740972E+03  0.00000000000E+00 0.  1.
</event>
<event>
 7    1  0.5970484E-006  0.1035526E+03  0.7818608E-02  0.1322827E+00
          2   -1    0    0  502    0  0.00000000000E+00  0.00000000000E+00  0.80604488623E+03  0.80604488623E+03  0.00000000000E+00 0. -1.
          1   -1    0    0  501    0 -0.00000000000E+00 -0.00000000000E+00 -0.88411930893E+03  0.88411930893E+03  0.00000000000E+00 0. -1.
         25    2    1    2    0    0 -0.10450607469E+03  0.10761757631E+03  0.23131830259E+03  0.30271590322E+03  0.12500279425E+03 0.  0.
          2    1    1    2  501    0  0.62661757515E+02 -0.18392256224E+02 -0.84264206843E+03  0.84516887450E+03  0.00000000000E+00 0. -1.
          1    1    1    2  502    0  0.41844317177E+02 -0.89225320090E+02  0.53324934314E+03  0.54227941745E+03  0.00000000000E+00 0. -1.
         22    1    3    3    0    0 -0.41830672998E+02  0.21631300179E+01  0.11557930299E+01  0.41902508188E+02  0.00000000000E+00 0. -1.
         22    1    3    3    0    0 -0.62675401694E+02  0.10545444630E+03  0.23016250956E+03  0.26081339503E+03  0.00000000000E+00 0. -1.
</event>
<event>
 7    1  0.5970484E-006  0.7284035E+02  0.7818608E-02  0.1513563E+00
          2   -1    0    0  502    0  0.00000000000E+00  0.00000000000E+00  0.28245246388E+03  0.28245246388E+03  0.00000000000E+00 0. -1.
          1   -1    0    0  501    0 -0.00000000000E+00 -0.00000000000E+00 -0.12607827140E+04  0.12607827140E+04  0.00000000000E+00 0. -1.
         25    2    1    2    0    0 -0.27905350827E+02  0.71027766032E+02 -0.12386639063E+03  0.19180943671E+03  0.12499730049E+03 0.  0.
          2    1    1    2  501    0 -0.16486935407E+02 -0.13302502240E+02 -0.10975050881E+04  0.10977095217E+04  0.00000000000E+00 0. -1.
          1    1    1    2  502    0  0.44392286234E+02 -0.57725263792E+02  0.24304122868E+03  0.25371621942E+03  0.00000000000E+00 0. -1.
         22    1    3    3    0    0 -0.81164409922E+01  0.30823881132E+02  0.22318089363E+02  0.38911249982E+02  0.00000000000E+00 0. -1.
         22    1    3    3    0    0 -0.19788909835E+02  0.40203884900E+02 -0.14618448000E+03  0.15289818673E+03  0.00000000000E+00 0. -1.
</event>
<event>
 7    1  0.5970484E-006  0.1301858E+03  0.7818608E-02  0.1392773E+00
          2   -1    0    0  502    0  0.00000000000E+00  0.00000000000E+00  0.62410419145E+03  0.62410419145E+03  0.00000000000E+00 0. -1.
          1   -1    0    0  501    0 -0.00000000000E+00 -0.00000000000E+00 -0.45213686036E+03  0.45213686036E+03  0.00000000000E+00 0. -1.
         25    2    1    2    0    0  0.65329162674E+02 -0.83673006698E+02 -0.30177202659E+02  0.16674883046E+03  0.12500174941E+03 0.  0.
          2    1    1    2  501    0  0.46775089364E+01 -0.28408458164E+02 -0.34521138870E+03  0.34640990528E+03  0.00000000000E+00 0. -1.
          1    1    1    2  502    0 -0.70006671610E+02  0.11208146486E+03  0.54735592245E+03  0.56308231608E+03  0.00000000000E+00 0. -1.
         22    1    3    3    0    0  0.37124222523E+02 -0.40101279029E+02 -0.78622754360E+02  0.95748932009E+02  0.00000000000E+00 0.  1.
         22    1    3    3    0    0  0.28204940150E+02 -0.43571727669E+02  0.48445551701E+02  0.70999898455E+02  0.00000000000E+00 0.  1.
</event>
<event>
 7    1  0.5970484E-006  0.7940653E+02  0.7818608E-02  0.1408911E+00
          2   -1    0    0  502    0  0.00000000000E+00  0.00000000000E+00  0.10036686653E+03  0.10036686653E+03  0.00000000000E+00 0. -1.
          1   -1    0    0  501    0 -0.00000000000E+00 -0.00000000000E+00 -0.29536880754E+04  0.29536880754E+04  0.00000000000E+00 0. -1.
         25    2    1    2    0    0 -0.51059296956E+02  0.84240598883E+02 -0.14897157148E+04  0.14981922022E+04  0.12499373439E+03 0.  0.
          2    1    1    2  501    0  0.62255355883E+02 -0.44230901799E+02 -0.14541957817E+04  0.14561996682E+04  0.00000000000E+00 0. -1.
          1    1    1    2  502    0 -0.11196058927E+02 -0.40009697085E+02  0.90590287681E+02  0.99663071488E+02  0.00000000000E+00 0. -1.
         22    1    3    3    0    0  0.39903927075E+02  0.43410633344E+02 -0.61055340236E+03  0.61339405248E+03  0.00000000000E+00 0.  1.
         22    1    3    3    0    0 -0.90963224031E+02  0.40829965540E+02 -0.87916231244E+03  0.88479814976E+03  0.00000000000E+00 0.  1.
</event>
<event>
 7    1  0.5970484E-006  0.5213498E+02  0.7818608E-02  0.1497949E+00
          2   -1    0    0  502    0  0.00000000000E+00  0.00000000000E+00  0.27866923799E+02  0.27866923799E+02  0.00000000000E+00 0. -1.
          1   -1    0    0  501    0 -0.00000000000E+00 -0.00000000000E+00 -0.13669533562E+04  0.13669533562E+04  0.00000000000E+00 0. -1.
         25    2    1    2    0    0  0.43286324534E+02  0.67352455671E+02 -0.85249307280E+03  0.86532135955E+03  0.12500622762E+03 0.  0.
          2    1    1    2  501    0 -0.27022778404E+02 -0.18804851763E+02 -0.47609801820E+03  0.47723492741E+03  0.00000000000E+00 0. -1.
          1    1    1    2  502    0 -0.16263546131E+02 -0.48547603908E+02 -0.10495341404E+02  0.52263993046E+02  0.00000000000E+00 0. -1.
         22    1    3    3    0    0  0.83004584571E+02  0.59406678953E+02 -0.70564705253E+03  0.71299135851E+03  0.00000000000E+00 0.  1.
         22    1    3    3    0    0 -0.39718260037E+02  0.79457767177E+01 -0.14684602027E+03  0.15233000104E+03  0.00000000000E+00 0.  1.
</event>
<event>
 7    1  0.5970484E-006  0.3676408E+02  0.7818608E-02  0.1621504E+00
          2   -1    0    0  502    0  0.00000000000E+00  0.00000000000E+00  0.31522153369E+03  0.31522153369E+03  0.00000000000E+00 0. -1.
          1   -1    0    0  501    0 -0.00000000000E+00 -0.00000000000E+00 -0.58481239683E+03  0.58481239683E+03  0.00000000000E+00 0. -1.
         25    2    1    2    0    0 -0.15705116838E+02  0.16015513288E+02  0.89622942426E+01  0.12731409961E+03  0.12500163951E+03 0.  0.
          2    1    1    2  501    0  0.69825493878E+01  0.20124030916E+02 -0.52402042545E+03  0.52445318086E+03  0.00000000000E+00 0. -1.
          1    1    1    2  502    0  0.87225674503E+01 -0.36139544203E+02  0.24546726807E+03  0.24826665006E+03  0.00000000000E+00 0. -1.
         22    1    3    3    0    0  0.55470180787E+01 -0.21908204896E+02 -0.49526372974E+02  0.54438960968E+02  0.00000000000E+00 0.  1.
         22    1    3    3    0    0 -0.21252134917E+02  0.37923718184E+02  0.58488667216E+02  0.72875138642E+02  0.00000000000E+00 0.  1.
</event>
<event>
 7    1  0.5970484E-006  0.3503184E+02  0.7818608E-02  0.1574252E+00
          2   -1    0    0  502    0  0.00000000000E+00  0.00000000000E+00  0.56901110071E+03  0.56901110071E+03  0.00000000000E+00 0. -1.
          1   -1    0    0  501    0 -0.00000000000E+00 -0.00000000000E+00 -0.27504636892E+03  0.27504636892E+03  0.00000000000E+00 0. -1.
         25    2    1    2    0    0  0.49700443067E+02  0.13778124365E+00 -0.63442751593E+02  0.14872803639E+03  0.12499957221E+03 0.  0.
          2    1    1    2  501    0 -0.28194139100E+02  0.20388619570E+02 -0.16674402248E+03  0.17033547581E+03  0.00000000000E+00 0. -1.
          1    1    1    2  502    0 -0.21506303967E+02 -0.20526400813E+02  0.52415150586E+03  0.52499395743E+03  0.00000000000E+00 0. -1.
         22    1    3    3    0    0  0.72434910683E+02 -0.27058685646E+02 -0.14747281669E+01  0.77337982762E+02  0.00000000000E+00 0.  1.
         22    1    3    3    0    0 -0.22734467616E+02  0.27196466889E+02 -0.61968023426E+02  0.71390053624E+02  0.00000000000E+00 0.  1.
</event>
<event>
 7    1  0.5970484E-006  0.1032397E+03  0.7818608E-02  0.1308687E+00
          2   -1    0    0  502    0  0.00000000000E+00  0.00000000000E+00  0.23316872940E+04  0.23316872940E+04  0.00000000000E+00 0. -1.
          1   -1    0    0  501    0 -0.00000000000E+00 -0.00000000000E+00 -0.27906840942E+03  0.27906840942E+03  0.00000000000E+00 0. -1.
         25    2    1    2    0    0 -0.24777676113E+01  0.31127114179E+02  0.98971287612E+03  0.99806326570E+03  0.12499467439E+03 0.  0.
          2    1    1    2  501    0 -0.10281642693E+03 -0.93388003856E+01 -0.26294615084E+03  0.28248736092E+03  0.00000000000E+00 0. -1.
          1    1    1    2  502    0  0.10529419455E+03 -0.21788313793E+02  0.13258521593E+04  0.13302050768E+04  0.00000000000E+00 0. -1.
         22    1    3    3    0    0  0.31796152378E+02  0.10139767287E+02  0.88902218146E+03  0.88964838521E+03  0.00000000000E+00 0.  1.
         22    1    3    3    0    0 -0.34273919989E+02  0.20987346892E+02  0.10069069466E+03  0.10841488049E+03  0.00000000000E+00 0.  1.
</event>
<event>
 7    1  0.5970484E-006  0.8414093E+02  0.7818608E-02  0.1421716E+00
          2   -1    0    0  502    0  0.00000000000E+00  0.00000000000E+00  0.34984767820E+03  0.34984767820E+03  0.00000000000E+00 0. -1.
          1   -1    0    0  501    0 -0.00000000000E+00 -0.00000000000E+00 -0.29016305822E+03  0.29016305822E+03  0.00000000000E+00 0. -1.
         25    2    1    2    0    0  0.96921139351E+02 -0.15063139976E+02  0.36122766912E+02  0.16294178425E+03  0.12499826129E+03 0.  0.
          2    1    1    2  501    0 -0.81748586935E+02 -0.17039843283E+02 -0.21772181495E+03  0.23318657000E+03  0.00000000000E+00 0. -1.
          1    1    1    2  502    0 -0.15172552416E+02  0.32102983259E+02  0.24128366801E+03  0.24388238217E+03  0.00000000000E+00 0. -1.
         22    1    3    3    0    0  0.11113828074E+03  0.60816293473E+01 -0.84238664542E+01  0.11162287036E+03  0.00000000000E+00 0.  1.
         22    1    3    3    0    0 -0.14217141387E+02 -0.21144769323E+02  0.44546633366E+02  0.51318913893E+02  0.00000000000E+00 0.  1.
</event>
<event>
 7    1  0.5970484E-006  0.9369553E+02  0.7818608E-02  0.1368793E+00
          2   -1    0    0  502    0  0.00000000000E+00  0.00000000000E+00  0.25913794549E+04  0.25913794549E+04  0.00000000000E+00 0. -1.
          1   -1    0    0  501    0 -0.00000000000E+00 -0.00000000000E+00 -0.10282031169E+03  0.10282031169E+03  0.00000000000E+00 0. -1.
         25    2    1    2    0    0  0.11479090618E+03 -0.71579657008E+02  0.50287308048E+03  0.53554370974E+03  0.12500052216E+03 0.  0.
          2    1    1    2  501    0 -0.29744132769E+02  0.38477924731E+02 -0.78558952500E+02  0.92394659714E+02  0.00000000000E+00 0. -1.
          1    1    1    2  502    0 -0.85046773410E+02  0.33101732277E+02  0.20642450153E+04  0.20662613972E+04  0.00000000000E+00 0. -1.
         22    1    3    3    0    0  0.80049470837E+02  0.11269280891E+02  0.13950349159E+03  0.16123318095E+03  0.00000000000E+00 0.  1.
         22    1    3    3    0    0  0.34741435343E+02 -0.82848937899E+02  0.36336958889E+03  0.37431052880E+03  0.00000000000E+00 0.  1.
</event>
<event>
 7    1  0.5970484E-006  0.3771625E+02  0.7818608E-02  0.1591287E+00
          2   -1    0    0  502    0  0.00000000000E+00  0.00000000000E+00  0.18787105441E+04  0.18787105441E+04  0.00000000000E+00 0. -1.
          1   -1    0    0  501    0 -0.00000000000E+00 -0.00000000000E+00 -0.77479741437E+03  0.77479741437E+03  0.00000000000E+00 0. -1.
         25    2    1    2    0    0 -0.90321593679E+01 -0.36964435069E+02  0.95125629036E+02  0.16162257506E+03  0.12500008842E+03 0.  0.
          2    1    1    2  501    0  0.24728097299E+02  0.26167601454E+01 -0.74113670913E+03  0.74155373902E+03  0.00000000000E+00 0. -1.
          1    1    1    2  502    0 -0.15695937931E+02  0.34347674923E+02  0.17499242098E+04  0.17503316444E+04  0.00000000000E+00 0. -1.
         22    1    3    3    0    0 -0.28532136991E+02  0.97855584338E+01  0.10566321030E+03  0.10988427552E+03  0.00000000000E+00 0. -1.
         22    1    3    3    0    0  0.19499977623E+02 -0.46749993503E+02 -0.10537581269E+02  0.51738299535E+02  0.00000000000E+00 0. -1.
</event>
<event>
 7    1  0.5970484E-006  0.6477441E+02  0.7818608E-02  0.1396269E+00
          2   -1    0    0  502    0  0.00000000000E+00  0.00000000000E+00  0.15926231080E+04  0.15926231080E+04  0.00000000000E+00 0. -1.
          1   -1    0    0  501    0 -0.00000000000E+00 -0.00000000000E+00 -0.89166932765E+03  0.89166932765E+03  0.00000000000E+00 0. -1.
         25    2    1    2    0    0 -0.22344832138E+02  0.78195923210E+02  0.40044703545E+03  0.42731867953E+03  0.12501812565E+03 0.  0.
          2    1    1    2  501    0  0.55791509835E+02 -0.32941883913E+02 -0.87636532678E+03  0.87875710311E+03  0.00000000000E+00 0. -1.
          1    1    1    2  502    0 -0.33446677697E+02 -0.45254039297E+02  0.11768720717E+04  0.11782166530E+04  0.00000000000E+00 0. -1.
         22    1    3    3    0    0  0.51409449740E+02  0.34385283981E+02  0.13849602996E+03  0.15167870514E+03  0.00000000000E+00 0. -1.
         22    1    3    3    0    0 -0.73754281878E+02  0.43810639229E+02  0.26195100549E+03  0.27563997439E+03  0.00000000000E+00 0. -1.
</event>
<event>
 7    1  0.5970484E-006  0.1209813E+03  0.7818608E-02  0.1352753E+00
          2   -1    0    0  502    0  0.00000000000E+00  0.00000000000E+00  0.11911803868E+04  0.11911803868E+04  0.00000000000E+00 0. -1.
          1   -1    0    0  501    0 -0.00000000000E+00 -0.00000000000E+00 -0.13565927093E+03  0.13565927093E+03  0.00000000000E+00 0. -1.
         25    2    1    2    0    0  0.39378697139E+02 -0.81544948188E+02  0.22265933477E+03  0.27092943951E+03  0.12500128587E+03 0.  0.
          2    1    1    2  501    0 -0.26875257099E+02  0.12278438687E+03 -0.75435941881E+02  0.14659081291E+03  0.00000000000E+00 0. -1.
          1    1    1    2  502    0 -0.12503440040E+02 -0.41239438681E+02  0.90829772302E+03  0.90931940536E+03  0.00000000000E+00 0. -1.
         22    1    3    3    0    0  0.54748829524E+02  0.13806450698E+02  0.65631030025E+02  0.86576466301E+02  0.00000000000E+00 0.  1.
         22    1    3    3    0    0 -0.15370132384E+02 -0.95351398886E+02  0.15702830474E+03  0.18435297320E+03  0.00000000000E+00 0.  1.
</event>
<event>
 7    1  0.6078407E-006  0.1105373E+03  0.7818608E-02  0.1271649E+00
          2   -1    0    0  502    0  0.00000000000E+00  0.00000000000E+00  0.12066105376E+04  0.12066105376E+04  0.00000000000E+00 0. -1.
          1   -1    0    0  501    0 -0.00000000000E+00 -0.00000000000E+00 -0.17259002054E+04  0.17259002054E+04  0.00000000000E+00 0. -1.
         25    2    1    2    0    0  0.15489243206E+02  0.36539938509E+02 -0.10807645136E+03  0.16994326577E+03  0.12500044191E+03 0.  0.
          2    1    1    2  501    0 -0.11332147889E+03 -0.27193067196E+02 -0.15826904044E+04  0.15869751532E+04  0.00000000000E+00 0. -1.
          1    1    1    2  502    0  0.97832235687E+02 -0.93468713139E+01  0.11714771880E+04  0.11755923240E+04  0.00000000000E+00 0. -1.
         22    1    3    3    0    0  0.14902399801E+02  0.70625609111E+02 -0.19108095831E+02  0.74667111290E+02  0.00000000000E+00 0. -1.
         22    1    3    3    0    0  0.58684340475E+00 -0.34085670601E+02 -0.88968355533E+02  0.95276154476E+02  0.00000000000E+00 0. -1.
</event>
<event>
 7    1  0.5970484E-006  0.1373110E+03  0.7818608E-02  0.1391668E+00
          2   -1    0    0  502    0  0.00000000000E+00  0.00000000000E+00  0.64369573447E+03  0.64369573447E+03  0.00000000000E+00 0. -1.
          1   -1    0    0  501    0 -0.00000000000E+00 -0.00000000000E+00 -0.15865706179E+03  0.15865706179E+03  0.00000000000E+00 0. -1.
         25    2    1    2    0    0  0.74760826406E+02 -0.85522774993E+02 -0.12155056594E+02  0.16932942713E+03  0.12498553230E+03 0.  0.
          2    1    1    2  501    0  0.24428813798E+02 -0.12714319059E+02 -0.56043449801E+02  0.62444288116E+02  0.00000000000E+00 0. -1.
          1    1    1    2  502    0 -0.99189640204E+02  0.98237094052E+02  0.55323717908E+03  0.57057908101E+03  0.00000000000E+00 0. -1.
         22    1    3    3    0    0  0.73132155571E+02  0.23279766003E+01  0.19853670797E+02  0.75814905511E+02  0.00000000000E+00 0. -1.
         22    1    3    3    0    0  0.16286708350E+01 -0.87850751594E+02 -0.32008727391E+02  0.93514521618E+02  0.00000000000E+00 0. -1.
</event>
<event>
 7    1  0.5970484E-006  0.1049772E+03  0.7818608E-02  0.1386172E+00
          2   -1    0    0  502    0  0.00000000000E+00  0.00000000000E+00  0.34900989128E+04  0.34900989128E+04  0.00000000000E+00 0. -1.
          1   -1    0    0  501    0 -0.00000000000E+00 -0.00000000000E+00 -0.17979868501E+03  0.17979868501E+03  0.00000000000E+00 0. -1.
         25    2    1    2    0    0 -0.90470592408E+02 -0.75883276057E+02  0.18645896917E+03  0.25364393516E+03  0.12500039593E+03 0.  0.
          2    1    1    2  501    0 -0.68511422702E+01  0.37022308864E+02 -0.14292804276E+03  0.14780397461E+03  0.00000000000E+00 0. -1.
          1    1    1    2  502    0  0.97321734678E+02  0.38860967193E+02  0.32667693014E+04  0.32684496881E+04  0.00000000000E+00 0. -1.
         22    1    3    3    0    0 -0.11435100698E+03 -0.84314143985E+02  0.13356128244E+03  0.19499652264E+03  0.00000000000E+00 0. -1.
         22    1    3    3    0    0  0.23880414572E+02  0.84308679272E+01  0.52897686730E+02  0.58647412522E+02  0.00000000000E+00 0. -1.
</event>
<event>
 7    1  0.1215259E-005  0.6267659E+02  0.7818608E-02  0.1397035E+00
          2   -1    0    0  502    0  0.00000000000E+00  0.00000000000E+00  0.26851927659E+04  0.26851927659E+04  0.00000000000E+00 0. -1.
          1   -1    0    0  501    0 -0.00000000000E+00 -0.00000000000E+00 -0.11477382833E+04  0.11477382833E+04  0.00000000000E+00 0. -1.
         25    2    1    2    0    0 -0.57857218681E+01 -0.49466780728E+02 -0.31631547436E+03  0.34374443325E+03  0.12499727637E+03 0.  0.
          2    1    1    2  501    0  0.56438874804E+02  0.12480939077E+02 -0.81631811966E+03  0.81836201825E+03  0.00000000000E+00 0. -1.
          1    1    1    2  502    0 -0.50653152936E+02  0.36985841652E+02  0.26700880766E+04  0.26708245976E+04  0.00000000000E+00 0. -1.
         22    1    3    3    0    0  0.44266715035E+02 -0.16912260344E+02 -0.43018628406E+02  0.64001320298E+02  0.00000000000E+00 0. -1.
         22    1    3    3    0    0 -0.50052436904E+02 -0.32554520384E+02 -0.27329684596E+03  0.27974311296E+03  0.00000000000E+00 0. -1.
</event>
<event>
 7    1  0.5970484E-006  0.5304552E+02  0.7818608E-02  0.1569350E+00
          2   -1    0    0  502    0  0.00000000000E+00  0.00000000000E+00  0.76276642454E+03  0.76276642454E+03  0.00000000000E+00 0. -1.
          1   -1    0    0  501    0 -0.00000000000E+00 -0.00000000000E+00 -0.21186048815E+02  0.21186048815E+02  0.00000000000E+00 0. -1.
         25    2    1    2    0    0 -0.32995497996E+02  0.20650240342E+02  0.29098589771E+03  0.31907915579E+03  0.12499431858E+03 0.  0.
          2    1    1    2  501    0 -0.41556096958E+01  0.19812576317E+02  0.13480743339E+02  0.24321548331E+02  0.00000000000E+00 0. -1.
          1    1    1    2  502    0  0.37151107691E+02 -0.40462816659E+02  0.43711373467E+03  0.44055176923E+03  0.00000000000E+00 0. -1.
         22    1    3    3    0    0  0.39393082559E+02  0.39661714245E+02  0.13253288192E+03  0.14383960275E+03  0.00000000000E+00 0.  1.
         22    1    3    3    0    0 -0.72388580554E+02 -0.19011473903E+02  0.15845301579E+03  0.17523955303E+03  0.00000000000E+00 0.  1.
</event>
<event>
 7    1  0.5970484E-006  0.1019437E+03  0.7818608E-02  0.1322569E+00
          2   -1    0    0  502    0  0.00000000000E+00  0.00000000000E+00  0.74405101105E+03  0.74405101105E+03  0.00000000000E+00 0. -1.
          1   -1    0    0  501    0 -0.00000000000E+00 -0.00000000000E+00 -0.26862863134E+03  0.26862863134E+03  0.00000000000E+00 0. -1.
         25    2    1    2    0    0 -0.11326090735E+03  0.11206454326E+03  0.21496100983E+03  0.29533165728E+03  0.12500422816E+03 0.  0.
          2    1    1    2  501    0  0.52732111461E+02 -0.84552126010E+02 -0.21515302344E+03  0.23710875371E+03  0.00000000000E+00 0. -1.
          1    1    1    2  502    0  0.60528795884E+02 -0.27512417248E+02  0.47561439331E+03  0.48023923139E+03  0.00000000000E+00 0. -1.
         22    1    3    3    0    0 -0.89463293757E+02  0.13569997981E+02  0.54734167675E+02  0.10575280084E+03  0.00000000000E+00 0. -1.
         22    1    3    3    0    0 -0.23797613589E+02  0.98494545277E+02  0.16022684216E+03  0.18957885644E+03  0.00000000000E+00 0. -1.
</event>
<event>
 7    1  0.5970484E-006  0.9166929E+02  0.7818608E-02  0.1481304E+00
          2   -1    0    0  502    0  0.00000000000E+00  0.00000000000E+00  0.39036183751E+03  0.39036183751E+03  0.00000000000E+00 0. -1.
          1   -1    0    0  501    0 -0.00000000000E+00 -0.00000000000E+00 -0.18075543439E+03  0.18075543439E+03  0.00000000000E+00 0. -1.
         25    2    1    2    0    0  0.53229552546E+02 -0.52141813717E+02  0.18965708867E+03  0.23904207008E+03  0.12497658174E+03 0.  0.
          2    1    1    2  501    0 -0.73859995734E+02  0.56206503175E+02 -0.14152106080E+03  0.16924148611E+03  0.00000000000E+00 0. -1.
          1    1    1    2  502    0  0.20630443187E+02 -0.40646894581E+01  0.16147037526E+03  0.16283371571E+03  0.00000000000E+00 0. -1.
         22    1    3    3    0    0 -0.39522894224E+02 -0.24546057213E+01  0.41945638617E+02  0.57684667426E+02  0.00000000000E+00 0. -1.
         22    1    3    3    0    0  0.92752446770E+02 -0.49687207995E+02  0.14771145005E+03  0.18135740265E+03  0.00000000000E+00 0. -1.
</event>
<event>
 7    1  0.5970484E-006  0.1581217E+03  0.7818608E-02  0.1243531E+00
          2   -1    0    0  502    0  0.00000000000E+00  0.00000000000E+00  0.12659021450E+04  0.12659021450E+04  0.00000000000E+00 0. -1.
          1   -1    0    0  501    0 -0.00000000000E+00 -0.00000000000E+00 -0.17037711526E+03  0.17037711526E+03  0.00000000000E+00 0. -1.
         25    2    1    2    0    0  0.55705372691E+02  0.12891452978E+03  0.99027526620E+02  0.21248403994E+03  0.12498388562E+03 0.  0.
          2    1    1    2  501    0 -0.85312975116E+02  0.30706852391E+02 -0.88510200857E+02  0.12670939256E+03  0.00000000000E+00 0. -1.
          1    1    1    2  502    0  0.29607602425E+02 -0.15962138217E+03  0.10850077039E+04  0.10970858277E+04  0.00000000000E+00 0. -1.
         22    1    3    3    0    0  0.46632610954E+02  0.15352954280E+03  0.93378909576E+02  0.18564897433E+03  0.00000000000E+00 0.  1.
         22    1    3    3    0    0  0.90727617372E+01 -0.24615013020E+02  0.56486170446E+01  0.26835065605E+02  0.00000000000E+00 0.  1.
</event>
<event>
 7    1  0.5970484E-006  0.1962384E+03  0.7818608E-02  0.1289107E+00
          2   -1    0    0  502    0  0.00000000000E+00  0.00000000000E+00  0.34126608107E+04  0.34126608107E+04  0.00000000000E+00 0. -1.
          1   -1    0    0  501    0 -0.00000000000E+00 -0.00000000000E+00 -0.24312692657E+03  0.24312692657E+03  0.00000000000E+00 0. -1.
         25    2    1    2    0    0  0.17378198580E+03  0.14816506293E+03  0.49529772735E+03  0.55955182993E+03  0.12500138879E+03 0.  0.
          2    1    1    2  501    0 -0.16458163557E+03 -0.10218702955E+03 -0.16629954421E+03  0.25531322367E+03  0.00000000000E+00 0. -1.
          1    1    1    2  502    0 -0.92003502299E+01 -0.45978033378E+02  0.28405357009E+04  0.28409226836E+04  0.00000000000E+00 0. -1.
         22    1    3    3    0    0 -0.14129774688E+02  0.30433067403E+01  0.59182020826E+01  0.15618494311E+02  0.00000000000E+00 0.  1.
         22    1    3    3    0    0  0.18791176049E+03  0.14512175619E+03  0.48937952526E+03  0.54393333562E+03  0.00000000000E+00 0.  1.
</event>
<event>
 7    1  0.5970484E-006  0.1227879E+03  0.7818608E-02  0.1317979E+00
          2   -1    0    0  502    0  0.00000000000E+00  0.00000000000E+00  0.20021522587E+03  0.20021522587E+03  0.00000000000E+00 0. -1.
          1   -1    0    0  501    0 -0.00000000000E+00 -0.00000000000E+00 -0.25839795651E+04  0.25839795651E+04  0.00000000000E+00 0. -1.
         25    2    1    2    0    0  0.17058943701E+03 -0.31220035993E+02 -0.35415602635E+03  0.41367611491E+03  0.12500396147E+03 0.  0.
          2    1    1    2  501    0 -0.11360033227E+03  0.38949283195E+02 -0.21935228330E+04  0.21968077979E+04  0.00000000000E+00 0. -1.
          1    1    1    2  502    0 -0.56989104742E+02 -0.77292472022E+01  0.16391452005E+03  0.17371087820E+03  0.00000000000E+00 0. -1.
         22    1    3    3    0    0  0.24522594713E+02  0.27982942615E+02 -0.15819876475E+02  0.40431067517E+02  0.00000000000E+00 0.  1.
         22    1    3    3    0    0  0.14606684230E+03 -0.59202978608E+02 -0.33833614987E+03  0.37324504739E+03  0.00000000000E+00 0.  1.
</event>
<event>
 7    1  0.5970484E-006  0.3883818E+02  0.7818608E-02  0.1527579E+00
          2   -1    0    0  502    0  0.00000000000E+00  0.00000000000E+00  0.18108198902E+04  0.18108198902E+04  0.00000000000E+00 0. -1.
          1   -1    0    0  501    0 -0.00000000000E+00 -0.00000000000E+00 -0.31478387376E+03  0.31478387376E+03  0.00000000000E+00 0. -1.
         25    2    1    2    0    0 -0.48880038613E+02 -0.96050864892E+01  0.16848638131E+03  0.21562499373E+03  0.12499984548E+03 0.  0.
          2    1    1    2  501    0  0.17038951536E+02  0.31915409622E+02 -0.28985638008E+03  0.29210552942E+03  0.00000000000E+00 0. -1.
          1    1    1    2  502    0  0.31841087077E+02 -0.22310323133E+02  0.16174060152E+04  0.16178732408E+04  0.00000000000E+00 0. -1.
         22    1    3    3    0    0 -0.19062347152E+02 -0.60089400708E+02  0.13275566723E+03  0.14696318021E+03  0.00000000000E+00 0. -1.
         22    1    3    3    0    0 -0.29817691461E+02  0.50484314219E+02  0.35730714082E+02  0.68661813514E+02  0.00000000000E+00 0. -1.
</event>
<event>
 7    1  0.5970484E-006  0.4801339E+02  0.7818608E-02  0.1498521E+00
          2   -1    0    0  502    0  0.00000000000E+00  0.00000000000E+00  0.25449844939E+04  0.25449844939E+04  0.00000000000E+00 0. -1.
          1   -1    0    0  501    0 -0.00000000000E+00 -0.00000000000E+00 -0.14339494924E+03  0.14339494924E+03  0.00000000000E+00 0. -1.
         25    2    1    2    0    0  0.24565511282E+02  0.30440516473E+02  0.64771121676E+02  0.14611958258E+03  0.12500217927E+03 0.  0.
          2    1    1    2  501    0  0.23434463537E+02 -0.26808991443E+02 -0.99390012118E+02  0.10557589977E+03  0.00000000000E+00 0. -1.
          1    1    1    2  502    0 -0.47999974819E+02 -0.36315250301E+01  0.24362084351E+04  0.24366839608E+04  0.00000000000E+00 0. -1.
         22    1    3    3    0    0 -0.56415720597E+00  0.41450123238E+01  0.97259993584E+02  0.97349913983E+02  0.00000000000E+00 0. -1.
         22    1    3    3    0    0  0.25129668488E+02  0.26295504150E+02 -0.32488871908E+02  0.48769668593E+02  0.00000000000E+00 0. -1.
</event>
<event>
 7    1  0.5970484E-006  0.5329031E+02  0.7818608E-02  0.1444839E+00
          2   -1    0    0  502    0  0.00000000000E+00  0.00000000000E+00  0.44660522855E+03  0.44660522855E+03  0.00000000000E+00 0. -1.
          1   -1    0    0  501    0 -0.00000000000E+00 -0.00000000000E+00 -0.11738159060E+03  0.11738159060E+03  0.00000000000E+00 0. -1.
         25    2    1    2    0    0  0.62406430306E+02  0.60931764062E+02  0.38838409032E+02  0.15728817873E+03  0.12499562687E+03 0.  0.
          2    1    1    2  501    0 -0.12303315955E+02 -0.45452422050E+02 -0.46250445441E+02  0.66003014758E+02  0.00000000000E+00 0. -1.
          1    1    1    2  502    0 -0.50103114351E+02 -0.15479342013E+02  0.33663567436E+03  0.34069562567E+03  0.00000000000E+00 0. -1.
         22    1    3    3    0    0 -0.59279398869E+01 -0.29244407381E+02  0.32274861007E+02  0.43955005260E+02  0.00000000000E+00 0. -1.
         22    1    3    3    0    0  0.68334370193E+02  0.90176171443E+02  0.65635480252E+01  0.11333317347E+03  0.00000000000E+00 0. -1.
</event>
<event>
 7    1  0.5970484E-006  0.4188570E+02  0.7818608E-02  0.1539466E+00
          2   -1    0    0  502    0  0.00000000000E+00  0.00000000000E+00  0.53468529637E+03  0.53468529637E+03  0.00000000000E+00 0. -1.
          1   -1    0    0  501    0 -0.00000000000E+00 -0.00000000000E+00 -0.11160825687E+03  0.11160825687E+03  0.00000000000E+00 0. -1.
         25    2    1    2    0    0 -0.12629298429E+02  0.26352922706E+02  0.24552858467E+02  0.13070313450E+03  0.12500596304E+03 0.  0.
          2    1    1    2  501    0  0.28184314374E+02  0.12976330283E+02 -0.53363171121E+02  0.61728184458E+02  0.00000000000E+00 0. -1.
          1    1    1    2  502    0 -0.15555015945E+02 -0.39329252989E+02  0.45188735216E+03  0.45386223428E+03  0.00000000000E+00 0. -1.
         22    1    3    3    0    0 -0.55618855073E+02  0.61976283867E+01  0.51547741706E+02  0.76085723446E+02  0.00000000000E+00 0.  1.
         22    1    3    3    0    0  0.42989556643E+02  0.20155294319E+02 -0.26994883239E+02  0.54617411057E+02  0.00000000000E+00 0.  1.
</event>
<event>
 7    1  0.5970484E-006  0.4862473E+02  0.7818608E-02  0.1457702E+00
          2   -1    0    0  502    0  0.00000000000E+00  0.00000000000E+00  0.32188272007E+03  0.32188272007E+03  0.00000000000E+00 0. -1.
          1   -1    0    0  501    0 -0.00000000000E+00 -0.00000000000E+00 -0.10747718090E+04  0.10747718090E+04  0.00000000000E+00 0. -1.
         25    2    1    2    0    0 -0.44564075761E+02 -0.17983475362E+02  0.12667609195E+03  0.18433297877E+03  0.12498980981E+03 0.  0.
          2    1    1    2  501    0  0.39372917447E+02 -0.28677058786E+02 -0.10420511356E+04  0.10431889424E+04  0.00000000000E+00 0. -1.
          1    1    1    2  502    0  0.51911583138E+01  0.46660534148E+02  0.16248595473E+03  0.16913260790E+03  0.00000000000E+00 0. -1.
         22    1    3    3    0    0  0.31713026174E+02 -0.37837485323E+02  0.24004374565E+02  0.54896277860E+02  0.00000000000E+00 0.  1.
         22    1    3    3    0    0 -0.76277101935E+02  0.19854009960E+02  0.10267171738E+03  0.12943670091E+03  0.00000000000E+00 0.  1.
</event>
<event>
 7    1  0.5970484E-006  0.1322639E+03  0.7818608E-02  0.1367638E+00
          2   -1    0    0  502    0  0.00000000000E+00  0.00000000000E+00  0.36571785217E+04  0.36571785217E+04  0.00000000000E+00 0. -1.
          1   -1    0    0  501    0 -0.00000000000E+00 -0.00000000000E+00 -0.19264260700E+03  0.19264260700E+03  0.00000000000E+00 0. -1.
         25    2    1    2    0    0  0.92546455596E+02  0.32432158126E+02  0.13801109221E+04  0.13892259633E+04  0.12500371328E+03 0.  0.
          2    1    1    2  501    0 -0.12513926646E+03 -0.44582733552E+02 -0.16447706153E+03  0.21142412330E+03  0.00000000000E+00 0. -1.
          1    1    1    2  502    0  0.32592810867E+02  0.12150575426E+02  0.22489020541E+04  0.22491710421E+04  0.00000000000E+00 0. -1.
         22    1    3    3    0    0  0.77519709302E+02 -0.13787345175E+02  0.38709569291E+03  0.39502211544E+03  0.00000000000E+00 0. -1.
         22    1    3    3    0    0  0.15026746295E+02  0.46219503301E+02  0.99301522924E+03  0.99420384786E+03  0.00000000000E+00 0. -1.
</event>
<event>
 7    1  0.5970484E-006  0.7357952E+02  0.7818608E-02  0.1370178E+00
          2   -1    0    0  502    0  0.00000000000E+00  0.00000000000E+00  0.17693682435E+03  0.17693682435E+03  0.00000000000E+00 0. -1.
          1   -1    0    0  501    0 -0.00000000000E+00 -0.00000000000E+00 -0.13615368065E+04  0.13615368065E+04  0.00000000000E+00 0. -1.
         25    2    1    2    0    0  0.54925146423E+02  0.39027126795E+02 -0.50660371364E+02  0.15077567563E+03  0.12500777095E+03 0.  0.
          2    1    1    2  501    0 -0.71538546264E+02  0.19898912055E+02 -0.12522688869E+04  0.12544684513E+04  0.00000000000E+00 0. -1.
          1    1    1    2  502    0  0.16613399841E+02 -0.58926038851E+02  0.11832927613E+03  0.13322950386E+03  0.00000000000E+00 0. -1.
         22    1    3    3    0    0 -0.11802510894E+01  0.62367852998E+02 -0.63122083902E+02  0.88744236750E+02  0.00000000000E+00 0. -1.
         22    1    3    3    0    0  0.56105397512E+02 -0.23340726203E+02  0.12461712538E+02  0.62031438877E+02  0.00000000000E+00 0. -1.
</event>
<event>
 7    1  0.5970484E-006  0.8461940E+02  0.7818608E-02  0.1383150E+00
          2   -1    0    0  502    0  0.00000000000E+00  0.00000000000E+00  0.94839024667E+03  0.94839024667E+03  0.00000000000E+00 0. -1.
          1   -1    0    0  501    0 -0.00000000000E+00 -0.00000000000E+00 -0.34910768309E+03  0.34910768309E+03  0.00000000000E+00 0. -1.
         25    2    1    2    0    0  0.79578440733E+02  0.92238978910E+02  0.46407613265E+02  0.18060481634E+03  0.12499470251E+03 0.  0.
          2    1    1    2  501    0 -0.34862428871E+02 -0.75160743524E+02 -0.27521762466E+03  0.28741827923E+03  0.00000000000E+00 0. -1.
          1    1    1    2  502    0 -0.44716011862E+02 -0.17078235386E+02  0.82809257497E+03  0.82947483419E+03  0.00000000000E+00 0. -1.
         22    1    3    3    0    0  0.33458746120E+02  0.10527045099E+03 -0.46767487836E+01  0.11055870623E+03  0.00000000000E+00 0. -1.
         22    1    3    3    0    0  0.46119694613E+02 -0.13031472081E+02  0.51084362048E+02  0.70046110111E+02  0.00000000000E+00 0. -1.
</event>
<event>
 7    1  0.5970484E-006  0.1248129E+03  0.7818608E-02  0.1256622E+00
          2   -1    0    0  502    0  0.00000000000E+00  0.00000000000E+00  0.11422774525E+04  0.11422774525E+04  0.00000000000E+00 0. -1.
          1   -1    0    0  501    0 -0.00000000000E+00 -0.00000000000E+00 -0.16704994552E+04  0.16704994552E+04  0.00000000000E+00 0. -1.
         25    2    1    2    0    0  0.20647674937E+03 -0.87031920281E+01  0.15895178756E+03  0.28913830841E+03  0.12500758794E+03 0.  0.
          2    1    1    2  501    0 -0.94373517235E+02 -0.35385991804E+02 -0.15998627306E+04  0.16030343995E+04  0.00000000000E+00 0. -1.
          1    1    1    2  502    0 -0.11210323213E+03  0.44089183832E+02  0.91268894034E+03  0.92060419975E+03  0.00000000000E+00 0. -1.
         22    1    3    3    0    0  0.93277807128E+02  0.51947845061E+02  0.39772888810E+02  0.11393511572E+03  0.00000000000E+00 0. -1.
         22    1    3    3    0    0  0.11319894224E+03 -0.60651037089E+02  0.11917889875E+03  0.17520319270E+03  0.00000000000E+00 0. -1.
</event>
<event>
 7    1  0.5970484E-006  0.4349293E+02  0.7818608E-02  0.1578989E+00
          2   -1    0    0  502    0  0.00000000000E+00  0.00000000000E+00  0.30386730966E+03  0.30386730966E+03  0.00000000000E+00 0. -1.
          1   -1    0    0  501    0 -0.00000000000E+00 -0.00000000000E+00 -0.21327644362E+03  0.21327644362E+03  0.00000000000E+00 0. -1.
         25    2    1    2    0    0  0.13277478573E+02  0.18847715717E+02  0.41396459994E+02  0.13367944028E+03  0.12499999212E+03 0.  0.
          2    1    1    2  501    0  0.21369943404E+02  0.91661657345E+01 -0.16401194486E+03  0.16565207856E+03  0.00000000000E+00 0. -1.
          1    1    1    2  502    0 -0.34647421977E+02 -0.28013881452E+02  0.21320635090E+03  0.21781223443E+03  0.00000000000E+00 0. -1.
         22    1    3    3    0    0  0.59270523696E+02 -0.29245105812E+01  0.55101874845E+02  0.80980024406E+02  0.00000000000E+00 0.  1.
         22    1    3    3    0    0 -0.45993045122E+02  0.21772226299E+02 -0.13705414851E+02  0.52699415878E+02  0.00000000000E+00 0.  1.
</event>
<event>
 7    1  0.5970484E-006  0.1345963E+03  0.7818608E-02  0.1289179E+00
          2   -1    0    0  502    0  0.00000000000E+00  0.00000000000E+00  0.31500168095E+03  0.31500168095E+03  0.00000000000E+00 0. -1.
          1   -1    0    0  501    0 -0.00000000000E+00 -0.00000000000E+00 -0.22810930394E+04  0.22810930394E+04  0.00000000000E+00 0. -1.
         25    2    1    2    0    0  0.12957099501E+03  0.82651724928E+02  0.21019128017E+03  0.28883496667E+03  0.12500125332E+03 0.  0.
          2    1    1    2  501    0 -0.69517277514E+02 -0.11522321888E+03 -0.22213457949E+04  0.22254182039E+04  0.00000000000E+00 0. -1.
          1    1    1    2  502    0 -0.60053717495E+02  0.32571493949E+02  0.45063156292E+02  0.81841549704E+02  0.00000000000E+00 0. -1.
         22    1    3    3    0    0  0.13207093939E+03  0.10910701369E+03  0.18645181725E+03  0.25320219909E+03  0.00000000000E+00 0. -1.
         22    1    3    3    0    0 -0.24999443856E+01 -0.26455288766E+02  0.23739462919E+02  0.35632767579E+02  0.00000000000E+00 0. -1.
</event>
<event>
 7    1  0.5970484E-006  0.1640274E+03  0.7818608E-02  0.1381053E+00
          2   -1    0    0  502    0  0.00000000000E+00  0.00000000000E+00  0.17182960735E+04  0.17182960735E+04  0.00000000000E+00 0. -1.
          1   -1    0    0  501    0 -0.00000000000E+00 -0.00000000000E+00 -0.11903957723E+04  0.11903957723E+04  0.00000000000E+00 0. -1.
         25    2    1    2    0    0  0.84344052142E+02  0.11052008661E+03 -0.87094341453E+03  0.89078323585E+03  0.12499493300E+03 0.  0.
          2    1    1    2  501    0  0.14753681403E+02  0.20328538072E+02 -0.30507251135E+03  0.30610481499E+03  0.00000000000E+00 0. -1.
          1    1    1    2  502    0 -0.99097733545E+02 -0.13084862468E+03  0.17039162271E+04  0.17118037949E+04  0.00000000000E+00 0. -1.
         22    1    3    3    0    0  0.84240456882E+02  0.52131632626E+02 -0.28088848561E+03  0.29784644205E+03  0.00000000000E+00 0. -1.
         22    1    3    3    0    0  0.10359525985E+00  0.58388453985E+02 -0.59005492892E+03  0.59293679380E+03  0.00000000000E+00 0. -1.
</event>
<event>
 7    1  0.5970484E-006  0.1007114E+03  0.7818608E-02  0.1335384E+00
          2   -1    0    0  502    0  0.00000000000E+00  0.00000000000E+00  0.12061604837E+04  0.12061604837E+04  0.00000000000E+00 0. -1.
          1   -1    0    0  501    0 -0.00000000000E+00 -0.00000000000E+00 -0.54287206170E+03  0.54287206170E+03  0.00000000000E+00 0. -1.
         25    2    1    2    0    0  0.10219031157E+03 -0.10819905337E+03  0.78815608040E+03  0.81176698238E+03  0.12500292668E+03 0.  0.
          2    1    1    2  501    0 -0.87136371621E+02  0.49998444072E+02 -0.52404462009E+03  0.53358725201E+03  0.00000000000E+00 0. -1.
          1    1    1    2  502    0 -0.15053939951E+02  0.58200609295E+02  0.39917696169E+03  0.40367831100E+03  0.00000000000E+00 0. -1.
         22    1    3    3    0    0  0.47405253909E+02 -0.94660456760E+02  0.26181449181E+03  0.28240872560E+03  0.00000000000E+00 0.  1.
         22    1    3    3    0    0  0.54785057663E+02 -0.13538596607E+02  0.52634158859E+03  0.52935825678E+03  0.00000000000E+00 0.  1.
</event>
<event>
 7    1  0.5970484E-006  0.1215779E+03  0.7818608E-02  0.1286745E+00
          2   -1    0    0  502    0  0.00000000000E+00  0.00000000000E+00  0.13920310492E+04  0.13920310492E+04  0.00000000000E+00 0. -1.
          1   -1    0    0  501    0 -0.00000000000E+00 -0.00000000000E+00 -0.33281442162E+04  0.33281442162E+04  0.00000000000E+00 0. -1.
         25    2    1    2    0    0  0.64431186403E+02  0.10395697638E+03 -0.26836390938E+02  0.17692800270E+03  0.12499958216E+03 0.  0.
          2    1    1    2  501    0 -0.75312184033E+02  0.17780745326E+02 -0.32229608679E+04  0.32238897060E+04  0.00000000000E+00 0. -1.
          1    1    1    2  502    0  0.10880997630E+02 -0.12173772171E+03  0.13136840920E+04  0.13193575567E+04  0.00000000000E+00 0. -1.
         22    1    3    3    0    0  0.20940537376E+02 -0.55889582655E+01 -0.52064036471E+02  0.56395092462E+02  0.00000000000E+00 0.  1.
         22    1    3    3    0    0  0.43490649027E+02  0.10954593465E+03  0.25227645533E+02  0.12053291024E+03  0.00000000000E+00 0.  1.
</event>
<event>
 7    1  0.5970484E-006  0.1204206E+03  0.7818608E-02  0.1361891E+00
          2   -1    0    0  502    0  0.00000000000E+00  0.00000000000E+00  0.77640415202E+03  0.77640415202E+03  0.00000000000E+00 0. -1.
          1   -1    0    0  501    0 -0.00000000000E+00 -0.00000000000E+00 -0.16418848682E+04  0.16418848682E+04  0.00000000000E+00 0. -1.
         25    2    1    2    0    0  0.77237977207E+02  0.52634042913E+02  0.53910496431E+03  0.56124436412E+03  0.12500010445E+03 0.  0.
          2    1    1    2  501    0 -0.77038538291E+02 -0.92714877340E+02 -0.16267921643E+04  0.16312521972E+04  0.00000000000E+00 0. -1.
          1    1    1    2  502    0 -0.19943891597E+00  0.40080834427E+02  0.22220648382E+03  0.22579245895E+03  0.00000000000E+00 0. -1.
         22    1    3    3    0    0  0.50567185252E+02  0.65328787965E+02  0.51895182447E+03  0.52548633368E+03  0.00000000000E+00 0. -1.
         22    1    3    3    0    0  0.26670791955E+02 -0.12694745052E+02  0.20153139841E+02  0.35758030439E+02  0.00000000000E+00 0. -1.
</event>
<event>
 7    1  0.5970484E-006  0.1475408E+03  0.7818608E-02  0.1358756E+00
          2   -1    0    0  502    0  0.00000000000E+00  0.00000000000E+00  0.94412205528E+03  0.94412205528E+03  0.00000000000E+00 0. -1.
          1   -1    0    0  501    0 -0.00000000000E+00 -0.00000000000E+00 -0.65329239209E+03  0.65329239209E+03  0.00000000000E+00 0. -1.
         25    2    1    2    0    0  0.84723768530E+02  0.83993416907E+02 -0.75242679152E+02  0.18848023263E+03  0.12502130334E+03 0.  0.
          2    1    1    2  501    0  0.78455277478E+01  0.32657679180E+02 -0.51463276914E+03  0.51572760581E+03  0.00000000000E+00 0. -1.
          1    1    1    2  502    0 -0.92569296278E+02 -0.11665109609E+03  0.88070511149E+03  0.89320660893E+03  0.00000000000E+00 0. -1.
         22    1    3    3    0    0  0.65941048431E+02  0.56250737572E+02 -0.11010665114E+03  0.14012794857E+03  0.00000000000E+00 0. -1.
         22    1    3    3    0    0  0.18782720099E+02  0.27742679335E+02  0.34863971990E+02  0.48352284061E+02  0.00000000000E+00 0. -1.
</event>
<event>
 7    1  0.5970484E-006  0.2758715E+03  0.7818608E-02  0.1217759E+00
          2   -1    0    0  502    0  0.00000000000E+00  0.00000000000E+00  0.17323718917E+04  0.17323718917E+04  0.00000000000E+00 0. -1.
          1   -1    0    0  501    0 -0.00000000000E+00 -0.00000000000E+00 -0.72845950227E+03  0.72845950227E+03  0.00000000000E+00 0. -1.
         25    2    1    2    0    0 -0.28398677616E+03  0.92418716402E+02  0.49159969737E+02  0.32747587450E+03  0.12503614509E+03 0.  0.
          2    1    1    2  501    0  0.27185411665E+03 -0.25717966335E+02 -0.55686771028E+03  0.62021586668E+03  0.00000000000E+00 0. -1.
          1    1    1    2  502    0  0.12132659515E+02 -0.66700750067E+02  0.15116201300E+04  0.15131396528E+04  0.00000000000E+00 0. -1.
         22    1    3    3    0    0  0.10179232922E+02 -0.70870063437E+01 -0.25428705950E+01  0.12661304540E+02  0.00000000000E+00 0.  1.
         22    1    3    3    0    0 -0.29416600908E+03  0.99505722746E+02  0.51702840332E+02  0.31481456996E+03  0.00000000000E+00 0.  1.
</event>
<event>
 7    1  0.5970484E-006  0.1408461E+03  0.7818608E-02  0.1286606E+00
          2   -1    0    0  502    0  0.00000000000E+00  0.00000000000E+00  0.16542340342E+03  0.16542340342E+03  0.00000000000E+00 0. -1.
          1   -1    0    0  501    0 -0.00000000000E+00 -0.00000000000E+00 -0.11429766599E+04  0.11429766599E+04  0.00000000000E+00 0. -1.
         25    2    1    2    0    0 -0.17106649080E+03 -0.49185637460E+02 -0.12483505938E+03  0.25078499612E+03  0.12500540395E+03 0.  0.
          2    1    1    2  501    0  0.11234316600E+03  0.81201598740E+02 -0.93858916104E+03  0.94876988770E+03  0.00000000000E+00 0. -1.
          1    1    1    2  502    0  0.58723324804E+02 -0.32015961280E+02  0.85870963943E+02  0.10884517950E+03  0.00000000000E+00 0. -1.
         22    1    3    3    0    0 -0.30156912924E+02 -0.35074017821E+02 -0.95573946198E+02  0.10617911902E+03  0.00000000000E+00 0.  1.
         22    1    3    3    0    0 -0.14090957788E+03 -0.14111619638E+02 -0.29261113184E+02  0.14460587710E+03  0.00000000000E+00 0.  1.
</event>
<event>
 7    1  0.5970484E-006  0.5763706E+02  0.7818608E-02  0.1419991E+00
          2   -1    0    0  502    0  0.00000000000E+00  0.00000000000E+00  0.51530781161E+02  0.51530781161E+02  0.00000000000E+00 0. -1.
          1   -1    0    0  501    0 -0.00000000000E+00 -0.00000000000E+00 -0.21761629586E+04  0.21761629586E+04  0.00000000000E+00 0. -1.
         25    2    1    2    0    0  0.64867618004E+02 -0.76717785774E+02 -0.96915927104E+03  0.98233783333E+03  0.12499799849E+03 0.  0.
          2    1    1    2  501    0 -0.46573550260E+02  0.27479379788E+02 -0.11842355087E+04  0.11854695070E+04  0.00000000000E+00 0. -1.
          1    1    1    2  502    0 -0.18294067745E+02  0.49238405986E+02  0.28762602359E+02  0.59886399401E+02  0.00000000000E+00 0. -1.
         22    1    3    3    0    0 -0.21311022135E+02 -0.51674204732E+00 -0.45359250491E+03  0.45409314815E+03  0.00000000000E+00 0. -1.
         22    1    3    3    0    0  0.86178640140E+02 -0.76201043727E+02 -0.51556676613E+03  0.52824468518E+03  0.00000000000E+00 0. -1.
</event>
<event>
 7    1  0.5970484E-006  0.5574467E+02  0.7818608E-02  0.1509549E+00
          2   -1    0    0  502    0  0.00000000000E+00  0.00000000000E+00  0.44030815295E+03  0.44030815295E+03  0.00000000000E+00 0. -1.
          1   -1    0    0  501    0 -0.00000000000E+00 -0.00000000000E+00 -0.13796276753E+03  0.13796276753E+03  0.00000000000E+00 0. -1.
         25    2    1    2    0    0 -0.17685068577E+02 -0.80152171165E+02  0.95240155136E+02  0.17729348296E+03  0.12500063903E+03 0.  0.
          2    1    1    2  501    0  0.68676586761E+01  0.53846699182E+02 -0.88600433363E+02  0.10390701873E+03  0.00000000000E+00 0. -1.
          1    1    1    2  502    0  0.10817409901E+02  0.26305471983E+02  0.29570566364E+03  0.29707041879E+03  0.00000000000E+00 0. -1.
         22    1    3    3    0    0 -0.22460971573E+02 -0.44715978615E+02  0.12250297980E+03  0.13232911262E+03  0.00000000000E+00 0. -1.
         22    1    3    3    0    0  0.47759029957E+01 -0.35436192551E+02 -0.27262824661E+02  0.44964370344E+02  0.00000000000E+00 0. -1.
</event>
<event>
 7    1  0.5970484E-006  0.1137746E+03  0.7818608E-02  0.1394432E+00
          2   -1    0    0  502    0  0.00000000000E+00  0.00000000000E+00  0.14997816449E+04  0.14997816449E+04  0.00000000000E+00 0. -1.
          1   -1    0    0  501    0 -0.00000000000E+00 -0.00000000000E+00 -0.40256640414E+03  0.40256640414E+03  0.00000000000E+00 0. -1.
         25    2    1    2    0    0  0.92076970643E+02  0.29283545846E+01  0.67528899364E+02  0.16932808499E+03  0.12500041734E+03 0.  0.
          2    1    1    2  501    0  0.20661031583E+02 -0.25099965665E+02 -0.34851979699E+03  0.35003276331E+03  0.00000000000E+00 0. -1.
          1    1    1    2  502    0 -0.11273800223E+03  0.22171611080E+02  0.13782061384E+04  0.13829872008E+04  0.00000000000E+00 0. -1.
         22    1    3    3    0    0  0.35177632928E+02 -0.89567125795E+01 -0.35665184563E+02  0.50889035642E+02  0.00000000000E+00 0. -1.
         22    1    3    3    0    0  0.56899337715E+02  0.11885067164E+02  0.10319408393E+03  0.11843904935E+03  0.00000000000E+00 0. -1.
</event>
<event>
 7    1  0.5970484E-006  0.2590329E+03  0.7818608E-02  0.1308456E+00
          2   -1    0    0  502    0  0.00000000000E+00  0.00000000000E+00  0.20747868295E+04  0.20747868295E+04  0.00000000000E+00 0. -1.
          1   -1    0    0  501    0 -0.00000000000E+00 -0.00000000000E+00 -0.22074532099E+04  0.22074532099E+04  0.00000000000E+00 0. -1.
         25    2    1    2    0    0  0.16744924613E+03 -0.23236418748E+03  0.68463364620E+02  0.31991343957E+03  0.12500004349E+03 0.  0.
          2    1    1    2  501    0 -0.15717055929E+03  0.20448953054E+03 -0.20736215024E+04  0.20895991692E+04  0.00000000000E+00 0. -1.
          1    1    1    2  502    0 -0.10278686837E+02  0.27874656933E+02  0.18724917574E+04  0.18727274306E+04  0.00000000000E+00 0. -1.
         22    1    3    3    0    0  0.16482237017E+03 -0.19305674834E+03  0.96490968592E+02  0.27156551476E+03  0.00000000000E+00 0.  1.
         22    1    3    3    0    0  0.26268759533E+01 -0.39307439136E+02 -0.28027603972E+02  0.48347924807E+02  0.00000000000E+00 0.  1.
</event>
<event>
 7    1  0.5970484E-006  0.1005910E+03  0.7818608E-02  0.1302061E+00
          2   -1    0    0  502    0  0.00000000000E+00  0.00000000000E+00  0.11127459973E+04  0.11127459973E+04  0.00000000000E+00 0. -1.
          1   -1    0    0  501    0 -0.00000000000E+00 -0.00000000000E+00 -0.10138213222E+03  0.10138213222E+03  0.00000000000E+00 0. -1.
         25    2    1    2    0    0 -0.22710435761E+02 -0.25805063772E+01  0.28228813687E+01  0.12710446632E+03  0.12500061518E+03 0.  0.
          2    1    1    2  501    0 -0.80802445956E+02 -0.70710296286E+01  0.84573590710E+01  0.81550975807E+02  0.00000000000E+00 0. -1.
          1    1    1    2  502    0  0.10351288172E+03  0.96515360059E+01  0.10000836246E+04  0.10054726874E+04  0.00000000000E+00 0. -1.
         22    1    3    3    0    0 -0.15438835311E+02  0.56679210841E+02 -0.21611866304E+02  0.62593636598E+02  0.00000000000E+00 0. -1.
         22    1    3    3    0    0 -0.72716004506E+01 -0.59259717219E+02  0.24434747673E+02  0.64510829725E+02  0.00000000000E+00 0. -1.
</event>
<event>
 7    1  0.5970484E-006  0.1104042E+03  0.7818608E-02  0.1369963E+00
          2   -1    0    0  502    0  0.00000000000E+00  0.00000000000E+00  0.93315662849E+03  0.93315662849E+03  0.00000000000E+00 0. -1.
          1   -1    0    0  501    0 -0.00000000000E+00 -0.00000000000E+00 -0.84369735700E+02  0.84369735700E+02  0.00000000000E+00 0. -1.
         25    2    1    2    0    0  0.66622755970E+02  0.49947483107E+02  0.27292797422E+03  0.31152169959E+03  0.12499098975E+03 0.  0.
          2    1    1    2  501    0  0.40874718202E+02  0.23552584839E+00 -0.52504906218E+02  0.66539937162E+02  0.00000000000E+00 0. -1.
          1    1    1    2  502    0 -0.10749747417E+03 -0.50183008955E+02  0.62836382478E+03  0.63946472743E+03  0.00000000000E+00 0. -1.
         22    1    3    3    0    0  0.82945476522E+02  0.75015876035E+02  0.16358077499E+03  0.19815651309E+03  0.00000000000E+00 0.  1.
         22    1    3    3    0    0 -0.16322720552E+02 -0.25068392929E+02  0.10934719923E+03  0.11336518650E+03  0.00000000000E+00 0.  1.
</event>
<event>
 7    1  0.5970484E-006  0.1177704E+03  0.7818608E-02  0.1289928E+00
          2   -1    0    0  502    0  0.00000000000E+00  0.00000000000E+00  0.16477165695E+04  0.16477165695E+04  0.00000000000E+00 0. -1.
          1   -1    0    0  501    0 -0.00000000000E+00 -0.00000000000E+00 -0.70088942311E+03  0.70088942311E+03  0.00000000000E+00 0. -1.
         25    2    1    2    0    0  0.32282933282E+02 -0.79470545174E+02 -0.93537583099E+02  0.17813648691E+03  0.12500229272E+03 0.  0.
          2    1    1    2  501    0  0.33000096188E+02  0.12129642275E+03 -0.55710923051E+03  0.57111515760E+03  0.00000000000E+00 0. -1.
          1    1    1    2  502    0 -0.65283029470E+02 -0.41825877581E+02  0.15974739600E+04  0.15993543481E+04  0.00000000000E+00 0. -1.
         22    1    3    3    0    0 -0.33641498166E+02 -0.74843055458E+02 -0.32768841919E+02  0.88357401217E+02  0.00000000000E+00 0. -1.
         22    1    3    3    0    0  0.65924431449E+02 -0.46274897156E+01 -0.60768741180E+02  0.89779085691E+02  0.00000000000E+00 0. -1.
</event>
<event>
 7    1  0.5970484E-006  0.1448182E+03  0.7818608E-02  0.1361475E+00
          2   -1    0    0  502    0  0.00000000000E+00  0.00000000000E+00  0.10249048976E+04  0.10249048976E+04  0.00000000000E+00 0. -1.
          1   -1    0    0  501    0 -0.00000000000E+00 -0.00000000000E+00 -0.16277788117E+04  0.16277788117E+04  0.00000000000E+00 0. -1.
         25    2    1    2    0    0  0.11261660308E+03  0.25762957324E+02 -0.43591906821E+03  0.46796922109E+03  0.12499411428E+03 0.  0.
          2    1    1    2  501    0  0.24014889847E+02  0.23278395139E+02 -0.11703726034E+04  0.11708503873E+04  0.00000000000E+00 0. -1.
          1    1    1    2  502    0 -0.13663149293E+03 -0.49041352463E+02  0.10034177575E+04  0.10138641010E+04  0.00000000000E+00 0. -1.
         22    1    3    3    0    0 -0.18839727931E+00 -0.18874393653E+02 -0.21587598372E+03  0.21669960447E+03  0.00000000000E+00 0. -1.
         22    1    3    3    0    0  0.11280500036E+03  0.44637350977E+02 -0.22004308448E+03  0.25126961662E+03  0.00000000000E+00 0. -1.
</event>
<event>
 7    1  0.5970484E-006  0.8478272E+02  0.7818608E-02  0.1338190E+00
          2   -1    0    0  502    0  0.00000000000E+00  0.00000000000E+00  0.25737635287E+04  0.25737635287E+04  0.00000000000E+00 0. -1.
          1   -1    0    0  501    0 -0.00000000000E+00 -0.00000000000E+00 -0.54262079402E+02  0.54262079402E+02  0.00000000000E+00 0. -1.
         25    2    1    2    0    0  0.96147856653E+02 -0.92877643033E+02  0.34868227318E+03  0.39379558444E+03  0.12499987112E+03 0.  0.
          2    1    1    2  501    0 -0.74902925806E+02  0.26507321177E+02  0.19539906325E+02  0.81822333806E+02  0.00000000000E+00 0. -1.
          1    1    1    2  502    0 -0.21244930847E+02  0.66370321856E+02  0.21512792698E+04  0.21524076898E+04  0.00000000000E+00 0. -1.
         22    1    3    3    0    0  0.44926177439E+02 -0.11777645760E+03  0.23814192535E+03  0.26944615787E+03  0.00000000000E+00 0.  1.
         22    1    3    3    0    0  0.51221679214E+02  0.24898814571E+02  0.11054034784E+03  0.12434942657E+03  0.00000000000E+00 0.  1.
</event>
<event>
 7    1  0.5970484E-006  0.5571404E+02  0.7818608E-02  0.1476484E+00
          2   -1    0    0  502    0  0.00000000000E+00  0.00000000000E+00  0.37234659092E+03  0.37234659092E+03  0.00000000000E+00 0. -1.
          1   -1    0    0  501    0 -0.00000000000E+00 -0.00000000000E+00 -0.40396899746E+04  0.40396899746E+04  0.00000000000E+00 0. -1.
         25    2    1    2    0    0  0.53094472789E+02 -0.19842104842E+02 -0.79754043059E+02  0.15874251782E+03  0.12500298963E+03 0.  0.
          2    1    1    2  501    0 -0.53436039811E+02 -0.15953128884E+02 -0.39192803073E+04  0.39196770326E+04  0.00000000000E+00 0. -1.
          1    1    1    2  502    0  0.34156702216E+00  0.35795233726E+02  0.33169096665E+03  0.33361701513E+03  0.00000000000E+00 0. -1.
         22    1    3    3    0    0 -0.37651305296E+02  0.13065942987E+02 -0.31646268553E+02  0.50890332775E+02  0.00000000000E+00 0. -1.
         22    1    3    3    0    0  0.90745778085E+02 -0.32908047829E+02 -0.48107774506E+02  0.10785218505E+03  0.00000000000E+00 0. -1.
</event>
<event>
 7    1  0.5970484E-006  0.9861244E+02  0.7818608E-02  0.1332195E+00
          2   -1    0    0  502    0  0.00000000000E+00  0.00000000000E+00  0.41725436817E+02  0.41725436817E+02  0.00000000000E+00 0. -1.
          1   -1    0    0  501    0 -0.00000000000E+00 -0.00000000000E+00 -0.26012396966E+04  0.26012396966E+04  0.00000000000E+00 0. -1.
         25    2    1    2    0    0 -0.53461173366E+02  0.87358968286E+02 -0.86224424757E+03  0.87725752180E+03  0.12500372271E+03 0.  0.
          2    1    1    2  501    0 -0.39003701394E+02 -0.49642300856E+02 -0.16567277464E+04  0.16579301771E+04  0.00000000000E+00 0. -1.
          1    1    1    2  502    0  0.92464874760E+02 -0.37716667430E+02 -0.40542265910E+02  0.10777743452E+03  0.00000000000E+00 0. -1.
         22    1    3    3    0    0 -0.96785253685E+01  0.30506857272E+02 -0.68896663197E+03  0.68970962162E+03  0.00000000000E+00 0. -1.
         22    1    3    3    0    0 -0.43782647998E+02  0.56852111014E+02 -0.17327761560E+03  0.18754790017E+03  0.00000000000E+00 0. -1.
</event>
<event>
 7    1  0.5970484E-006  0.1414000E+03  0.7818608E-02  0.1303800E+00
          2   -1    0    0  502    0  0.00000000000E+00  0.00000000000E+00  0.45797511430E+03  0.45797511430E+03  0.00000000000E+00 0. -1.
          1   -1    0    0  501    0 -0.00000000000E+00 -0.00000000000E+00 -0.42489089931E+03  0.42489089931E+03  0.00000000000E+00 0. -1.
         25    2    1    2    0    0 -0.61522548071E+02  0.68960934693E+02  0.55199870470E+02  0.16496094991E+03  0.12499781943E+03 0.  0.
          2    1    1    2  501    0  0.87573969506E+02 -0.11942115941E+03 -0.35267393833E+03  0.38250427479E+03  0.00000000000E+00 0. -1.
          1    1    1    2  502    0 -0.26051421434E+02  0.50460224716E+02  0.33055828285E+03  0.33540078891E+03  0.00000000000E+00 0. -1.
         22    1    3    3    0    0 -0.41525538357E+02  0.80956770619E+02 -0.13892011044E+02  0.92039975096E+02  0.00000000000E+00 0. -1.
         22    1    3    3    0    0 -0.19997009715E+02 -0.11995835926E+02  0.69091881514E+02  0.72920974817E+02  0.00000000000E+00 0. -1.
</event>
<event>
 7    1  0.5970484E-006  0.7648029E+02  0.7818608E-02  0.1488409E+00
          2   -1    0    0  502    0  0.00000000000E+00  0.00000000000E+00  0.36510601521E+02  0.36510601521E+02  0.00000000000E+00 0. -1.
          1   -1    0    0  501    0 -0.00000000000E+00 -0.00000000000E+00 -0.18747661714E+04  0.18747661714E+04  0.00000000000E+00 0. -1.
         25    2    1    2    0    0 -0.55429361507E+02  0.57936496288E+02 -0.32527367472E+03  0.35757115865E+03  0.12500047326E+03 0.  0.
          2    1    1    2  501    0  0.33919473660E+02 -0.68531045904E+02 -0.15249785487E+04  0.15268944328E+04  0.00000000000E+00 0. -1.
          1    1    1    2  502    0  0.21509887847E+02  0.10594549615E+02  0.11996653520E+02  0.26811181481E+02  0.00000000000E+00 0. -1.
         22    1    3    3    0    0 -0.36040812155E+02  0.82824878622E+02 -0.30927872360E+03  0.32219905266E+03  0.00000000000E+00 0.  1.
         22    1    3    3    0    0 -0.19388549353E+02 -0.24888382333E+02 -0.15994951113E+02  0.35372105992E+02  0.00000000000E+00 0.  1.
</event>
<event>
 7    1  0.5970484E-006  0.7824253E+02  0.7818608E-02  0.1452511E+00
          2   -1    0    0  502    0  0.00000000000E+00  0.00000000000E+00  0.38763956056E+02  0.38763956056E+02  0.00000000000E+00 0. -1.
          1   -1    0    0  501    0 -0.00000000000E+00 -0.00000000000E+00 -0.99167586380E+03  0.99167586380E+03  0.00000000000E+00 0. -1.
         25    2    1    2    0    0  0.68213520227E+02 -0.13811591358E+01 -0.52664981369E+03  0.54556290234E+03  0.12499544877E+03 0.  0.
          2    1    1    2  501    0 -0.78081259490E+02  0.30035271363E+02 -0.44260742345E+03  0.45044437159E+03  0.00000000000E+00 0. -1.
          1    1    1    2  502    0  0.98677392635E+01 -0.28654112228E+02  0.16345329390E+02  0.34432545921E+02  0.00000000000E+00 0. -1.
         22    1    3    3    0    0  0.80610300873E+02 -0.13241310168E+02 -0.52119797856E+03  0.52756107301E+03  0.00000000000E+00 0. -1.
         22    1    3    3    0    0 -0.12396780646E+02  0.11860151032E+02 -0.54518351220E+01  0.18001829326E+02  0.00000000000E+00 0. -1.
</event>
<event>
 7    1  0.5970484E-006  0.1423020E+03  0.7818608E-02  0.1317826E+00
          2   -1    0    0  502    0  0.00000000000E+00  0.00000000000E+00  0.25175744832E+04  0.25175744832E+04  0.00000000000E+00 0. -1.
          1   -1    0    0  501    0 -0.00000000000E+00 -0.00000000000E+00 -0.69383226519E+03  0.69383226519E+03  0.00000000000E+00 0. -1.
         25    2    1    2    0    0  0.15818175554E+03 -0.10603825209E+03  0.11681309205E+03  0.25600138069E+03  0.12500331895E+03 0.  0.
          2    1    1    2  501    0 -0.39803503100E+02  0.29749201387E+02 -0.62111790854E+03  0.62310255187E+03  0.00000000000E+00 0. -1.
          1    1    1    2  502    0 -0.11837825244E+03  0.76289050704E+02  0.23280470345E+04  0.23323028158E+04  0.00000000000E+00 0. -1.
         22    1    3    3    0    0  0.98700336020E+02 -0.35162501445E+02 -0.27550453100E+01  0.10481291959E+03  0.00000000000E+00 0.  1.
         22    1    3    3    0    0  0.59481419521E+02 -0.70875750647E+02  0.11956813736E+03  0.15118846110E+03  0.00000000000E+00 0.  1.
</event>
<event>
 7    1  0.5970484E-006  0.8482429E+02  0.7818608E-02  0.1469918E+00
          2   -1    0    0  502    0  0.00000000000E+00  0.00000000000E+00  0.12749953374E+04  0.12749953374E+04  0.00000000000E+00 0. -1.
          1   -1    0    0  501    0 -0.00000000000E+00 -0.00000000000E+00 -0.27300602602E+03  0.27300602602E+03  0.00000000000E+00 0. -1.
         25    2    1    2    0    0 -0.56243258677E+02 -0.87379675874E+02  0.59719272570E+03  0.61892062115E+03  0.12500028701E+03 0.  0.
          2    1    1    2  501    0  0.18694349462E+02  0.16050010571E+02 -0.25911984827E+03  0.26028864229E+03  0.00000000000E+00 0. -1.
          1    1    1    2  502    0  0.37548909215E+02  0.71329665303E+02  0.66391643399E+03  0.66879210003E+03  0.00000000000E+00 0. -1.
         22    1    3    3    0    0 -0.12728116295E+01  0.20769416413E+02  0.25520806450E+03  0.25605496459E+03  0.00000000000E+00 0. -1.
         22    1    3    3    0    0 -0.54970447048E+02 -0.10814909229E+03  0.34198466120E+03  0.36286565656E+03  0.00000000000E+00 0. -1.
</event>
<event>
 7    1  0.5970484E-006  0.1114955E+03  0.7818608E-02  0.1400972E+00
          2   -1    0    0  502    0  0.00000000000E+00  0.00000000000E+00  0.71906913349E+03  0.71906913349E+03  0.00000000000E+00 0. -1.
          1   -1    0    0  501    0 -0.00000000000E+00 -0.00000000000E+00 -0.22605356463E+03  0.22605356463E+03  0.00000000000E+00 0. -1.
         25    2    1    2    0    0  0.11013213239E+03  0.70266971377E+02 -0.58767460515E+02  0.19011817418E+03  0.12499908754E+03 0.  0.
          2    1    1    2  501    0 -0.65226144463E+01 -0.30811856270E+02 -0.94329850826E+02  0.99448658828E+02  0.00000000000E+00 0. -1.
          1    1    1    2  502    0 -0.10360951795E+03 -0.39455115107E+02  0.64611288020E+03  0.65555586511E+03  0.00000000000E+00 0. -1.
         22    1    3    3    0    0  0.42444910076E+02 -0.10029997258E+02  0.29729966208E+02  0.52782971943E+02  0.00000000000E+00 0. -1.
         22    1    3    3    0    0  0.67687222317E+02  0.80296968635E+02 -0.88497426724E+02  0.13733520224E+03  0.00000000000E+00 0. -1.
</event>
<event>
 7    1  0.5970484E-006  0.4703771E+02  0.7818608E-02  0.1492759E+00
          2   -1    0    0  502    0  0.00000000000E+00  0.00000000000E+00  0.12579588446E+04  0.12579588446E+04  0.00000000000E+00 0. -1.
          1   -1    0    0  501    0 -0.00000000000E+00 -0.00000000000E+00 -0.18234115407E+02  0.18234115407E+02  0.00000000000E+00 0. -1.
         25    2    1    2    0    0  0.93945896737E+01  0.99388512954E+01  0.27559999486E+03  0.30293122042E+03  0.12499971222E+03 0.  0.
          2    1    1    2  501    0  0.61318090498E+00  0.37818066744E+02  0.88059463240E+02  0.95838672931E+02  0.00000000000E+00 0. -1.
          1    1    1    2  502    0 -0.10007770579E+02 -0.47756918039E+02  0.87606527109E+03  0.87742306666E+03  0.00000000000E+00 0. -1.
         22    1    3    3    0    0 -0.31445850548E+02  0.24110829950E+00  0.25359447849E+03  0.25553680590E+03  0.00000000000E+00 0. -1.
         22    1    3    3    0    0  0.40840440221E+02  0.96977429959E+01  0.22005516376E+02  0.47394414519E+02  0.00000000000E+00 0. -1.
</event>
<event>
 7    1  0.5970484E-006  0.5547563E+02  0.7818608E-02  0.1436132E+00
          2   -1    0    0  502    0  0.00000000000E+00  0.00000000000E+00  0.13779771128E+04  0.13779771128E+04  0.00000000000E+00 0. -1.
          1   -1    0    0  501    0 -0.00000000000E+00 -0.00000000000E+00 -0.20468553950E+03  0.20468553950E+03  0.00000000000E+00 0. -1.
         25    2    1    2    0    0  0.74948608082E+02  0.41496288871E+02  0.12716007812E+02  0.15207241101E+03  0.12500034197E+03 0.  0.
          2    1    1    2  501    0 -0.47803028301E+02  0.67123008514E+01 -0.13008075778E+03  0.13874865060E+03  0.00000000000E+00 0. -1.
          1    1    1    2  502    0 -0.27145579781E+02 -0.48208589722E+02  0.12906563232E+04  0.12918415907E+04  0.00000000000E+00 0. -1.
         22    1    3    3    0    0  0.80742642948E+02 -0.21294811369E+02 -0.11965160075E+02  0.84356436845E+02  0.00000000000E+00 0. -1.
         22    1    3    3    0    0 -0.57940348668E+01  0.62791100240E+02  0.24681167888E+02  0.67715974169E+02  0.00000000000E+00 0. -1.
</event>
<event>
 7    1  0.5970484E-006  0.1544059E+03  0.7818608E-02  0.1295526E+00
          2   -1    0    0  502    0  0.00000000000E+00  0.00000000000E+00  0.32097866878E+03  0.32097866878E+03  0.00000000000E+00 0. -1.
          1   -1    0    0  501    0 -0.00000000000E+00 -0.00000000000E+00 -0.22627168915E+03  0.22627168915E+03  0.00000000000E+00 0. -1.
         25    2    1    2    0    0  0.67653126399E+02  0.89019939146E+02 -0.52502184985E+02  0.17574480517E+03  0.12501304748E+03 0.  0.
          2    1    1    2  501    0  0.49073881335E+02  0.27242978877E+02 -0.75751833490E+02  0.94280252463E+02  0.00000000000E+00 0. -1.
          1    1    1    2  502    0 -0.11672700773E+03 -0.11626291802E+03  0.22296099810E+03  0.27722530028E+03  0.00000000000E+00 0. -1.
         22    1    3    3    0    0 -0.13903231178E+02 -0.11951761331E+02  0.19951864460E+02  0.27096518809E+02  0.00000000000E+00 0. -1.
         22    1    3    3    0    0  0.81556357577E+02  0.10097170048E+03 -0.72454049445E+02  0.14864828637E+03  0.00000000000E+00 0. -1.
</event>
<event>
 7    1  0.5970484E-006  0.9347929E+02  0.7818608E-02  0.1431267E+00
          2   -1    0    0  502    0  0.00000000000E+00  0.00000000000E+00  0.12751066306E+03  0.12751066306E+03  0.00000000000E+00 0. -1.
          1   -1    0    0  501    0 -0.00000000000E+00 -0.00000000000E+00 -0.15719316286E+04  0.15719316286E+04  0.00000000000E+00 0. -1.
         25    2    1    2    0    0 -0.97968854175E+02  0.42276142346E+02 -0.11843838093E+04  0.11957285287E+04  0.12496614767E+03 0.  0.
          2    1    1    2  501    0  0.55545262980E+01 -0.29193796687E+02 -0.36330406972E+03  0.36451745857E+03  0.00000000000E+00 0. -1.
          1    1    1    2  502    0  0.92414327877E+02 -0.13082345659E+02  0.10326691340E+03  0.13919630444E+03  0.00000000000E+00 0. -1.
         22    1    3    3    0    0 -0.10758777021E+03  0.99992135690E+00 -0.10309405499E+04  0.10365396980E+04  0.00000000000E+00 0.  1.
         22    1    3    3    0    0  0.96189160337E+01  0.41276220989E+02 -0.15344325939E+03  0.15918883069E+03  0.00000000000E+00 0.  1.
</event>
<event>
 7    1  0.5970484E-006  0.7635920E+02  0.7818608E-02  0.1376505E+00
          2   -1    0    0  502    0  0.00000000000E+00  0.00000000000E+00  0.13914223581E+03  0.13914223581E+03  0.00000000000E+00 0. -1.
          1   -1    0    0  501    0 -0.00000000000E+00 -0.00000000000E+00 -0.15635258398E+04  0.15635258398E+04  0.00000000000E+00 0. -1.
         25    2    1    2    0    0  0.83140389346E+01 -0.26473884053E+02 -0.20362135526E+03  0.24053402772E+03  0.12499988957E+03 0.  0.
          2    1    1    2  501    0 -0.54568132875E+02  0.58040293451E+02 -0.13336990289E+04  0.13360761417E+04  0.00000000000E+00 0. -1.
          1    1    1    2  502    0  0.46254093940E+02 -0.31566409398E+02  0.11293678014E+03  0.12605790621E+03  0.00000000000E+00 0. -1.
         22    1    3    3    0    0 -0.10195561382E+02 -0.30801137054E+02 -0.21562515668E+03  0.21805244257E+03  0.00000000000E+00 0. -1.
         22    1    3    3    0    0  0.18509600317E+02  0.43272530011E+01  0.12003801419E+02  0.22481585152E+02  0.00000000000E+00 0. -1.
</event>
<event>
 7    1  0.5970484E-006  0.5050543E+02  0.7818608E-02  0.1502705E+00
          2   -1    0    0  502    0  0.00000000000E+00  0.00000000000E+00  0.17857106845E+04  0.17857106845E+04  0.00000000000E+00 0. -1.
          1   -1    0    0  501    0 -0.00000000000E+00 -0.00000000000E+00 -0.11878202576E+03  0.11878202576E+03  0.00000000000E+00 0. -1.
         25    2    1    2    0    0 -0.10248764177E+02 -0.73104792272E+02  0.21620017623E+03  0.26041552406E+03  0.12499752458E+03 0.  0.
          2    1    1    2  501    0  0.22105438808E+02  0.24356655811E+02 -0.93457342245E+02  0.99076596261E+02  0.00000000000E+00 0. -1.
          1    1    1    2  502    0 -0.11856674631E+02  0.48748136460E+02  0.15441858248E+04  0.15450005900E+04  0.00000000000E+00 0. -1.
         22    1    3    3    0    0 -0.58898551864E+02 -0.21196419693E+02  0.15278944996E+03  0.16511494069E+03  0.00000000000E+00 0.  1.
         22    1    3    3    0    0  0.48649787687E+02 -0.51908372579E+02  0.63410726271E+02  0.95300583377E+02  0.00000000000E+00 0.  1.
</event>
<event>
 7    1  0.5970484E-006  0.8088162E+02  0.7818608E-02  0.1473331E+00
          2   -1    0    0  502    0  0.00000000000E+00  0.00000000000E+00  0.15254557199E+04  0.15254557199E+04  0.00000000000E+00 0. -1.
          1   -1    0    0  501    0 -0.00000000000E+00 -0.00000000000E+00 -0.37544457629E+03  0.37544457629E+03  0.00000000000E+00 0. -1.
         25    2    1    2    0    0 -0.58642431344E+02 -0.27816236506E+02 -0.92021720840E+02  0.16823171653E+03  0.12498494139E+03 0.  0.
          2    1    1    2  501    0  0.66313046983E+02  0.51838772133E+02 -0.23798738848E+03  0.25243350723E+03  0.00000000000E+00 0. -1.
          1    1    1    2  502    0 -0.76706156389E+01 -0.24022535627E+02  0.14800202530E+04  0.14802350725E+04  0.00000000000E+00 0. -1.
         22    1    3    3    0    0 -0.25520864396E+02  0.76245365252E+01  0.28080320937E+02  0.38703391333E+02  0.00000000000E+00 0.  1.
         22    1    3    3    0    0 -0.33121566947E+02 -0.35440773031E+02 -0.12010204178E+03  0.12952832520E+03  0.00000000000E+00 0.  1.
</event>
<event>
 7    1  0.5970484E-006  0.1337789E+03  0.7818608E-02  0.1416123E+00
          2   -1    0    0  502    0  0.00000000000E+00  0.00000000000E+00  0.95185122708E+02  0.95185122708E+02  0.00000000000E+00 0. -1.
          1   -1    0    0  501    0 -0.00000000000E+00 -0.00000000000E+00 -0.69695764440E+03  0.69695764440E+03  0.00000000000E+00 0. -1.
         25    2    1    2    0    0  0.82124162072E+02  0.86162608538E+02 -0.25840572519E+03  0.31073736034E+03  0.12496325538E+03 0.  0.
          2    1    1    2  501    0  0.23211151576E+02  0.22089861878E+01 -0.34311819509E+03  0.34390948370E+03  0.00000000000E+00 0. -1.
          1    1    1    2  502    0 -0.10533531365E+03 -0.88371594726E+02 -0.24860140900E+00  0.13749592306E+03  0.00000000000E+00 0. -1.
         22    1    3    3    0    0  0.36381516280E+02 -0.30063338214E+02 -0.81550478918E+02  0.94222606858E+02  0.00000000000E+00 0.  1.
         22    1    3    3    0    0  0.45742645792E+02  0.11622594675E+03 -0.17685524627E+03  0.21651475348E+03  0.00000000000E+00 0.  1.
</event>
<event>
 7    1  0.5970484E-006  0.1585910E+03  0.7818608E-02  0.1201204E+00
          2   -1    0    0  502    0  0.00000000000E+00  0.00000000000E+00  0.19324157438E+03  0.19324157438E+03  0.00000000000E+00 0. -1.
          1   -1    0    0  501    0 -0.00000000000E+00 -0.00000000000E+00 -0.57613023714E+03  0.57613023714E+03  0.00000000000E+00 0. -1.
         25    2    1    2    0    0 -0.47934026259E+02  0.73380777596E+02 -0.16516586154E+03  0.22491533512E+03  0.12499894705E+03 0.  0.
          2    1    1    2  501    0 -0.13579146867E+03 -0.37047726300E+02 -0.30644192454E+03  0.33722175212E+03  0.00000000000E+00 0. -1.
          1    1    1    2  502    0  0.18372549493E+03 -0.36333051296E+02  0.88719123312E+02  0.20723472428E+03  0.00000000000E+00 0. -1.
         22    1    3    3    0    0 -0.88316994849E+02  0.32379320473E+02 -0.89402048409E+02  0.12977302583E+03  0.00000000000E+00 0.  1.
         22    1    3    3    0    0  0.40382968589E+02  0.41001457123E+02 -0.75763813126E+02  0.95142309294E+02  0.00000000000E+00 0.  1.
</event>
<event>
 7    1  0.5970484E-006  0.5492200E+02  0.7818608E-02  0.1468950E+00
          2   -1    0    0  502    0  0.00000000000E+00  0.00000000000E+00  0.39980324054E+03  0.39980324054E+03  0.00000000000E+00 0. -1.
          1   -1    0    0  501    0 -0.00000000000E+00 -0.00000000000E+00 -0.17708587444E+03  0.17708587444E+03  0.00000000000E+00 0. -1.
         25    2    1    2    0    0  0.73902900924E+02 -0.55168924242E+02 -0.37645862075E+02  0.15983706485E+03  0.12500170959E+03 0.  0.
          2    1    1    2  501    0 -0.28861248584E+02  0.25206498507E+02 -0.71332831706E+02  0.80973527254E+02  0.00000000000E+00 0. -1.
          1    1    1    2  502    0 -0.45041652340E+02  0.29962425735E+02  0.33169605988E+03  0.33607852288E+03  0.00000000000E+00 0. -1.
         22    1    3    3    0    0  0.10010391745E+02  0.25322628121E+02  0.27065756420E+02  0.38392689518E+02  0.00000000000E+00 0.  1.
         22    1    3    3    0    0  0.63892509179E+02 -0.80491552363E+02 -0.64711618494E+02  0.12144437533E+03  0.00000000000E+00 0.  1.
</event>
<event>
 7    1  0.5970484E-006  0.1925726E+03  0.7818608E-02  0.1359701E+00
          2   -1    0    0  502    0  0.00000000000E+00  0.00000000000E+00  0.81899428652E+02  0.81899428652E+02  0.00000000000E+00 0. -1.
          1   -1    0    0  501    0 -0.00000000000E+00 -0.00000000000E+00 -0.14277824978E+04  0.14277824978E+04  0.00000000000E+00 0. -1.
         25    2    1    2    0    0 -0.11082855653E+03  0.15015160113E+03 -0.16381410747E+03  0.27798816050E+03  0.12495552531E+03 0.  0.
          2    1    1    2  501    0  0.93911562159E+02 -0.16927062160E+03 -0.11894661819E+04  0.12051148173E+04  0.00000000000E+00 0. -1.
          1    1    1    2  502    0  0.16916994369E+02  0.19119020467E+02  0.73972203074E+01  0.26578948631E+02  0.00000000000E+00 0. -1.
         22    1    3    3    0    0  0.11465524056E+02  0.70426107856E+02 -0.88617548813E+02  0.11377330472E+03  0.00000000000E+00 0.  1.
         22    1    3    3    0    0 -0.12229408058E+03  0.79725493275E+02 -0.75196558659E+02  0.16421485578E+03  0.00000000000E+00 0.  1.
</event>
<event>
 7    1  0.5970484E-006  0.4710041E+02  0.7818608E-02  0.1480487E+00
          2   -1    0    0  502    0  0.00000000000E+00  0.00000000000E+00  0.19186794653E+03  0.19186794653E+03  0.00000000000E+00 0. -1.
          1   -1    0    0  501    0 -0.00000000000E+00 -0.00000000000E+00 -0.63406451418E+03  0.63406451418E+03  0.00000000000E+00 0. -1.
         25    2    1    2    0    0  0.16073540119E+02 -0.12301001427E+02 -0.15670421825E+03  0.20147456345E+03  0.12500445741E+03 0.  0.
          2    1    1    2  501    0 -0.21331990779E+02 -0.35201328606E+02 -0.45064921216E+03  0.45252502669E+03  0.00000000000E+00 0. -1.
          1    1    1    2  502    0  0.52584506595E+01  0.47502330032E+02  0.16515686277E+03  0.17193287056E+03  0.00000000000E+00 0. -1.
         22    1    3    3    0    0  0.46524863464E+02 -0.13166597407E+02 -0.71843698194E+01  0.48882894527E+02  0.00000000000E+00 0.  1.
         22    1    3    3    0    0 -0.30451323344E+02  0.86559598009E+00 -0.14951984843E+03  0.15259166892E+03  0.00000000000E+00 0.  1.
</event>
<event>
 7    1  0.5970484E-006  0.1081179E+03  0.7818608E-02  0.1320697E+00
          2   -1    0    0  502    0  0.00000000000E+00  0.00000000000E+00  0.67714226213E+03  0.67714226213E+03  0.00000000000E+00 0. -1.
          1   -1    0    0  501    0 -0.00000000000E+00 -0.00000000000E+00 -0.48350563476E+03  0.48350563476E+03  0.00000000000E+00 0. -1.
         25    2    1    2    0    0 -0.11118610921E+02 -0.73716692484E+02  0.32584348273E+02  0.14915550187E+03  0.12501139838E+03 0.  0.
          2    1    1    2  501    0  0.56873447247E+02 -0.28791445746E+02 -0.41740446647E+03  0.42224403487E+03  0.00000000000E+00 0. -1.
          1    1    1    2  502    0 -0.45754836327E+02  0.10250813823E+03  0.57845674557E+03  0.58924836015E+03  0.00000000000E+00 0. -1.
         22    1    3    3    0    0  0.26052741762E+02 -0.46077942049E+02  0.71289434502E+02  0.88792485990E+02  0.00000000000E+00 0. -1.
         22    1    3    3    0    0 -0.37171352682E+02 -0.27638750435E+02 -0.38705086229E+02  0.60363015878E+02  0.00000000000E+00 0. -1.
</event>
<event>
 7    1  0.5970484E-006  0.9346813E+02  0.7818608E-02  0.1319219E+00
          2   -1    0    0  502    0  0.00000000000E+00  0.00000000000E+00  0.29952047513E+02  0.29952047513E+02  0.00000000000E+00 0. -1.
          1   -1    0    0  501    0 -0.00000000000E+00 -0.00000000000E+00 -0.11450746069E+04  0.11450746069E+04  0.00000000000E+00 0. -1.
         25    2    1    2    0    0 -0.63252897268E+02  0.99828853591E+00 -0.68489312700E+03  0.69907465692E+03  0.12499941974E+03 0.  0.
          2    1    1    2  501    0 -0.77263602734E+01  0.74317059223E+02 -0.30233131723E+03  0.31142727452E+03  0.00000000000E+00 0. -1.
          1    1    1    2  502    0  0.70979257542E+02 -0.75315347759E+02 -0.12789811512E+03  0.16452472295E+03  0.00000000000E+00 0. -1.
         22    1    3    3    0    0 -0.91583031596E+02  0.32598256068E+02 -0.45031194328E+03  0.46068529848E+03  0.00000000000E+00 0.  1.
         22    1    3    3    0    0  0.28330134328E+02 -0.31599967532E+02 -0.23458118372E+03  0.23838935843E+03  0.00000000000E+00 0.  1.
</event>
<event>
 7    1  0.5970484E-006  0.3564809E+02  0.7818608E-02  0.1570127E+00
          2   -1    0    0  502    0  0.00000000000E+00  0.00000000000E+00  0.10383088736E+04  0.10383088736E+04  0.00000000000E+00 0. -1.
          1   -1    0    0  501    0 -0.00000000000E+00 -0.00000000000E+00 -0.28040973713E+03  0.28040973713E+03  0.00000000000E+00 0. -1.
         25    2    1    2    0    0  0.37394754854E+01 -0.15394323611E+02 -0.20236417880E+03  0.23838511044E+03  0.12500092457E+03 0.  0.
          2    1    1    2  501    0  0.29804251461E+02  0.32152781434E+01 -0.55960160497E+02  0.63483627665E+02  0.00000000000E+00 0. -1.
          1    1    1    2  502    0 -0.33543726946E+02  0.12179045468E+02  0.10162234757E+04  0.10168498726E+04  0.00000000000E+00 0. -1.
         22    1    3    3    0    0  0.80830516764E+01  0.54831556501E+02 -0.82272554969E+02  0.99199841803E+02  0.00000000000E+00 0. -1.
         22    1    3    3    0    0 -0.43435761909E+01 -0.70225880112E+02 -0.12009162383E+03  0.13918526864E+03  0.00000000000E+00 0. -1.
</event>
<event>
 7    1  0.5970484E-006  0.4766623E+02  0.7818608E-02  0.1570322E+00
          2   -1    0    0  502    0  0.00000000000E+00  0.00000000000E+00  0.23599620511E+04  0.23599620511E+04  0.00000000000E+00 0. -1.
          1   -1    0    0  501    0 -0.00000000000E+00 -0.00000000000E+00 -0.87830489518E+02  0.87830489518E+02  0.00000000000E+00 0. -1.
         25    2    1    2    0    0  0.38443776377E+02 -0.17305096374E+02  0.86557773358E+03  0.87557147839E+03  0.12499284216E+03 0.  0.
          2    1    1    2  501    0  0.99315586926E+01  0.20068705159E+02 -0.80918642526E+02  0.83959606318E+02  0.00000000000E+00 0. -1.
          1    1    1    2  502    0 -0.48375335070E+02 -0.27636087848E+01  0.14874724705E+04  0.14882614559E+04  0.00000000000E+00 0. -1.
         22    1    3    3    0    0  0.68872676967E+02 -0.51408267201E+02  0.59086003087E+03  0.59707774339E+03  0.00000000000E+00 0.  1.
         22    1    3    3    0    0 -0.30428900590E+02  0.34103170826E+02  0.27471770271E+03  0.27849373499E+03  0.00000000000E+00 0.  1.
</event>
<event>
 7    1  0.5970484E-006  0.4939833E+02  0.7818608E-02  0.1487399E+00
          2   -1    0    0  502    0  0.00000000000E+00  0.00000000000E+00  0.12653264778E+04  0.12653264778E+04  0.00000000000E+00 0. -1.
          1   -1    0    0  501    0 -0.00000000000E+00 -0.00000000000E+00 -0.12804369111E+03  0.12804369111E+03  0.00000000000E+00 0. -1.
         25    2    1    2    0    0 -0.12701570255E+02 -0.37247349789E+02  0.10831335801E+03  0.17001725939E+03  0.12500156005E+03 0.  0.
          2    1    1    2  501    0 -0.23997792441E+02  0.44377581475E+02 -0.90311536323E+02  0.10344775190E+03  0.00000000000E+00 0. -1.
          1    1    1    2  502    0  0.36699362696E+02 -0.71302316860E+01  0.11192809650E+04  0.11199051577E+04  0.00000000000E+00 0. -1.
         22    1    3    3    0    0 -0.28283924811E+02  0.23958032932E+02 -0.77627802709E+01  0.37871209410E+02  0.00000000000E+00 0. -1.
         22    1    3    3    0    0  0.15582354556E+02 -0.61205382722E+02  0.11607613828E+03  0.13214604998E+03  0.00000000000E+00 0. -1.
</event>
<event>
 7    1  0.5970484E-006  0.4730446E+02  0.7818608E-02  0.1485404E+00
          2   -1    0    0  502    0  0.00000000000E+00  0.00000000000E+00  0.89833160256E+03  0.89833160256E+03  0.00000000000E+00 0. -1.
          1   -1    0    0  501    0 -0.00000000000E+00 -0.00000000000E+00 -0.15862442033E+04  0.15862442033E+04  0.00000000000E+00 0. -1.
         25    2    1    2    0    0 -0.22518643707E+02 -0.43019873501E+02  0.39341525018E+02  0.13975074354E+03  0.12499886359E+03 0.  0.
          2    1    1    2  501    0 -0.23640521636E+02  0.31756335789E+02 -0.15350863470E+04  0.15355967673E+04  0.00000000000E+00 0. -1.
          1    1    1    2  502    0  0.46159165343E+02  0.11263537712E+02  0.80783222121E+03  0.80922829501E+03  0.00000000000E+00 0. -1.
         22    1    3    3    0    0 -0.28534582796E+02 -0.76759806035E+02  0.58356283064E+02  0.10055717782E+03  0.00000000000E+00 0. -1.
         22    1    3    3    0    0  0.60159390888E+01  0.33739932533E+02 -0.19014758047E+02  0.39193565723E+02  0.00000000000E+00 0. -1.
</event>
<event>
 7    1  0.5970484E-006  0.1905497E+03  0.7818608E-02  0.1238853E+00
          2   -1    0    0  502    0  0.00000000000E+00  0.00000000000E+00  0.19143050493E+03  0.19143050493E+03  0.00000000000E+00 0. -1.
          1   -1    0    0  501    0 -0.00000000000E+00 -0.00000000000E+00 -0.11606474905E+04  0.11606474905E+04  0.00000000000E+00 0. -1.
         25    2    1    2    0    0 -0.12745384599E+03  0.30836686157E+02 -0.25341312739E+03  0.31150981057E+03  0.12499905949E+03 0.  0.
          2    1    1    2  501    0 -0.76821438725E+02 -0.17963386379E+02 -0.81100322046E+03  0.81483154105E+03  0.00000000000E+00 0. -1.
          1    1    1    2  502    0  0.20427528472E+03 -0.12873299779E+02  0.95199362261E+02  0.22573664383E+03  0.00000000000E+00 0. -1.
         22    1    3    3    0    0 -0.33796508247E+02 -0.33031351845E+02 -0.18640248515E+02  0.50800915731E+02  0.00000000000E+00 0.  1.
         22    1    3    3    0    0 -0.93657337748E+02  0.63868038002E+02 -0.23477287887E+03  0.26070889483E+03  0.00000000000E+00 0.  1.
</event>
<event>
 7    1  0.5970484E-006  0.1963660E+03  0.7818608E-02  0.1309064E+00
          2   -1    0    0  502    0  0.00000000000E+00  0.00000000000E+00  0.13029804306E+04  0.13029804306E+04  0.00000000000E+00 0. -1.
          1   -1    0    0  501    0 -0.00000000000E+00 -0.00000000000E+00 -0.66192075244E+02  0.66192075244E+02  0.00000000000E+00 0. -1.
         25    2    1    2    0    0  0.14046066648E+03 -0.10226024393E+03  0.25849837886E+03  0.33561543344E+03  0.12501980233E+03 0.  0.
          2    1    1    2  501    0  0.55515786709E+01 -0.38577050764E+02  0.49344038844E+01  0.39285585309E+02  0.00000000000E+00 0. -1.
          1    1    1    2  502    0 -0.14601224515E+03  0.14083729470E+03  0.97335557266E+03  0.99427148714E+03  0.00000000000E+00 0. -1.
         22    1    3    3    0    0 -0.16368008343E+02  0.94781904326E+01  0.10495291800E+02  0.21630971799E+02  0.00000000000E+00 0.  1.
         22    1    3    3    0    0  0.15682867483E+03 -0.11173843437E+03  0.24800308706E+03  0.31398446165E+03  0.00000000000E+00 0.  1.
</event>
<event>
 7    1  0.5970484E-006  0.5634725E+02  0.7818608E-02  0.1436425E+00
          2   -1    0    0  502    0  0.00000000000E+00  0.00000000000E+00  0.38880371130E+04  0.38880371130E+04  0.00000000000E+00 0. -1.
          1   -1    0    0  501    0 -0.00000000000E+00 -0.00000000000E+00 -0.36574142091E+02  0.36574142091E+02  0.00000000000E+00 0. -1.
         25    2    1    2    0    0 -0.85823144047E+00  0.16277965133E+02  0.45426398497E+03  0.47143058842E+03  0.12500129181E+03 0.  0.
          2    1    1    2  501    0  0.38515513249E+02 -0.45099191636E+02  0.37773279451E+01  0.59427687600E+02  0.00000000000E+00 0. -1.
          1    1    1    2  502    0 -0.37657281808E+02  0.28821226503E+02  0.33934216580E+04  0.33937529790E+04  0.00000000000E+00 0. -1.
         22    1    3    3    0    0 -0.42638633125E+02  0.16766888754E+02  0.62766997687E+02  0.77710215493E+02  0.00000000000E+00 0. -1.
         22    1    3    3    0    0  0.41780401685E+02 -0.48892362086E+00  0.39149698728E+03  0.39372037293E+03  0.00000000000E+00 0. -1.
</event>
<event>
 7    1  0.5970484E-006  0.5279001E+02  0.7818608E-02  0.1442227E+00
          2   -1    0    0  502    0  0.00000000000E+00  0.00000000000E+00  0.79144252064E+03  0.79144252064E+03  0.00000000000E+00 0. -1.
          1   -1    0    0  501    0 -0.00000000000E+00 -0.00000000000E+00 -0.25538950859E+02  0.25538950859E+02  0.00000000000E+00 0. -1.
         25    2    1    2    0    0  0.25131878206E+02  0.11384553176E+02  0.44316261964E+03  0.46127969170E+03  0.12499850872E+03 0.  0.
          2    1    1    2  501    0 -0.48356826530E+02  0.31154771113E+02  0.43066984495E+02  0.71859359784E+02  0.00000000000E+00 0. -1.
          1    1    1    2  502    0  0.23224948324E+02 -0.42539324289E+02  0.27967396565E+03  0.28384242001E+03  0.00000000000E+00 0. -1.
         22    1    3    3    0    0  0.30591657085E+02  0.19550792167E+02  0.44859004505E+03  0.45005678694E+03  0.00000000000E+00 0. -1.
         22    1    3    3    0    0 -0.54597788786E+01 -0.81662389905E+01 -0.54274254122E+01  0.11222904760E+02  0.00000000000E+00 0. -1.
</event>
<event>
 7    1  0.5970484E-006  0.5565513E+02  0.7818608E-02  0.1482711E+00
          2   -1    0    0  502    0  0.00000000000E+00  0.00000000000E+00  0.23496356067E+04  0.23496356067E+04  0.00000000000E+00 0. -1.
          1   -1    0    0  501    0 -0.00000000000E+00 -0.00000000000E+00 -0.16496803411E+03  0.16496803411E+03  0.00000000000E+00 0. -1.
         25    2    1    2    0    0  0.67137919424E+02 -0.66692394678E+01  0.12219307602E+03  0.18737222603E+03  0.12500089712E+03 0.  0.
          2    1    1    2  501    0 -0.50432935853E+02 -0.23278896988E+02 -0.12641140920E+03  0.13807690770E+03  0.00000000000E+00 0. -1.
          1    1    1    2  502    0 -0.16704983571E+02  0.29948136455E+02  0.21888859058E+04  0.21891545071E+04  0.00000000000E+00 0. -1.
         22    1    3    3    0    0  0.37490652010E+02  0.57355724353E+02  0.79291466333E+02  0.10479677828E+03  0.00000000000E+00 0.  1.
         22    1    3    3    0    0  0.29647267414E+02 -0.64024963821E+02  0.42901609687E+02  0.82575447750E+02  0.00000000000E+00 0.  1.
</event>
<event>
 7    1  0.5970484E-006  0.3095548E+03  0.7818608E-02  0.1209100E+00
          2   -1    0    0  502    0  0.00000000000E+00  0.00000000000E+00  0.11331610324E+04  0.11331610324E+04  0.00000000000E+00 0. -1.
          1   -1    0    0  501    0 -0.00000000000E+00 -0.00000000000E+00 -0.17593418059E+04  0.17593418059E+04  0.00000000000E+00 0. -1.
         25    2    1    2    0    0  0.12726760105E+03 -0.26235121502E+03 -0.41299725816E+03  0.52078476305E+03  0.12499932749E+03 0.  0.
          2    1    1    2  501    0  0.63905584864E+02  0.17411803645E+02 -0.12692063604E+04  0.12709334680E+04  0.00000000000E+00 0. -1.
          1    1    1    2  502    0 -0.19117318592E+03  0.24493941137E+03  0.10560228451E+04  0.11007846072E+04  0.00000000000E+00 0. -1.
         22    1    3    3    0    0  0.11835702962E+03 -0.19699662146E+03 -0.38657711766E+03  0.44973094538E+03  0.00000000000E+00 0.  1.
         22    1    3    3    0    0  0.89105714346E+01 -0.65354593552E+02 -0.26420140500E+02  0.71053817671E+02  0.00000000000E+00 0.  1.
</event>
<event>
 7    1  0.5970484E-006  0.1490796E+03  0.7818608E-02  0.1302931E+00
          2   -1    0    0  502    0  0.00000000000E+00  0.00000000000E+00  0.22644335898E+04  0.22644335898E+04  0.00000000000E+00 0. -1.
          1   -1    0    0  501    0 -0.00000000000E+00 -0.00000000000E+00 -0.40940230463E+03  0.40940230463E+03  0.00000000000E+00 0. -1.
         25    2    1    2    0    0 -0.90924582164E+02 -0.33437677895E+02 -0.16619034687E+03  0.22941435069E+03  0.12500541975E+03 0.  0.
          2    1    1    2  501    0 -0.43593901506E+02 -0.32363115337E+02 -0.20556051338E+03  0.21260979315E+03  0.00000000000E+00 0. -1.
          1    1    1    2  502    0  0.13451848367E+03  0.65800793232E+02  0.22267821454E+04  0.22318117506E+04  0.00000000000E+00 0. -1.
         22    1    3    3    0    0 -0.52146715362E+02 -0.69465148697E+02 -0.46458080511E+02  0.98504010331E+02  0.00000000000E+00 0.  1.
         22    1    3    3    0    0 -0.38777866802E+02  0.36027470801E+02 -0.11973226636E+03  0.13091034036E+03  0.00000000000E+00 0.  1.
</event>
<event>
 7    1  0.5970484E-006  0.8540524E+02  0.7818608E-02  0.1445777E+00
          2   -1    0    0  502    0  0.00000000000E+00  0.00000000000E+00  0.27427398284E+04  0.27427398284E+04  0.00000000000E+00 0. -1.
          1   -1    0    0  501    0 -0.00000000000E+00 -0.00000000000E+00 -0.15056419803E+04  0.15056419803E+04  0.00000000000E+00 0. -1.
         25    2    1    2    0    0 -0.98125614946E+02  0.15219104458E+02  0.93202727266E+02  0.18485900306E+03  0.12500338073E+03 0.  0.
          2    1    1    2  501    0  0.13539499338E+02 -0.25846280591E+02 -0.14589701098E+04  0.14592618440E+04  0.00000000000E+00 0. -1.
          1    1    1    2  502    0  0.84586115608E+02  0.10627176133E+02  0.26028652306E+04  0.26042609617E+04  0.00000000000E+00 0. -1.
         22    1    3    3    0    0 -0.70519738986E+02  0.65294278655E+02  0.82555593034E+02  0.12669570771E+03  0.00000000000E+00 0.  1.
         22    1    3    3    0    0 -0.27605875960E+02 -0.50075174197E+02  0.10647134232E+02  0.58163295348E+02  0.00000000000E+00 0.  1.
</event>
<event>
 7    1  0.5970484E-006  0.4627610E+02  0.7818608E-02  0.1479011E+00
          2   -1    0    0  502    0  0.00000000000E+00  0.00000000000E+00  0.62391138958E+03  0.62391138958E+03  0.00000000000E+00 0. -1.
          1   -1    0    0  501    0 -0.00000000000E+00 -0.00000000000E+00 -0.18113433695E+03  0.18113433695E+03  0.00000000000E+00 0. -1.
         25    2    1    2    0    0  0.70616617432E+01 -0.42778196833E+02  0.13567462207E+03  0.18950510496E+03  0.12499896217E+03 0.  0.
          2    1    1    2  501    0 -0.42461222727E+02  0.19563178788E+02 -0.14967461188E+03  0.15680613139E+03  0.00000000000E+00 0. -1.
          1    1    1    2  502    0  0.35399560984E+02  0.23215018045E+02  0.45677704244E+03  0.45873449018E+03  0.00000000000E+00 0. -1.
         22    1    3    3    0    0  0.45809140825E+02 -0.71644966503E+01  0.12822750023E+03  0.13635284820E+03  0.00000000000E+00 0. -1.
         22    1    3    3    0    0 -0.38747479082E+02 -0.35613700182E+02  0.74471218385E+01  0.53152256769E+02  0.00000000000E+00 0. -1.
</event>
<event>
 7    1  0.5970484E-006  0.5713775E+02  0.7818608E-02  0.1490608E+00
          2   -1    0    0  502    0  0.00000000000E+00  0.00000000000E+00  0.15762956238E+04  0.15762956238E+04  0.00000000000E+00 0. -1.
          1   -1    0    0  501    0 -0.00000000000E+00 -0.00000000000E+00 -0.12096840341E+04  0.12096840341E+04  0.00000000000E+00 0. -1.
         25    2    1    2    0    0  0.61431881944E+02 -0.63329123559E+02 -0.24573286435E+02  0.15496355142E+03  0.12500160740E+03 0.  0.
          2    1    1    2  501    0 -0.19234536436E+02  0.25079668279E+02 -0.11191557959E+04  0.11196020063E+04  0.00000000000E+00 0. -1.
          1    1    1    2  502    0 -0.42197345508E+02  0.38249455280E+02  0.15103406720E+04  0.15114141002E+04  0.00000000000E+00 0. -1.
         22    1    3    3    0    0  0.68667286274E+02  0.18266269302E+02 -0.98352118009E+01  0.71732727466E+02  0.00000000000E+00 0.  1.
         22    1    3    3    0    0 -0.72354043304E+01 -0.81595392861E+02 -0.14738074635E+02  0.83230823953E+02  0.00000000000E+00 0.  1.
</event>
<event>
 7    1  0.5970484E-006  0.9168577E+02  0.7818608E-02  0.1378251E+00
          2   -1    0    0  502    0  0.00000000000E+00  0.00000000000E+00  0.14398719103E+03  0.14398719103E+03  0.00000000000E+00 0. -1.
          1   -1    0    0  501    0 -0.00000000000E+00 -0.00000000000E+00 -0.32010423549E+04  0.32010423549E+04  0.00000000000E+00 0. -1.
         25    2    1    2    0    0  0.11846069569E+03  0.43104886239E+02 -0.99653195607E+02  0.20358330407E+03  0.12499773862E+03 0.  0.
          2    1    1    2  501    0 -0.31624998289E+02 -0.33371688559E+02 -0.30284674517E+04  0.30288164216E+04  0.00000000000E+00 0. -1.
          1    1    1    2  502    0 -0.86835697402E+02 -0.97331976796E+01  0.71065483382E+02  0.11262982025E+03  0.00000000000E+00 0. -1.
         22    1    3    3    0    0  0.14084758351E+03  0.51402325548E+02 -0.99056125898E+02  0.17970074271E+03  0.00000000000E+00 0.  1.
         22    1    3    3    0    0 -0.22386887815E+02 -0.82974393093E+01 -0.59706970943E+00  0.23882561366E+02  0.00000000000E+00 0.  1.
</event>
<event>
 7    1  0.5970484E-006  0.1147091E+03  0.7818608E-02  0.1371498E+00
          2   -1    0    0  502    0  0.00000000000E+00  0.00000000000E+00  0.75551970934E+03  0.75551970934E+03  0.00000000000E+00 0. -1.
          1   -1    0    0  501    0 -0.00000000000E+00 -0.00000000000E+00 -0.10547442590E+03  0.10547442590E+03  0.00000000000E+00 0. -1.
         25    2    1    2    0    0  0.13406856736E+03  0.67309526121E+02  0.41838093128E+03  0.46170664386E+03  0.12500187306E+03 0.  0.
          2    1    1    2  501    0 -0.10214013906E+03 -0.45184343137E+02 -0.44630614259E+02  0.12027520360E+03  0.00000000000E+00 0. -1.
          1    1    1    2  502    0 -0.31928428302E+02 -0.22125182983E+02  0.27629496643E+03  0.27901228777E+03  0.00000000000E+00 0. -1.
         22    1    3    3    0    0 -0.48426592518E+01  0.12543055290E+02 -0.37390329429E+01  0.13955642299E+02  0.00000000000E+00 0. -1.
         22    1    3    3    0    0  0.13891122662E+03  0.54766470831E+02  0.42211996422E+03  0.44775100156E+03  0.00000000000E+00 0. -1.
</event>
<event>
 7    1  0.5970484E-006  0.4354270E+02  0.7818608E-02  0.1521931E+00
          2   -1    0    0  502    0  0.00000000000E+00  0.00000000000E+00  0.84774362782E+03  0.84774362782E+03  0.00000000000E+00 0. -1.
          1   -1    0    0  501    0 -0.00000000000E+00 -0.00000000000E+00 -0.20493143086E+04  0.20493143086E+04  0.00000000000E+00 0. -1.
         25    2    1    2    0    0  0.25454967222E+02 -0.29685888814E+02  0.97137717697E+02  0.16306844784E+03  0.12500550040E+03 0.  0.
          2    1    1    2  501    0  0.51737442220E+01  0.43265350854E+02 -0.20157223163E+04  0.20161932236E+04  0.00000000000E+00 0. -1.
          1    1    1    2  502    0 -0.30628711444E+02 -0.13579462040E+02  0.71701391782E+03  0.71779626504E+03  0.00000000000E+00 0. -1.
         22    1    3    3    0    0 -0.51985760226E+00  0.98265553006E+01 -0.27795599694E+02  0.29486044213E+02  0.00000000000E+00 0.  1.
         22    1    3    3    0    0  0.25974824824E+02 -0.39512444115E+02  0.12493331739E+03  0.13358240363E+03  0.00000000000E+00 0.  1.
</event>
<event>
 7    1  0.5970484E-006  0.1153114E+03  0.7818608E-02  0.1335774E+00
          2   -1    0    0  502    0  0.00000000000E+00  0.00000000000E+00  0.41668457644E+03  0.41668457644E+03  0.00000000000E+00 0. -1.
          1   -1    0    0  501    0 -0.00000000000E+00 -0.00000000000E+00 -0.13909907696E+04  0.13909907696E+04  0.00000000000E+00 0. -1.
         25    2    1    2    0    0  0.14055324360E+03 -0.86800055809E+02 -0.26235393944E+03  0.33428132818E+03  0.12499981141E+03 0.  0.
          2    1    1    2  501    0 -0.39418636329E+02  0.34412811354E+02 -0.10835091268E+04  0.10847719107E+04  0.00000000000E+00 0. -1.
          1    1    1    2  502    0 -0.10113460727E+03  0.52387244455E+02  0.37155687311E+03  0.38862210710E+03  0.00000000000E+00 0. -1.
         22    1    3    3    0    0  0.23668389408E+02 -0.33739450484E+02  0.10903055255E+01  0.41227805451E+02  0.00000000000E+00 0. -1.
         22    1    3    3    0    0  0.11688485420E+03 -0.53060605324E+02 -0.26344424496E+03  0.29305352273E+03  0.00000000000E+00 0. -1.
</event>
<event>
 7    1  0.5970484E-006  0.1092152E+03  0.7818608E-02  0.1331457E+00
          2   -1    0    0  502    0  0.00000000000E+00  0.00000000000E+00  0.71339236959E+03  0.71339236959E+03  0.00000000000E+00 0. -1.
          1   -1    0    0  501    0 -0.00000000000E+00 -0.00000000000E+00 -0.11763415647E+04  0.11763415647E+04  0.00000000000E+00 0. -1.
         25    2    1    2    0    0  0.17300869079E+02  0.89352010108E+02 -0.19910408981E+02  0.15589745147E+03  0.12499795681E+03 0.  0.
          2    1    1    2  501    0 -0.55440680817E+02  0.14765164705E+02 -0.10829100705E+04  0.10844288358E+04  0.00000000000E+00 0. -1.
          1    1    1    2  502    0  0.38139811738E+02 -0.10411717481E+03  0.63987128441E+03  0.64940764697E+03  0.00000000000E+00 0. -1.
         22    1    3    3    0    0  0.35207923674E+02 -0.14893092351E+02  0.19633431746E+02  0.42975268834E+02  0.00000000000E+00 0. -1.
         22    1    3    3    0    0 -0.17907054596E+02  0.10424510246E+03 -0.39543840728E+02  0.11292218263E+03  0.00000000000E+00 0. -1.
</event>
<event>
 7    1  0.5970484E-006  0.4546020E+02  0.7818608E-02  0.1522565E+00
          2   -1    0    0  502    0  0.00000000000E+00  0.00000000000E+00  0.10808803213E+04  0.10808803213E+04  0.00000000000E+00 0. -1.
          1   -1    0    0  501    0 -0.00000000000E+00 -0.00000000000E+00 -0.55627950603E+03  0.55627950603E+03  0.00000000000E+00 0. -1.
         25    2    1    2    0    0  0.35899110976E+02  0.43116169817E+01  0.17540937500E+03  0.21840419717E+03  0.12499843316E+03 0.  0.
          2    1    1    2  501    0 -0.28636273535E+02 -0.35430869516E+02 -0.53352225522E+03  0.53546370511E+03  0.00000000000E+00 0. -1.
          1    1    1    2  502    0 -0.72628374414E+01  0.31119252534E+02  0.88271369545E+03  0.88329192503E+03  0.00000000000E+00 0. -1.
         22    1    3    3    0    0 -0.36157357717E+02 -0.64035513567E+01  0.10610915941E+02  0.38222395584E+02  0.00000000000E+00 0.  1.
         22    1    3    3    0    0  0.72056468693E+02  0.10715168338E+02  0.16479845906E+03  0.18018180159E+03  0.00000000000E+00 0.  1.
</event>
<event>
 7    1  0.5970484E-006  0.8046585E+02  0.7818608E-02  0.1331626E+00
          2   -1    0    0  502    0  0.00000000000E+00  0.00000000000E+00  0.13295644294E+04  0.13295644294E+04  0.00000000000E+00 0. -1.
          1   -1    0    0  501    0 -0.00000000000E+00 -0.00000000000E+00 -0.67381043423E+02  0.67381043423E+02  0.00000000000E+00 0. -1.
         25    2    1    2    0    0 -0.70318587292E+02  0.33359533341E+02  0.16723077402E+03  0.22282024183E+03  0.12500066483E+03 0.  0.
          2    1    1    2  501    0  0.69057008785E+00 -0.77753307997E+02  0.17169367584E+01  0.77775328115E+02  0.00000000000E+00 0. -1.
          1    1    1    2  502    0  0.69628017204E+02  0.44393774656E+02  0.10932356752E+04  0.10963499029E+04  0.00000000000E+00 0. -1.
         22    1    3    3    0    0 -0.99300220847E+02 -0.20984952017E+01  0.13117141258E+03  0.16453229780E+03  0.00000000000E+00 0. -1.
         22    1    3    3    0    0  0.28981633555E+02  0.35458028543E+02  0.36059361442E+02  0.58287944030E+02  0.00000000000E+00 0. -1.
</event>
<event>
 7    1  0.5970484E-006  0.5139681E+02  0.7818608E-02  0.1509348E+00
          2   -1    0    0  502    0  0.00000000000E+00  0.00000000000E+00  0.78016869136E+03  0.78016869136E+03  0.00000000000E+00 0. -1.
          1   -1    0    0  501    0 -0.00000000000E+00 -0.00000000000E+00 -0.51200898079E+03  0.51200898079E+03  0.00000000000E+00 0. -1.
         25    2    1    2    0    0 -0.78130948217E+02 -0.17488987693E+02  0.55552040361E+02  0.15849767200E+03  0.12500069233E+03 0.  0.
          2    1    1    2  501    0  0.27347681869E+02  0.14365487172E+02 -0.45905490088E+03  0.46009310465E+03  0.00000000000E+00 0. -1.
          1    1    1    2  502    0  0.50783266348E+02  0.31235005204E+01  0.67166257108E+03  0.67358689550E+03  0.00000000000E+00 0. -1.
         22    1    3    3    0    0 -0.51046564924E+02  0.32814004146E+02  0.76501035474E+02  0.97646910280E+02  0.00000000000E+00 0.  1.
         22    1    3    3    0    0 -0.27084383293E+02 -0.50302991838E+02 -0.20948995112E+02  0.60850761725E+02  0.00000000000E+00 0.  1.
</event>
<event>
 7    1  0.5970484E-006  0.1046359E+03  0.7818608E-02  0.1365203E+00
          2   -1    0    0  502    0  0.00000000000E+00  0.00000000000E+00  0.16145864122E+04  0.16145864122E+04  0.00000000000E+00 0. -1.
          1   -1    0    0  501    0 -0.00000000000E+00 -0.00000000000E+00 -0.18086481357E+04  0.18086481357E+04  0.00000000000E+00 0. -1.
         25    2    1    2    0    0  0.44162324209E+02 -0.90212745373E+02  0.34299414561E+03  0.37862755135E+03  0.12500075364E+03 0.  0.
          2    1    1    2  501    0  0.38340181349E+02  0.23306893770E+02 -0.17882997184E+04  0.17888625055E+04  0.00000000000E+00 0. -1.
          1    1    1    2  502    0 -0.82502505558E+02  0.66905851602E+02  0.12512438493E+04  0.12557444910E+04  0.00000000000E+00 0. -1.
         22    1    3    3    0    0 -0.35609705235E+02  0.49867416677E+01  0.69448104212E+02  0.78204589878E+02  0.00000000000E+00 0.  1.
         22    1    3    3    0    0  0.79772029444E+02 -0.95199487040E+02  0.27354604140E+03  0.30042296147E+03  0.00000000000E+00 0.  1.
</event>
<event>
 7    1  0.5970484E-006  0.1817753E+03  0.7818608E-02  0.1241090E+00
          2   -1    0    0  502    0  0.00000000000E+00  0.00000000000E+00  0.15108257935E+04  0.15108257935E+04  0.00000000000E+00 0. -1.
          1   -1    0    0  501    0 -0.00000000000E+00 -0.00000000000E+00 -0.10048567662E+03  0.10048567662E+03  0.00000000000E+00 0. -1.
         25    2    1    2    0    0  0.16958741458E+02  0.17523409010E+03  0.36382672617E+03  0.42307118488E+03  0.12499902222E+03 0.  0.
          2    1    1    2  501    0  0.63872345496E+02 -0.17670917672E+03  0.58313691931E+02  0.19673915808E+03  0.00000000000E+00 0. -1.
          1    1    1    2  502    0 -0.80831086954E+02  0.14750866198E+01  0.98819969883E+03  0.99150112721E+03  0.00000000000E+00 0. -1.
         22    1    3    3    0    0 -0.93320288802E+01  0.25956002117E+02  0.19188403682E+03  0.19385634990E+03  0.00000000000E+00 0. -1.
         22    1    3    3    0    0  0.26290770338E+02  0.14927808798E+03  0.17194268935E+03  0.22921483498E+03  0.00000000000E+00 0. -1.
</event>
<event>
 7    1  0.5970484E-006  0.6582438E+02  0.7818608E-02  0.1389180E+00
          2   -1    0    0  502    0  0.00000000000E+00  0.00000000000E+00  0.36198976373E+04  0.36198976373E+04  0.00000000000E+00 0. -1.
          1   -1    0    0  501    0 -0.00000000000E+00 -0.00000000000E+00 -0.53771133815E+02  0.53771133815E+02  0.00000000000E+00 0. -1.
         25    2    1    2    0    0 -0.11979458554E+03 -0.26367192835E+02  0.56041643487E+03  0.58714380299E+03  0.12500117330E+03 0.  0.
          2    1    1    2  501    0  0.56121988536E+02  0.16885685544E+02 -0.18632190600E+02  0.61497662558E+02  0.00000000000E+00 0. -1.
          1    1    1    2  502    0  0.63672597007E+02  0.94815072910E+01  0.30243422592E+04  0.30250273056E+04  0.00000000000E+00 0. -1.
         22    1    3    3    0    0 -0.15559971338E+02  0.20911128543E+02  0.15475873446E+02  0.30313209396E+02  0.00000000000E+00 0. -1.
         22    1    3    3    0    0 -0.10423461420E+03 -0.47278321378E+02  0.54494056143E+03  0.55683059359E+03  0.00000000000E+00 0. -1.
</event>
<event>
 7    1  0.5970484E-006  0.6821818E+02  0.7818608E-02  0.1430736E+00
          2   -1    0    0  502    0  0.00000000000E+00  0.00000000000E+00  0.13845539038E+04  0.13845539038E+04  0.00000000000E+00 0. -1.
          1   -1    0    0  501    0 -0.00000000000E+00 -0.00000000000E+00 -0.54898639020E+03  0.54898639020E+03  0.00000000000E+00 0. -1.
         25    2    1    2    0    0 -0.27045638186E+02 -0.78877833999E+02  0.31977165085E+02  0.15361913727E+03  0.12499248380E+03 0.  0.
          2    1    1    2  501    0  0.39142489020E+02  0.11812620700E+02 -0.48640833581E+03  0.48812369498E+03  0.00000000000E+00 0. -1.
          1    1    1    2  502    0 -0.12096850834E+02  0.67065213299E+02  0.12899986843E+04  0.12917974617E+04  0.00000000000E+00 0. -1.
         22    1    3    3    0    0  0.54157936306E+01  0.29155853807E+02  0.27937093011E+02  0.40741573335E+02  0.00000000000E+00 0. -1.
         22    1    3    3    0    0 -0.32461431817E+02 -0.10803368781E+03  0.40400720735E+01  0.11287756393E+03  0.00000000000E+00 0. -1.
</event>
<event>
 7    1  0.5970484E-006  0.1072432E+03  0.7818608E-02  0.1447789E+00
          2   -1    0    0  502    0  0.00000000000E+00  0.00000000000E+00  0.88614627708E+02  0.88614627708E+02  0.00000000000E+00 0. -1.
          1   -1    0    0  501    0 -0.00000000000E+00 -0.00000000000E+00 -0.53908760395E+03  0.53908760395E+03  0.00000000000E+00 0. -1.
         25    2    1    2    0    0 -0.93655545040E+01 -0.96081431343E+02 -0.72167491012E+02  0.17364647176E+03  0.12500238132E+03 0.  0.
          2    1    1    2  501    0  0.30619245519E+02  0.10458819470E+03 -0.40470019876E+03  0.41911630790E+03  0.00000000000E+00 0. -1.
          1    1    1    2  502    0 -0.21253691015E+02 -0.85067633526E+01  0.26394713528E+02  0.34939452009E+02  0.00000000000E+00 0. -1.
         22    1    3    3    0    0  0.32746295119E+02 -0.96509889431E+02 -0.81519755484E+02  0.13050650994E+03  0.00000000000E+00 0. -1.
         22    1    3    3    0    0 -0.42111849623E+02  0.42845808754E+00  0.93522644722E+01  0.43139961820E+02  0.00000000000E+00 0. -1.
</event>
<event>
 7    1  0.5970484E-006  0.7054464E+02  0.7818608E-02  0.1407985E+00
          2   -1    0    0  502    0  0.00000000000E+00  0.00000000000E+00  0.31661823868E+04  0.31661823868E+04  0.00000000000E+00 0. -1.
          1   -1    0    0  501    0 -0.00000000000E+00 -0.00000000000E+00 -0.27692888739E+02  0.27692888739E+02  0.00000000000E+00 0. -1.
         25    2    1    2    0    0 -0.10801338607E+03  0.24629965323E+02  0.13843936949E+04  0.13944333820E+04  0.12500010964E+03 0.  0.
          2    1    1    2  501    0  0.61438012259E+02 -0.31676967409E+02  0.31091959281E+02  0.75794258005E+02  0.00000000000E+00 0. -1.
          1    1    1    2  502    0  0.46575373810E+02  0.70470020861E+01  0.17230038438E+04  0.17236476355E+04  0.00000000000E+00 0. -1.
         22    1    3    3    0    0  0.28367451612E+02  0.89561122444E+01  0.24941661739E+03  0.25118434124E+03  0.00000000000E+00 0.  1.
         22    1    3    3    0    0 -0.13638083768E+03  0.15673853079E+02  0.11349770776E+04  0.11432490407E+04  0.00000000000E+00 0.  1.
</event>
<event>
 7    1  0.5970484E-006  0.5894206E+02  0.7818608E-02  0.1450567E+00
          2   -1    0    0  502    0  0.00000000000E+00  0.00000000000E+00  0.14702686672E+04  0.14702686672E+04  0.00000000000E+00 0. -1.
          1   -1    0    0  501    0 -0.00000000000E+00 -0.00000000000E+00 -0.48433458799E+03  0.48433458799E+03  0.00000000000E+00 0. -1.
         25    2    1    2    0    0 -0.74925138814E+02 -0.56479379340E+02  0.26667899578E+03  0.30911066142E+03  0.12501206940E+03 0.  0.
          2    1    1    2  501    0  0.35233151787E+02  0.46999972585E+02 -0.46090209323E+03  0.46463008077E+03  0.00000000000E+00 0. -1.
          1    1    1    2  502    0  0.39691987026E+02  0.94794067549E+01  0.11801571766E+04  0.11808625130E+04  0.00000000000E+00 0. -1.
         22    1    3    3    0    0  0.29975374169E+01  0.32192087472E+02  0.98257714894E+02  0.10344029323E+03  0.00000000000E+00 0. -1.
         22    1    3    3    0    0 -0.77922676231E+02 -0.88671466812E+02  0.16842128088E+03  0.20567036819E+03  0.00000000000E+00 0. -1.
</event>
<event>
 7    1  0.5970484E-006  0.4180664E+02  0.7818608E-02  0.1499098E+00
          2   -1    0    0  502    0  0.00000000000E+00  0.00000000000E+00  0.55444453030E+03  0.55444453030E+03  0.00000000000E+00 0. -1.
          1   -1    0    0  501    0 -0.00000000000E+00 -0.00000000000E+00 -0.30304076798E+03  0.30304076798E+03  0.00000000000E+00 0. -1.
         25    2    1    2    0    0  0.56708406930E+01 -0.82172710366E+02  0.34632381727E+03  0.37729304299E+03  0.12500136445E+03 0.  0.
          2    1    1    2  501    0 -0.28168901958E+01  0.41540989369E+02 -0.28386728136E+03  0.28690455224E+03  0.00000000000E+00 0. -1.
          1    1    1    2  502    0 -0.28539504972E+01  0.40631720997E+02  0.18894722641E+03  0.19328770305E+03  0.00000000000E+00 0. -1.
         22    1    3    3    0    0  0.52260244123E+02 -0.86669530990E+02  0.20907013545E+03  0.23227798487E+03  0.00000000000E+00 0. -1.
         22    1    3    3    0    0 -0.46589403430E+02  0.44968206239E+01  0.13725368183E+03  0.14501505813E+03  0.00000000000E+00 0. -1.
</event>
<event>
 7    1  0.5970484E-006  0.1141761E+03  0.7818608E-02  0.1357502E+00
          2   -1    0    0  502    0  0.00000000000E+00  0.00000000000E+00  0.17471727714E+04  0.17471727714E+04  0.00000000000E+00 0. -1.
          1   -1    0    0  501    0 -0.00000000000E+00 -0.00000000000E+00 -0.79195116365E+02  0.79195116365E+02  0.00000000000E+00 0. -1.
         25    2    1    2    0    0  0.53859905432E+02  0.73809484254E+02  0.15207702686E+03  0.21702609596E+03  0.12499669936E+03 0.  0.
          2    1    1    2  501    0  0.42804520622E+02 -0.95762745170E+01 -0.33754231501E+02  0.55346907443E+02  0.00000000000E+00 0. -1.
          1    1    1    2  502    0 -0.96664426054E+02 -0.64233209737E+02  0.15496548597E+04  0.15539948843E+04  0.00000000000E+00 0. -1.
         22    1    3    3    0    0  0.50157970972E+02 -0.60745396605E+00  0.12995872286E+03  0.13930348416E+03  0.00000000000E+00 0.  1.
         22    1    3    3    0    0  0.37019344592E+01  0.74416938220E+02  0.22118303997E+02  0.77722611797E+02  0.00000000000E+00 0.  1.
</event>
<event>
 7    1  0.5970484E-006  0.1381603E+03  0.7818608E-02  0.1230888E+00
          2   -1    0    0  502    0  0.00000000000E+00  0.00000000000E+00  0.31774974147E+03  0.31774974147E+03  0.00000000000E+00 0. -1.
          1   -1    0    0  501    0 -0.00000000000E+00 -0.00000000000E+00 -0.26438138624E+04  0.26438138624E+04  0.00000000000E+00 0. -1.
         25    2    1    2    0    0 -0.11798616065E+03 -0.73837049704E+02  0.25085820032E+02  0.18874963413E+03  0.12499792800E+03 0.  0.
          2    1    1    2  501    0  0.92226659822E+02 -0.73701226082E+02 -0.25338347157E+04  0.25365835279E+04  0.00000000000E+00 0. -1.
          1    1    1    2  502    0  0.25759500832E+02  0.14753827579E+03  0.18268477477E+03  0.23623044181E+03  0.00000000000E+00 0. -1.
         22    1    3    3    0    0 -0.29319007317E+02  0.10882020657E+02  0.54319734229E+02  0.62678992417E+02  0.00000000000E+00 0. -1.
         22    1    3    3    0    0 -0.88667153337E+02 -0.84719070361E+02 -0.29233914197E+02  0.12607064172E+03  0.00000000000E+00 0. -1.
</event>
<event>
 7    1  0.5970484E-006  0.1030500E+03  0.7818608E-02  0.1332580E+00
          2   -1    0    0  502    0  0.00000000000E+00  0.00000000000E+00  0.25142653043E+03  0.25142653043E+03  0.00000000000E+00 0. -1.
          1   -1    0    0  501    0 -0.00000000000E+00 -0.00000000000E+00 -0.78850890581E+03  0.78850890581E+03  0.00000000000E+00 0. -1.
         25    2    1    2    0    0  0.60906606117E+02 -0.19138158340E+02 -0.12354456592E+03  0.18698658559E+03  0.12499935860E+03 0.  0.
          2    1    1    2  501    0  0.43797374651E+02  0.41316354851E+02 -0.61866027563E+03  0.62158329116E+03  0.00000000000E+00 0. -1.
          1    1    1    2  502    0 -0.10470398077E+03 -0.22178196511E+02  0.20512246617E+03  0.23136555949E+03  0.00000000000E+00 0. -1.
         22    1    3    3    0    0  0.95386244507E+02 -0.37755299447E+01 -0.11273387721E+03  0.14772175648E+03  0.00000000000E+00 0. -1.
         22    1    3    3    0    0 -0.34479638390E+02 -0.15362628396E+02 -0.10810688709E+02  0.39264829111E+02  0.00000000000E+00 0. -1.
</event>
<event>
 7    1  0.5970484E-006  0.1521809E+03  0.7818608E-02  0.1345215E+00
          2   -1    0    0  502    0  0.00000000000E+00  0.00000000000E+00  0.30265071138E+03  0.30265071138E+03  0.00000000000E+00 0. -1.
          1   -1    0    0  501    0 -0.00000000000E+00 -0.00000000000E+00 -0.17290850248E+04  0.17290850248E+04  0.00000000000E+00 0. -1.
         25    2    1    2    0    0  0.65611609720E+02 -0.11538379084E+03  0.63855610297E+02  0.19318590643E+03  0.12499981183E+03 0.  0.
          2    1    1    2  501    0 -0.10210876409E+03  0.11366471254E+03 -0.16589530370E+04  0.16659745033E+04  0.00000000000E+00 0. -1.
          1    1    1    2  502    0  0.36497154373E+02  0.17190782993E+01  0.16866311331E+03  0.17257532645E+03  0.00000000000E+00 0. -1.
         22    1    3    3    0    0 -0.24292598194E+01 -0.16135831466E+02  0.70797976126E+02  0.72654110578E+02  0.00000000000E+00 0. -1.
         22    1    3    3    0    0  0.68040869539E+02 -0.99247959374E+02 -0.69423658282E+01  0.12053179585E+03  0.00000000000E+00 0. -1.
</event>
<event>
 7    1  0.5970484E-006  0.5525608E+02  0.7818608E-02  0.1467310E+00
          2   -1    0    0  502    0  0.00000000000E+00  0.00000000000E+00  0.29480490127E+03  0.29480490127E+03  0.00000000000E+00 0. -1.
          1   -1    0    0  501    0 -0.00000000000E+00 -0.00000000000E+00 -0.12706482766E+03  0.12706482766E+03  0.00000000000E+00 0. -1.
         25    2    1    2    0    0  0.25248527012E+02  0.38970754739E+01  0.12962827459E+03  0.18188533337E+03  0.12500443836E+03 0.  0.
          2    1    1    2  501    0  0.38535344617E+02 -0.48206666989E+00 -0.89408650613E+02  0.97360731188E+02  0.00000000000E+00 0. -1.
          1    1    1    2  502    0 -0.63783871629E+02 -0.34150088040E+01  0.12752044964E+03  0.14262366438E+03  0.00000000000E+00 0. -1.
         22    1    3    3    0    0  0.73878596913E+02  0.18770944339E+02  0.85601124739E+02  0.11462088810E+03  0.00000000000E+00 0. -1.
         22    1    3    3    0    0 -0.48630069901E+02 -0.14873868865E+02  0.44027149848E+02  0.67264445269E+02  0.00000000000E+00 0. -1.
</event>
<event>
 7    1  0.5970484E-006  0.1600733E+03  0.7818608E-02  0.1295211E+00
          2   -1    0    0  502    0  0.00000000000E+00  0.00000000000E+00  0.18032272804E+04  0.18032272804E+04  0.00000000000E+00 0. -1.
          1   -1    0    0  501    0 -0.00000000000E+00 -0.00000000000E+00 -0.15087290037E+03  0.15087290037E+03  0.00000000000E+00 0. -1.
         25    2    1    2    0    0 -0.12881478168E+02  0.12563334212E+03  0.47874775226E+03  0.51066269008E+03  0.12500921411E+03 0.  0.
          2    1    1    2  501    0  0.27933536269E+02  0.46564274707E+02 -0.12347584373E+03  0.13488809478E+03  0.00000000000E+00 0. -1.
          1    1    1    2  502    0 -0.15052058100E+02 -0.17219761683E+03  0.12970824715E+04  0.13085493959E+04  0.00000000000E+00 0. -1.
         22    1    3    3    0    0 -0.34814767364E+01  0.27555862821E+02  0.33639028097E+03  0.33753498691E+03  0.00000000000E+00 0. -1.
         22    1    3    3    0    0 -0.94000014318E+01  0.98077479303E+02  0.14235747129E+03  0.17312770317E+03  0.00000000000E+00 0. -1.
</event>
<event>
 7    1  0.5970484E-006  0.2450273E+02  0.7818608E-02  0.1676735E+00
          2   -1    0    0  502    0  0.00000000000E+00  0.00000000000E+00  0.14035129838E+04  0.14035129838E+04  0.00000000000E+00 0. -1.
          1   -1    0    0  501    0 -0.00000000000E+00 -0.00000000000E+00 -0.84723929392E+02  0.84723929392E+02  0.00000000000E+00 0. -1.
         25    2    1    2    0    0 -0.35958426929E+02 -0.25637995811E+02  0.15896563912E+03  0.20698389976E+03  0.12498777958E+03 0.  0.
          2    1    1    2  501    0  0.22836612433E+02  0.50444211136E+01 -0.58335733678E+02  0.62849143793E+02  0.00000000000E+00 0. -1.
          1    1    1    2  502    0  0.13121814496E+02  0.20593574697E+02  0.12181591490E+04  0.12184038697E+04  0.00000000000E+00 0. -1.
         22    1    3    3    0    0 -0.44840856791E+02  0.38720573619E+02  0.11237641353E+03  0.12703717400E+03  0.00000000000E+00 0.  1.
         22    1    3    3    0    0  0.88824298621E+01 -0.64358569430E+02  0.46589225583E+02  0.79946725760E+02  0.00000000000E+00 0.  1.
</event>
<event>
 7    1  0.5970484E-006  0.7235312E+02  0.7818608E-02  0.1401030E+00
          2   -1    0    0  502    0  0.00000000000E+00  0.00000000000E+00  0.52975931536E+03  0.52975931536E+03  0.00000000000E+00 0. -1.
          1   -1    0    0  501    0 -0.00000000000E+00 -0.00000000000E+00 -0.62179370675E+03  0.62179370675E+03  0.00000000000E+00 0. -1.
         25    2    1    2    0    0  0.67137231900E+02 -0.97981770906E+02 -0.63939199303E+01  0.17255369292E+03  0.12500423750E+03 0.  0.
          2    1    1    2  501    0 -0.32196471094E+02  0.36286375315E+02 -0.52838814157E+03  0.53061034850E+03  0.00000000000E+00 0. -1.
          1    1    1    2  502    0 -0.34940760805E+02  0.61695395591E+02  0.44274767011E+03  0.44838898068E+03  0.00000000000E+00 0. -1.
         22    1    3    3    0    0  0.45663889551E+02 -0.64391084770E-01 -0.45955688312E+02  0.64785185369E+02  0.00000000000E+00 0.  1.
         22    1    3    3    0    0  0.21473342349E+02 -0.97917379821E+02  0.39561768381E+02  0.10776850755E+03  0.00000000000E+00 0.  1.
</event>
<event>
 7    1  0.5970484E-006  0.5951803E+02  0.7818608E-02  0.1410052E+00
          2   -1    0    0  502    0  0.00000000000E+00  0.00000000000E+00  0.15105406274E+04  0.15105406274E+04  0.00000000000E+00 0. -1.
          1   -1    0    0  501    0 -0.00000000000E+00 -0.00000000000E+00 -0.27070945255E+03  0.27070945255E+03  0.00000000000E+00 0. -1.
         25    2    1    2    0    0  0.28919924653E+02  0.53323698376E+02  0.36715218750E+03  0.39256294321E+03  0.12500062698E+03 0.  0.
          2    1    1    2  501    0  0.26016292498E+02 -0.53773513790E+02 -0.25386795568E+03  0.26080141330E+03  0.00000000000E+00 0. -1.
          1    1    1    2  502    0 -0.54936217151E+02  0.44981541366E+00  0.11265469430E+04  0.11278857234E+04  0.00000000000E+00 0. -1.
         22    1    3    3    0    0 -0.36830044962E+02  0.61494786060E+02  0.21425238456E+03  0.22592508761E+03  0.00000000000E+00 0. -1.
         22    1    3    3    0    0  0.65749969616E+02 -0.81710876845E+01  0.15289980294E+03  0.16663785559E+03  0.00000000000E+00 0. -1.
</event>
<event>
 7    1  0.5970484E-006  0.8304310E+02  0.7818608E-02  0.1379374E+00
          2   -1    0    0  502    0  0.00000000000E+00  0.00000000000E+00  0.10642551671E+03  0.10642551671E+03  0.00000000000E+00 0. -1.
          1   -1    0    0  501    0 -0.00000000000E+00 -0.00000000000E+00 -0.51154258254E+03  0.51154258254E+03  0.00000000000E+00 0. -1.
         25    2    1    2    0    0  0.41424866881E+02 -0.64109466630E+02 -0.29835342431E+03  0.33236484354E+03  0.12500232043E+03 0.  0.
          2    1    1    2  501    0 -0.84646494494E+02  0.38385387360E+02 -0.17658526112E+03  0.19955155083E+03  0.00000000000E+00 0. -1.
          1    1    1    2  502    0  0.43221627614E+02  0.25724079269E+02  0.69821619611E+02  0.86051704881E+02  0.00000000000E+00 0. -1.
         22    1    3    3    0    0 -0.30751716017E+02  0.71552454339E+01 -0.14572873838E+03  0.14910979433E+03  0.00000000000E+00 0. -1.
         22    1    3    3    0    0  0.72176582898E+02 -0.71264712064E+02 -0.15262468594E+03  0.18325504921E+03  0.00000000000E+00 0. -1.
</event>
<event>
 7    1  0.5970484E-006  0.1158706E+03  0.7818608E-02  0.1327697E+00
          2   -1    0    0  502    0  0.00000000000E+00  0.00000000000E+00  0.51933681111E+03  0.51933681111E+03  0.00000000000E+00 0. -1.
          1   -1    0    0  501    0 -0.00000000000E+00 -0.00000000000E+00 -0.10709872100E+03  0.10709872100E+03  0.00000000000E+00 0. -1.
         25    2    1    2    0    0 -0.45244177117E+02 -0.10924948170E+03  0.92588600457E+02  0.19539715908E+03  0.12499966411E+03 0.  0.
          2    1    1    2  501    0 -0.44690961401E+02  0.33574935984E+02 -0.29097337715E+02  0.63017564372E+02  0.00000000000E+00 0. -1.
          1    1    1    2  502    0  0.89935138517E+02  0.75674545720E+02  0.34874682737E+03  0.36802080866E+03  0.00000000000E+00 0. -1.
         22    1    3    3    0    0 -0.83986056636E+02 -0.10201606788E+03  0.77541393853E+02  0.15321097733E+03  0.00000000000E+00 0.  1.
         22    1    3    3    0    0  0.38741879520E+02 -0.72334138280E+01  0.15047206604E+02  0.42186181753E+02  0.00000000000E+00 0.  1.
</event>
<event>
 7    1  0.5970484E-006  0.6321330E+02  0.7818608E-02  0.1445493E+00
          2   -1    0    0  502    0  0.00000000000E+00  0.00000000000E+00  0.11196091054E+03  0.11196091054E+03  0.00000000000E+00 0. -1.
          1   -1    0    0  501    0 -0.00000000000E+00 -0.00000000000E+00 -0.10301540473E+04  0.10301540473E+04  0.00000000000E+00 0. -1.
         25    2    1    2    0    0 -0.27858912342E+02 -0.10630441330E+02 -0.12644764335E+03  0.18028959048E+03  0.12500481850E+03 0.  0.
          2    1    1    2  501    0 -0.38311962871E+02  0.96317593910E+01 -0.86338997382E+03  0.86429325126E+03  0.00000000000E+00 0. -1.
          1    1    1    2  502    0  0.66170875213E+02  0.99868193936E+00  0.71644480419E+02  0.97532116078E+02  0.00000000000E+00 0. -1.
         22    1    3    3    0    0  0.35733013367E+02 -0.42639086708E+02 -0.41219651574E+02  0.69238714860E+02  0.00000000000E+00 0. -1.
         22    1    3    3    0    0 -0.63591925709E+02  0.32008645378E+02 -0.85227991776E+02  0.11105087562E+03  0.00000000000E+00 0. -1.
</event>
<event>
 7    1  0.5970484E-006  0.1195175E+03  0.7818608E-02  0.1306505E+00
          2   -1    0    0  502    0  0.00000000000E+00  0.00000000000E+00  0.10147093838E+04  0.10147093838E+04  0.00000000000E+00 0. -1.
          1   -1    0    0  501    0 -0.00000000000E+00 -0.00000000000E+00 -0.74954605605E+03  0.74954605605E+03  0.00000000000E+00 0. -1.
         25    2    1    2    0    0  0.52672115090E+02 -0.49824690253E+02  0.13790962434E+03  0.19975345766E+03  0.12500211156E+03 0.  0.
          2    1    1    2  501    0  0.17835036177E+01 -0.65520098079E+02 -0.71230237486E+03  0.71531163654E+03  0.00000000000E+00 0. -1.
          1    1    1    2  502    0 -0.54455618707E+02  0.11534478833E+03  0.83955607831E+03  0.84919034570E+03  0.00000000000E+00 0. -1.
         22    1    3    3    0    0  0.56011488510E+02 -0.50376756504E+02  0.15018526330E+02  0.76815757330E+02  0.00000000000E+00 0. -1.
         22    1    3    3    0    0 -0.33393734207E+01  0.55206625166E+00  0.12289109801E+03  0.12293770033E+03  0.00000000000E+00 0. -1.
</event>
<event>
 7    1  0.5970484E-006  0.6419288E+02  0.7818608E-02  0.1382096E+00
          2   -1    0    0  502    0  0.00000000000E+00  0.00000000000E+00  0.13230428503E+04  0.13230428503E+04  0.00000000000E+00 0. -1.
          1   -1    0    0  501    0 -0.00000000000E+00 -0.00000000000E+00 -0.26557221567E+03  0.26557221567E+03  0.00000000000E+00 0. -1.
         25    2    1    2    0    0 -0.90559851036E+01 -0.48932001267E+02  0.81985828900E+03  0.83082179845E+03  0.12498357945E+03 0.  0.
          2    1    1    2  501    0 -0.63048460356E+02  0.12067206443E+02 -0.25275743724E+03  0.26078160960E+03  0.00000000000E+00 0. -1.
          1    1    1    2  502    0  0.72104445460E+02  0.36864794824E+02  0.49036978291E+03  0.49701165796E+03  0.00000000000E+00 0. -1.
         22    1    3    3    0    0 -0.13731746658E+02  0.20371525045E+02  0.34256970471E+02  0.42155663021E+02  0.00000000000E+00 0.  1.
         22    1    3    3    0    0  0.46757615540E+01 -0.69303526312E+02  0.78560131853E+03  0.78866613543E+03  0.00000000000E+00 0.  1.
</event>
<event>
 7    1  0.5970484E-006  0.1364530E+03  0.7818608E-02  0.1352413E+00
          2   -1    0    0  502    0  0.00000000000E+00  0.00000000000E+00  0.20926651823E+04  0.20926651823E+04  0.00000000000E+00 0. -1.
          1   -1    0    0  501    0 -0.00000000000E+00 -0.00000000000E+00 -0.13586087350E+04  0.13586087350E+04  0.00000000000E+00 0. -1.
         25    2    1    2    0    0  0.39909457020E+02 -0.93016885534E+02 -0.23983413940E+02  0.16263142125E+03  0.12501547617E+03 0.  0.
          2    1    1    2  501    0  0.28962447158E+00 -0.38316542205E+02 -0.12626794979E+04  0.12632607632E+04  0.00000000000E+00 0. -1.
          1    1    1    2  502    0 -0.40199081491E+02  0.13133342774E+03  0.20207193592E+04  0.20253817329E+04  0.00000000000E+00 0. -1.
         22    1    3    3    0    0  0.47802481834E+02 -0.27293795825E+02  0.41945035320E+02  0.69205596219E+02  0.00000000000E+00 0. -1.
         22    1    3    3    0    0 -0.78930248143E+01 -0.65723089710E+02 -0.65928449260E+02  0.93425825036E+02  0.00000000000E+00 0. -1.
</event>
<event>
 7    1  0.5970484E-006  0.1931682E+03  0.7818608E-02  0.1282715E+00
          2   -1    0    0  502    0  0.00000000000E+00  0.00000000000E+00  0.20294600041E+04  0.20294600041E+04  0.00000000000E+00 0. -1.
          1   -1    0    0  501    0 -0.00000000000E+00 -0.00000000000E+00 -0.52068603447E+03  0.52068603447E+03  0.00000000000E+00 0. -1.
         25    2    1    2    0    0  0.17942555552E+03 -0.15071594496E+03  0.15368163422E+04  0.15595951793E+04  0.12499530992E+03 0.  0.
          2    1    1    2  501    0 -0.16294589225E+03  0.10288215223E+03 -0.48963572308E+03  0.52619316069E+03  0.00000000000E+00 0. -1.
          1    1    1    2  502    0 -0.16479663272E+02  0.47833792737E+02  0.46159335049E+03  0.46435769859E+03  0.00000000000E+00 0. -1.
         22    1    3    3    0    0  0.13680563915E+03 -0.12113949624E+03  0.14208773340E+04  0.14325791283E+04  0.00000000000E+00 0.  1.
         22    1    3    3    0    0  0.42619916368E+02 -0.29576448722E+02  0.11593900817E+03  0.12701605097E+03  0.00000000000E+00 0.  1.
</event>
<event>
 7    1  0.6880973E-006  0.1381382E+03  0.7818608E-02  0.1218969E+00
          2   -1    0    0  502    0  0.00000000000E+00  0.00000000000E+00  0.17281048847E+04  0.17281048847E+04  0.00000000000E+00 0. -1.
          1   -1    0    0  501    0 -0.00000000000E+00 -0.00000000000E+00 -0.11603380945E+04  0.11603380945E+04  0.00000000000E+00 0. -1.
         25    2    1    2    0    0 -0.85075191048E+02 -0.12693768349E+03 -0.28446860037E+03  0.34626408980E+03  0.12500188665E+03 0.  0.
          2    1    1    2  501    0  0.14100707398E+03  0.62933094200E+00 -0.83624855950E+03  0.84805368004E+03  0.00000000000E+00 0. -1.
          1    1    1    2  502    0 -0.55931882935E+02  0.12630835255E+03  0.16884839501E+04  0.16941252094E+04  0.00000000000E+00 0. -1.
         22    1    3    3    0    0 -0.26033020639E+02 -0.62041678487E+02 -0.24029924089E+02  0.71444560919E+02  0.00000000000E+00 0. -1.
         22    1    3    3    0    0 -0.59042170410E+02 -0.64896005005E+02 -0.26043867628E+03  0.27481952888E+03  0.00000000000E+00 0. -1.
</event>
<event>
 7    1  0.5970484E-006  0.1228745E+03  0.7818608E-02  0.1371411E+00
          2   -1    0    0  502    0  0.00000000000E+00  0.00000000000E+00  0.14205361023E+04  0.14205361023E+04  0.00000000000E+00 0. -1.
          1   -1    0    0  501    0 -0.00000000000E+00 -0.00000000000E+00 -0.83622649286E+02  0.83622649286E+02  0.00000000000E+00 0. -1.
         25    2    1    2    0    0  0.10304512650E+03 -0.99913207339E+02  0.95644724918E+02  0.21301089014E+03  0.12499911527E+03 0.  0.
          2    1    1    2  501    0 -0.76253407034E+02  0.75435465774E+02  0.92016399575E+02  0.14132271357E+03  0.00000000000E+00 0. -1.
          1    1    1    2  502    0 -0.26791719466E+02  0.24477741566E+02  0.11492523286E+04  0.11498251479E+04  0.00000000000E+00 0. -1.
         22    1    3    3    0    0  0.17249878138E+02  0.98545917970E+01 -0.22733487425E+02  0.30190772196E+02  0.00000000000E+00 0. -1.
         22    1    3    3    0    0  0.85795248362E+02 -0.10976779914E+03  0.11837821234E+03  0.18282011795E+03  0.00000000000E+00 0. -1.
</event>
<event>
 7    1  0.5970484E-006  0.1782677E+03  0.7818608E-02  0.1271068E+00
          2   -1    0    0  502    0  0.00000000000E+00  0.00000000000E+00  0.46016150935E+03  0.46016150935E+03  0.00000000000E+00 0. -1.
          1   -1    0    0  501    0 -0.00000000000E+00 -0.00000000000E+00 -0.47401137760E+03  0.47401137760E+03  0.00000000000E+00 0. -1.
         25    2    1    2    0    0 -0.10858175795E+03  0.16929422798E+03 -0.17631797031E+03  0.29523415667E+03  0.12499858727E+03 0.  0.
          2    1    1    2  501    0 -0.26738870192E+02 -0.55139872512E+02 -0.21417101755E+03  0.22276579064E+03  0.00000000000E+00 0. -1.
          1    1    1    2  502    0  0.13532062814E+03 -0.11415435547E+03  0.37663911961E+03  0.41617293964E+03  0.00000000000E+00 0. -1.
         22    1    3    3    0    0 -0.82083503955E+02  0.33315177532E+02 -0.29491649413E+02  0.93366803847E+02  0.00000000000E+00 0.  1.
         22    1    3    3    0    0 -0.26498253998E+02  0.13597905045E+03 -0.14682632090E+03  0.20186735282E+03  0.00000000000E+00 0.  1.
</event>
<event>
 7    1  0.5970484E-006  0.5447826E+02  0.7818608E-02  0.1557383E+00
          2   -1    0    0  502    0  0.00000000000E+00  0.00000000000E+00  0.10582466144E+03  0.10582466144E+03  0.00000000000E+00 0. -1.
          1   -1    0    0  501    0 -0.00000000000E+00 -0.00000000000E+00 -0.15025502829E+03  0.15025502829E+03  0.00000000000E+00 0. -1.
         25    2    1    2    0    0 -0.32954892491E+01 -0.59430517953E+02 -0.39243481250E+01  0.13850648082E+03  0.12500319199E+03 0.  0.
          2    1    1    2  501    0  0.19667042638E+02  0.80676498070E+01 -0.57294283812E+02  0.61110674166E+02  0.00000000000E+00 0. -1.
          1    1    1    2  502    0 -0.16371553389E+02  0.51362868146E+02  0.16788265085E+02  0.56462534739E+02  0.00000000000E+00 0. -1.
         22    1    3    3    0    0  0.54785009449E+01 -0.52390541958E+02  0.56381778403E+02  0.77160143826E+02  0.00000000000E+00 0. -1.
         22    1    3    3    0    0 -0.87739901940E+01 -0.70399759944E+01 -0.60306126528E+02  0.61346336995E+02  0.00000000000E+00 0. -1.
</event>
<event>
 7    1  0.5970484E-006  0.1625601E+03  0.7818608E-02  0.1249875E+00
          2   -1    0    0  502    0  0.00000000000E+00  0.00000000000E+00  0.93794166017E+02  0.93794166017E+02  0.00000000000E+00 0. -1.
          1   -1    0    0  501    0 -0.00000000000E+00 -0.00000000000E+00 -0.76434887329E+03  0.76434887329E+03  0.00000000000E+00 0. -1.
         25    2    1    2    0    0  0.98334553766E+01 -0.99516281668E+02 -0.35099681311E+03  0.38577696277E+03  0.12499966011E+03 0.  0.
          2    1    1    2  501    0  0.76168219666E+01 -0.82399642969E+02 -0.27088765873E+03  0.28324519553E+03  0.00000000000E+00 0. -1.
          1    1    1    2  502    0 -0.17450277343E+02  0.18191592464E+03 -0.48670235431E+02  0.18912088101E+03  0.00000000000E+00 0. -1.
         22    1    3    3    0    0 -0.28726935286E+02 -0.99992949092E+02 -0.31941685089E+03  0.33593295657E+03  0.00000000000E+00 0.  1.
         22    1    3    3    0    0  0.38560390662E+02  0.47666742420E+00 -0.31579962223E+02  0.49844006198E+02  0.00000000000E+00 0.  1.
</event>
<event>
 7    1  0.5970484E-006  0.1025570E+03  0.7818608E-02  0.1290586E+00
          2   -1    0    0  502    0  0.00000000000E+00  0.00000000000E+00  0.35377574044E+04  0.35377574044E+04  0.00000000000E+00 0. -1.
          1   -1    0    0  501    0 -0.00000000000E+00 -0.00000000000E+00 -0.43708766817E+03  0.43708766817E+03  0.00000000000E+00 0. -1.
         25    2    1    2    0    0 -0.46559084542E+02  0.10597785453E+03  0.41271198938E+02  0.17528369768E+03  0.12498803466E+03 0.  0.
          2    1    1    2  501    0 -0.41301125515E+02 -0.95462988959E+02 -0.36218959614E+03  0.37682923027E+03  0.00000000000E+00 0. -1.
          1    1    1    2  502    0  0.87860210057E+02 -0.10514865571E+02  0.34215881335E+04  0.34227321447E+04  0.00000000000E+00 0. -1.
         22    1    3    3    0    0 -0.76483845199E+01  0.86496923017E+02 -0.29921803443E+02  0.91845140309E+02  0.00000000000E+00 0.  1.
         22    1    3    3    0    0 -0.38910700022E+02  0.19480931514E+02  0.71193002380E+02  0.83438557375E+02  0.00000000000E+00 0.  1.
</event>
<event>
 7    1  0.5970484E-006  0.1975529E+03  0.7818608E-02  0.1196833E+00
          2   -1    0    0  502    0  0.00000000000E+00  0.00000000000E+00  0.28975212123E+04  0.28975212123E+04  0.00000000000E+00 0. -1.
          1   -1    0    0  501    0 -0.00000000000E+00 -0.00000000000E+00 -0.30695018586E+04  0.30695018586E+04  0.00000000000E+00 0. -1.
         25    2    1    2    0    0 -0.52450066352E+02  0.12566849041E+03  0.66453098566E+03  0.68975966982E+03  0.12499356889E+03 0.  0.
          2    1    1    2  501    0  0.16883047995E+03 -0.10337605948E+03 -0.30520975181E+04  0.30585110103E+04  0.00000000000E+00 0. -1.
          1    1    1    2  502    0 -0.11638041360E+03 -0.22292430925E+02  0.22155858861E+04  0.22187523908E+04  0.00000000000E+00 0. -1.
         22    1    3    3    0    0  0.63193311364E+01  0.12590800955E+03  0.45049151204E+03  0.46779842159E+03  0.00000000000E+00 0. -1.
         22    1    3    3    0    0 -0.58769397488E+02 -0.23951914693E+00  0.21403947361E+03  0.22196124823E+03  0.00000000000E+00 0. -1.
</event>
<event>
 7    1  0.6617319E-006  0.1026642E+03  0.7818608E-02  0.1431247E+00
          2   -1    0    0  502    0  0.00000000000E+00  0.00000000000E+00  0.17323302178E+04  0.17323302178E+04  0.00000000000E+00 0. -1.
          1   -1    0    0  501    0 -0.00000000000E+00 -0.00000000000E+00 -0.77688378335E+03  0.77688378335E+03  0.00000000000E+00 0. -1.
         25    2    1    2    0    0 -0.43141357984E+02 -0.11453670778E+03 -0.34980739937E+03  0.39111308958E+03  0.12499759192E+03 0.  0.
          2    1    1    2  501    0 -0.82799597750E+01  0.25765195580E+02 -0.40443373805E+03  0.40533819399E+03  0.00000000000E+00 0. -1.
          1    1    1    2  502    0  0.51421317759E+02  0.88771512201E+02  0.17096875719E+04  0.17127627176E+04  0.00000000000E+00 0. -1.
         22    1    3    3    0    0 -0.81569285501E+02 -0.45139620133E+02 -0.15651090796E+03  0.18217244016E+03  0.00000000000E+00 0. -1.
         22    1    3    3    0    0  0.38427927517E+02 -0.69397087648E+02 -0.19329649141E+03  0.20894064942E+03  0.00000000000E+00 0. -1.
</event>
<event>
 7    1  0.5970484E-006  0.2952136E+02  0.7818608E-02  0.1609475E+00
          2   -1    0    0  502    0  0.00000000000E+00  0.00000000000E+00  0.12815366413E+04  0.12815366413E+04  0.00000000000E+00 0. -1.
          1   -1    0    0  501    0 -0.00000000000E+00 -0.00000000000E+00 -0.21563972374E+02  0.21563972374E+02  0.00000000000E+00 0. -1.
         25    2    1    2    0    0 -0.18751855862E+02  0.13985230848E+02  0.35586817113E+03  0.37790837689E+03  0.12500146926E+03 0.  0.
          2    1    1    2  501    0 -0.45909057657E+01 -0.30296937596E+02  0.12437664716E+02  0.33070777842E+02  0.00000000000E+00 0. -1.
          1    1    1    2  502    0  0.23342761628E+02  0.16311706748E+02  0.89166683303E+03  0.89212145890E+03  0.00000000000E+00 0. -1.
         22    1    3    3    0    0 -0.55606736710E+02  0.50029403870E+02  0.18918158177E+03  0.20343235067E+03  0.00000000000E+00 0.  1.
         22    1    3    3    0    0  0.36854880848E+02 -0.36044173021E+02  0.16668658936E+03  0.17447602621E+03  0.00000000000E+00 0.  1.
</event>
<event>
 7    1  0.5970484E-006  0.3159111E+03  0.7818608E-02  0.1214729E+00
          2   -1    0    0  502    0  0.00000000000E+00  0.00000000000E+00  0.21973294176E+04  0.21973294176E+04  0.00000000000E+00 0. -1.
          1   -1    0    0  501    0 -0.00000000000E+00 -0.00000000000E+00 -0.24574970143E+04  0.24574970143E+04  0.00000000000E+00 0. -1.
         25    2    1    2    0    0 -0.35820757702E+03  0.87198614708E+02 -0.42009953624E+03  0.57273396329E+03  0.12499722286E+03 0.  0.
          2    1    1    2  501    0  0.29840502282E+03 -0.74537159665E+02 -0.19485747361E+04  0.19726998879E+04  0.00000000000E+00 0. -1.
          1    1    1    2  502    0  0.59802554198E+02 -0.12661455043E+02  0.21085066756E+04  0.21093925806E+04  0.00000000000E+00 0. -1.
         22    1    3    3    0    0 -0.19066605703E+03 -0.13755073802E+02 -0.17517450136E+03  0.25928527394E+03  0.00000000000E+00 0. -1.
         22    1    3    3    0    0 -0.16754152000E+03  0.10095368851E+03 -0.24492503488E+03  0.31344868935E+03  0.00000000000E+00 0. -1.
</event>
<event>
 7    1  0.5970484E-006  0.8657859E+02  0.7818608E-02  0.1396285E+00
          2   -1    0    0  502    0  0.00000000000E+00  0.00000000000E+00  0.30544585720E+03  0.30544585720E+03  0.00000000000E+00 0. -1.
          1   -1    0    0  501    0 -0.00000000000E+00 -0.00000000000E+00 -0.66135477520E+03  0.66135477520E+03  0.00000000000E+00 0. -1.
         25    2    1    2    0    0  0.35276605059E+02  0.10385021525E+03  0.10159819141E+03  0.19487581820E+03  0.12500034378E+03 0.  0.
          2    1    1    2  501    0 -0.36172267265E+02 -0.21531185465E+02 -0.60315442242E+03  0.60462160245E+03  0.00000000000E+00 0. -1.
          1    1    1    2  502    0  0.89566220564E+00 -0.82319029789E+02  0.14564731301E+03  0.16730321175E+03  0.00000000000E+00 0. -1.
         22    1    3    3    0    0 -0.21000398742E+01 -0.26104420803E+02  0.36170479874E+02  0.44655957803E+02  0.00000000000E+00 0.  1.
         22    1    3    3    0    0  0.37376644934E+02  0.12995463606E+03  0.65427711538E+02  0.15021986039E+03  0.00000000000E+00 0.  1.
</event>
<event>
 7    1  0.5970484E-006  0.9982334E+02  0.7818608E-02  0.1312455E+00
          2   -1    0    0  502    0  0.00000000000E+00  0.00000000000E+00  0.26578533611E+04  0.26578533611E+04  0.00000000000E+00 0. -1.
          1   -1    0    0  501    0 -0.00000000000E+00 -0.00000000000E+00 -0.37483955670E+03  0.37483955670E+03  0.00000000000E+00 0. -1.
         25    2    1    2    0    0 -0.66428190015E+02 -0.12677041968E+03 -0.29531140583E+02  0.19230289844E+03  0.12499949099E+03 0.  0.
          2    1    1    2  501    0  0.69191739724E+02  0.27205157567E+02 -0.25770269626E+03  0.26821315610E+03  0.00000000000E+00 0. -1.
          1    1    1    2  502    0 -0.27635497088E+01  0.99565262115E+02  0.25702476412E+04  0.25721768632E+04  0.00000000000E+00 0. -1.
         22    1    3    3    0    0 -0.24115048776E+02 -0.43545051881E+02 -0.73766281709E+02  0.88989726586E+02  0.00000000000E+00 0. -1.
         22    1    3    3    0    0 -0.42313141239E+02 -0.83225367801E+02  0.44235141126E+02  0.10331317185E+03  0.00000000000E+00 0. -1.
</event>
<event>
 7    1  0.5970484E-006  0.1149095E+03  0.7818608E-02  0.1344309E+00
          2   -1    0    0  502    0  0.00000000000E+00  0.00000000000E+00  0.89637687686E+03  0.89637687686E+03  0.00000000000E+00 0. -1.
          1   -1    0    0  501    0 -0.00000000000E+00 -0.00000000000E+00 -0.12043180505E+04  0.12043180505E+04  0.00000000000E+00 0. -1.
         25    2    1    2    0    0 -0.64277441041E+02 -0.54582766324E+02 -0.45478468587E+03  0.47914012698E+03  0.12504112514E+03 0.  0.
          2    1    1    2  501    0  0.11172421421E+03  0.65854719627E+02 -0.73097108369E+03  0.74238660369E+03  0.00000000000E+00 0. -1.
          1    1    1    2  502    0 -0.47446773166E+02 -0.11271953303E+02  0.87781459593E+03  0.87916819668E+03  0.00000000000E+00 0. -1.
         22    1    3    3    0    0  0.31856196323E+01  0.19148403099E+02 -0.25515539962E+03  0.25589272648E+03  0.00000000000E+00 0. -1.
         22    1    3    3    0    0 -0.67463060673E+02 -0.73731169423E+02 -0.19962928625E+03  0.22324740050E+03  0.00000000000E+00 0. -1.
</event>
<event>
 7    1  0.5970484E-006  0.5023640E+03  0.7818608E-02  0.1117984E+00
          2   -1    0    0  502    0  0.00000000000E+00  0.00000000000E+00  0.18056149827E+04  0.18056149827E+04  0.00000000000E+00 0. -1.
          1   -1    0    0  501    0 -0.00000000000E+00 -0.00000000000E+00 -0.28494954794E+03  0.28494954794E+03  0.00000000000E+00 0. -1.
         25    2    1    2    0    0  0.16375297957E+03  0.42255447104E+03  0.72805295036E+03  0.86663343799E+03  0.12500039200E+03 0.  0.
          2    1    1    2  501    0 -0.11770666121E+02  0.11669396090E+03 -0.11050737424E+03  0.16114561382E+03  0.00000000000E+00 0. -1.
          1    1    1    2  502    0 -0.15198231345E+03 -0.53924843195E+03  0.90311985868E+03  0.10627854789E+04  0.00000000000E+00 0. -1.
         22    1    3    3    0    0  0.17117549879E+02  0.21478033225E+03  0.35014363532E+03  0.41112548813E+03  0.00000000000E+00 0. -1.
         22    1    3    3    0    0  0.14663542970E+03  0.20777413880E+03  0.37790931503E+03  0.45550794986E+03  0.00000000000E+00 0. -1.
</event>
<event>
 7    1  0.5970484E-006  0.1178929E+03  0.7818608E-02  0.1403395E+00
          2   -1    0    0  502    0  0.00000000000E+00  0.00000000000E+00  0.21864393837E+04  0.21864393837E+04  0.00000000000E+00 0. -1.
          1   -1    0    0  501    0 -0.00000000000E+00 -0.00000000000E+00 -0.79894590212E+03  0.79894590212E+03  0.00000000000E+00 0. -1.
         25    2    1    2    0    0 -0.71041624140E+02 -0.54991703911E+02 -0.45257517562E+01  0.15400273007E+03  0.12500143431E+03 0.  0.
          2    1    1    2  501    0 -0.26562049679E+02 -0.12179701812E+02 -0.71772213395E+03  0.71831674711E+03  0.00000000000E+00 0. -1.
          1    1    1    2  502    0  0.97603673819E+02  0.67171405723E+02  0.21097413673E+04  0.21130658086E+04  0.00000000000E+00 0. -1.
         22    1    3    3    0    0 -0.75033700653E+02  0.62818358990E+01  0.32815717578E+02  0.82136404937E+02  0.00000000000E+00 0.  1.
         22    1    3    3    0    0  0.39920765123E+01 -0.61273539810E+02 -0.37341469334E+02  0.71866325130E+02  0.00000000000E+00 0.  1.
</event>
<event>
 7    1  0.5970484E-006  0.5373997E+02  0.7818608E-02  0.1443604E+00
          2   -1    0    0  502    0  0.00000000000E+00  0.00000000000E+00  0.51726868719E+03  0.51726868719E+03  0.00000000000E+00 0. -1.
          1   -1    0    0  501    0 -0.00000000000E+00 -0.00000000000E+00 -0.22105334207E+03  0.22105334207E+03  0.00000000000E+00 0. -1.
         25    2    1    2    0    0 -0.54828573088E+01  0.86230990649E+01  0.24965326301E+02  0.12787673150E+03  0.12499908552E+03 0.  0.
          2    1    1    2  501    0 -0.45101129824E+02  0.13660332634E+02 -0.16454436568E+03  0.17115947207E+03  0.00000000000E+00 0. -1.
          1    1    1    2  502    0  0.50583987133E+02 -0.22283431699E+02  0.43579438451E+03  0.43928582569E+03  0.00000000000E+00 0. -1.
         22    1    3    3    0    0 -0.53475595009E+02 -0.32172661189E+02  0.11296779236E+02  0.63421893781E+02  0.00000000000E+00 0.  1.
         22    1    3    3    0    0  0.47992737701E+02  0.40795760254E+02  0.13668547065E+02  0.64454837721E+02  0.00000000000E+00 0.  1.
</event>
<event>
 7    1  0.5970484E-006  0.7893581E+02  0.7818608E-02  0.1366586E+00
          2   -1    0    0  502    0  0.00000000000E+00  0.00000000000E+00  0.21833660151E+04  0.21833660151E+04  0.00000000000E+00 0. -1.
          1   -1    0    0  501    0 -0.00000000000E+00 -0.00000000000E+00 -0.44092012296E+02  0.44092012296E+02  0.00000000000E+00 0. -1.
         25    2    1    2    0    0  0.24871040934E+02  0.16875975346E+02  0.34336922424E+03  0.36664709761E+03  0.12499721122E+03 0.  0.
          2    1    1    2  501    0 -0.57076969831E+02 -0.66066707452E+02  0.27653245359E+02  0.91582161459E+02  0.00000000000E+00 0. -1.
          1    1    1    2  502    0  0.32205928897E+02  0.49190732106E+02  0.17682515332E+04  0.17692287683E+04  0.00000000000E+00 0. -1.
         22    1    3    3    0    0  0.35789631109E+02  0.46476925913E+02  0.69412445912E+02  0.90879535566E+02  0.00000000000E+00 0. -1.
         22    1    3    3    0    0 -0.10918590175E+02 -0.29600950568E+02  0.27395677833E+03  0.27576756205E+03  0.00000000000E+00 0. -1.
</event>
<event>
 7    1  0.5970484E-006  0.4510884E+02  0.7818608E-02  0.1489655E+00
          2   -1    0    0  502    0  0.00000000000E+00  0.00000000000E+00  0.22500805663E+04  0.22500805663E+04  0.00000000000E+00 0. -1.
          1   -1    0    0  501    0 -0.00000000000E+00 -0.00000000000E+00 -0.58168846978E+03  0.58168846978E+03  0.00000000000E+00 0. -1.
         25    2    1    2    0    0  0.64936722031E+02  0.25997389393E+02  0.42226966679E+03  0.44590323601E+03  0.12500152908E+03 0.  0.
          2    1    1    2  501    0 -0.26098791523E+02 -0.36757566631E+02 -0.56875608803E+03  0.57053987879E+03  0.00000000000E+00 0. -1.
          1    1    1    2  502    0 -0.38837930509E+02  0.10760177238E+02  0.18148785178E+04  0.18153259213E+04  0.00000000000E+00 0. -1.
         22    1    3    3    0    0  0.86040835996E+02 -0.22676204420E+02  0.23564490149E+03  0.25188440862E+03  0.00000000000E+00 0.  1.
         22    1    3    3    0    0 -0.21104113965E+02  0.48673593812E+02  0.18662476530E+03  0.19401882739E+03  0.00000000000E+00 0.  1.
</event>
<event>
 7    1  0.5970484E-006  0.1248488E+03  0.7818608E-02  0.1319435E+00
          2   -1    0    0  502    0  0.00000000000E+00  0.00000000000E+00  0.96981932116E+03  0.96981932116E+03  0.00000000000E+00 0. -1.
          1   -1    0    0  501    0 -0.00000000000E+00 -0.00000000000E+00 -0.53523602411E+03  0.53523602411E+03  0.00000000000E+00 0. -1.
         25    2    1    2    0    0  0.12630013278E+00  0.16810181841E+03  0.23478943319E+02  0.21079192957E+03  0.12499495786E+03 0.  0.
          2    1    1    2  501    0  0.27915636886E+02 -0.48348759669E+02 -0.43535251922E+03  0.43891764756E+03  0.00000000000E+00 0. -1.
          1    1    1    2  502    0 -0.28041937018E+02 -0.11975305874E+03  0.84645687295E+03  0.85534576814E+03  0.00000000000E+00 0. -1.
         22    1    3    3    0    0  0.58862350677E+02  0.11320145884E+03  0.26594678711E+02  0.13033274165E+03  0.00000000000E+00 0.  1.
         22    1    3    3    0    0 -0.58736050544E+02  0.54900359570E+02 -0.31157353919E+01  0.80459187924E+02  0.00000000000E+00 0.  1.
</event>
<event>
 7    1  0.5970484E-006  0.1382360E+03  0.7818608E-02  0.1237039E+00
          2   -1    0    0  502    0  0.00000000000E+00  0.00000000000E+00  0.15660225973E+04  0.15660225973E+04  0.00000000000E+00 0. -1.
          1   -1    0    0  501    0 -0.00000000000E+00 -0.00000000000E+00 -0.38756211039E+03  0.38756211039E+03  0.00000000000E+00 0. -1.
         25    2    1    2    0    0  0.10070749398E+02 -0.79135254852E+02  0.93196499303E+02  0.17514125461E+03  0.12500025212E+03 0.  0.
          2    1    1    2  501    0  0.11074462687E+03 -0.27433437616E+01 -0.33389879257E+03  0.35179582430E+03  0.00000000000E+00 0. -1.
          1    1    1    2  502    0 -0.12081537626E+03  0.81878598614E+02  0.14191627802E+04  0.14266476288E+04  0.00000000000E+00 0. -1.
         22    1    3    3    0    0 -0.20590593385E+02  0.23699767197E+02  0.50887814464E+02  0.59793153137E+02  0.00000000000E+00 0. -1.
         22    1    3    3    0    0  0.30661342783E+02 -0.10283502205E+03  0.42308684839E+02  0.11534810148E+03  0.00000000000E+00 0. -1.
</event>
<event>
 7    1  0.5970484E-006  0.7497826E+02  0.7818608E-02  0.1357845E+00
          2   -1    0    0  502    0  0.00000000000E+00  0.00000000000E+00  0.14271390221E+04  0.14271390221E+04  0.00000000000E+00 0. -1.
          1   -1    0    0  501    0 -0.00000000000E+00 -0.00000000000E+00 -0.50086686973E+03  0.50086686973E+03  0.00000000000E+00 0. -1.
         25    2    1    2    0    0  0.30889624802E+02  0.12243753804E+03  0.58295975449E+03  0.60943608372E+03  0.12500058059E+03 0.  0.
          2    1    1    2  501    0  0.10380784036E+02 -0.65786597486E+02 -0.48386560287E+03  0.48842763919E+03  0.00000000000E+00 0. -1.
          1    1    1    2  502    0 -0.41270408838E+02 -0.56650940550E+02  0.82717800074E+03  0.83014216892E+03  0.00000000000E+00 0. -1.
         22    1    3    3    0    0 -0.34187063453E+02  0.26949329573E+02  0.61633672309E+02  0.75456817017E+02  0.00000000000E+00 0.  1.
         22    1    3    3    0    0  0.65076688255E+02  0.95488208463E+02  0.52132608218E+03  0.53397926671E+03  0.00000000000E+00 0.  1.
</event>
<event>
 7    1  0.5970484E-006  0.9209929E+02  0.7818608E-02  0.1313252E+00
          2   -1    0    0  502    0  0.00000000000E+00  0.00000000000E+00  0.20659334897E+03  0.20659334897E+03  0.00000000000E+00 0. -1.
          1   -1    0    0  501    0 -0.00000000000E+00 -0.00000000000E+00 -0.20629850137E+03  0.20629850137E+03  0.00000000000E+00 0. -1.
         25    2    1    2    0    0  0.34686137228E+02  0.51058414362E+02  0.34750251820E+02  0.14367340453E+03  0.12499750948E+03 0.  0.
          2    1    1    2  501    0 -0.10288829034E+03 -0.92347478721E+01 -0.11576096239E+03  0.15515115620E+03  0.00000000000E+00 0. -1.
          1    1    1    2  502    0  0.68202153109E+02 -0.41823666490E+02  0.81305558171E+02  0.11406728960E+03  0.00000000000E+00 0. -1.
         22    1    3    3    0    0  0.33176461627E+02 -0.16005978150E+02 -0.32180311253E+02  0.48912589125E+02  0.00000000000E+00 0.  1.
         22    1    3    3    0    0  0.15096756008E+01  0.67064392512E+02  0.66930563073E+02  0.94760815407E+02  0.00000000000E+00 0.  1.
</event>
<event>
 7    1  0.5970484E-006  0.7460341E+02  0.7818608E-02  0.1408992E+00
          2   -1    0    0  502    0  0.00000000000E+00  0.00000000000E+00  0.58745349191E+02  0.58745349191E+02  0.00000000000E+00 0. -1.
          1   -1    0    0  501    0 -0.00000000000E+00 -0.00000000000E+00 -0.12187912243E+04  0.12187912243E+04  0.00000000000E+00 0. -1.
         25    2    1    2    0    0  0.49851947453E+02 -0.11516504287E+01 -0.59002060535E+02  0.14694420365E+03  0.12499925150E+03 0.  0.
          2    1    1    2  501    0 -0.61664118189E+02  0.43737453855E+02 -0.10781937283E+04  0.10808409430E+04  0.00000000000E+00 0. -1.
          1    1    1    2  502    0  0.11812170737E+02 -0.42585803426E+02 -0.22850086308E+02  0.49751426867E+02  0.00000000000E+00 0. -1.
         22    1    3    3    0    0  0.81950628553E+02  0.45534430783E+01 -0.29856647355E+01  0.82131318983E+02  0.00000000000E+00 0.  1.
         22    1    3    3    0    0 -0.32098681100E+02 -0.57050935070E+01 -0.56016395799E+02  0.64812884665E+02  0.00000000000E+00 0.  1.
</event>
<event>
 7    1  0.5970484E-006  0.1679008E+03  0.7818608E-02  0.1310387E+00
          2   -1    0    0  502    0  0.00000000000E+00  0.00000000000E+00  0.59486200501E+02  0.59486200501E+02  0.00000000000E+00 0. -1.
          1   -1    0    0  501    0 -0.00000000000E+00 -0.00000000000E+00 -0.29377020084E+04  0.29377020084E+04  0.00000000000E+00 0. -1.
         25    2    1    2    0    0  0.10121161348E+03 -0.17164345828E+03 -0.14644344906E+04  0.14832051300E+04  0.12499525097E+03 0.  0.
          2    1    1    2  501    0 -0.78118326312E+02  0.13297661513E+03 -0.14487672466E+04  0.14569529121E+04  0.00000000000E+00 0. -1.
          1    1    1    2  502    0 -0.23093287165E+02  0.38666843150E+02  0.34985929401E+02  0.57030166818E+02  0.00000000000E+00 0. -1.
         22    1    3    3    0    0  0.85551367294E+02 -0.46938994410E+02 -0.88093293471E+03  0.88632112753E+03  0.00000000000E+00 0.  1.
         22    1    3    3    0    0  0.15660246184E+02 -0.12470446387E+03 -0.58350155592E+03  0.59688400245E+03  0.00000000000E+00 0.  1.
</event>
<event>
 7    1  0.5970484E-006  0.5443094E+02  0.7818608E-02  0.1475893E+00
          2   -1    0    0  502    0  0.00000000000E+00  0.00000000000E+00  0.11364188787E+04  0.11364188787E+04  0.00000000000E+00 0. -1.
          1   -1    0    0  501    0 -0.00000000000E+00 -0.00000000000E+00 -0.19467277340E+03  0.19467277340E+03  0.00000000000E+00 0. -1.
         25    2    1    2    0    0 -0.21103331548E+02 -0.60365465535E+02  0.17503142627E+02  0.14149635719E+03  0.12500207625E+03 0.  0.
          2    1    1    2  501    0 -0.23133636001E+02  0.28612934380E+02 -0.12940843670E+03  0.13453775907E+03  0.00000000000E+00 0. -1.
          1    1    1    2  502    0  0.44236967549E+02  0.31752531154E+02  0.10536513994E+04  0.10550575358E+04  0.00000000000E+00 0. -1.
         22    1    3    3    0    0  0.25228223622E+02 -0.34646156699E+02 -0.43244164951E+02  0.60884129651E+02  0.00000000000E+00 0. -1.
         22    1    3    3    0    0 -0.46331555169E+02 -0.25719308836E+02  0.60747307578E+02  0.80612227542E+02  0.00000000000E+00 0. -1.
</event>
<event>
 7    1  0.5970484E-006  0.6551715E+02  0.7818608E-02  0.1455308E+00
          2   -1    0    0  502    0  0.00000000000E+00  0.00000000000E+00  0.18768011091E+03  0.18768011091E+03  0.00000000000E+00 0. -1.
          1   -1    0    0  501    0 -0.00000000000E+00 -0.00000000000E+00 -0.12272906248E+04  0.12272906248E+04  0.00000000000E+00 0. -1.
         25    2    1    2    0    0 -0.33328310609E+02  0.55893480479E+02 -0.11516937850E+03  0.18200703152E+03  0.12501086486E+03 0.  0.
          2    1    1    2  501    0 -0.25026092296E+02 -0.25118758579E+02 -0.10713421928E+04  0.10719287996E+04  0.00000000000E+00 0. -1.
          1    1    1    2  502    0  0.58354402905E+02 -0.30774721899E+02  0.14690105738E+03  0.16103490462E+03  0.00000000000E+00 0. -1.
         22    1    3    3    0    0 -0.66025743142E+02 -0.68036157084E+01 -0.34750665038E+02  0.74921937140E+02  0.00000000000E+00 0.  1.
         22    1    3    3    0    0  0.32697432533E+02  0.62697096187E+02 -0.80418713462E+02  0.10708509439E+03  0.00000000000E+00 0.  1.
</event>
<event>
 7    1  0.5970484E-006  0.5554921E+02  0.7818608E-02  0.1470799E+00
          2   -1    0    0  502    0  0.00000000000E+00  0.00000000000E+00  0.25159251030E+03  0.25159251030E+03  0.00000000000E+00 0. -1.
          1   -1    0    0  501    0 -0.00000000000E+00 -0.00000000000E+00 -0.17176758016E+04  0.17176758016E+04  0.00000000000E+00 0. -1.
         25    2    1    2    0    0  0.22921802107E+02 -0.45455287960E+01  0.64555076794E+02  0.14261439898E+03  0.12500175204E+03 0.  0.
          2    1    1    2  501    0  0.37193733715E+02 -0.38031014267E+01 -0.16722064570E+04  0.16726243668E+04  0.00000000000E+00 0. -1.
          1    1    1    2  502    0 -0.60115535822E+02  0.83486302227E+01  0.14156808894E+03  0.15402954613E+03  0.00000000000E+00 0. -1.
         22    1    3    3    0    0  0.17316954445E+02  0.50834773983E+02  0.68230457954E+02  0.86829986466E+02  0.00000000000E+00 0.  1.
         22    1    3    3    0    0  0.56048476628E+01 -0.55380302779E+02 -0.36753811595E+01  0.55784412517E+02  0.00000000000E+00 0.  1.
</event>
<event>
 7    1  0.5970484E-006  0.1098241E+03  0.7818608E-02  0.1398749E+00
          2   -1    0    0  502    0  0.00000000000E+00  0.00000000000E+00  0.27886768671E+04  0.27886768671E+04  0.00000000000E+00 0. -1.
          1   -1    0    0  501    0 -0.00000000000E+00 -0.00000000000E+00 -0.15102323460E+03  0.15102323460E+03  0.00000000000E+00 0. -1.
         25    2    1    2    0    0  0.57330617374E+02  0.76832657087E+02  0.18147745132E+03  0.24031082683E+03  0.12500068507E+03 0.  0.
          2    1    1    2  501    0 -0.18606437959E+02  0.26697828824E+02 -0.11822210087E+03  0.12261907980E+03  0.00000000000E+00 0. -1.
          1    1    1    2  502    0 -0.38724179415E+02 -0.10353048591E+03  0.25743982821E+04  0.25767701951E+04  0.00000000000E+00 0. -1.
         22    1    3    3    0    0  0.60217957415E+02  0.10846499107E+03  0.15761370667E+03  0.20058149768E+03  0.00000000000E+00 0. -1.
         22    1    3    3    0    0 -0.28873400407E+01 -0.31632333980E+02  0.23863744656E+02  0.39729329148E+02  0.00000000000E+00 0. -1.
</event>
<event>
 7    1  0.5970484E-006  0.5409382E+02  0.7818608E-02  0.1446135E+00
          2   -1    0    0  502    0  0.00000000000E+00  0.00000000000E+00  0.48060943908E+03  0.48060943908E+03  0.00000000000E+00 0. -1.
          1   -1    0    0  501    0 -0.00000000000E+00 -0.00000000000E+00 -0.23275791072E+04  0.23275791072E+04  0.00000000000E+00 0. -1.
         25    2    1    2    0    0 -0.81703730063E+02  0.21596880620E+02  0.76968580439E+02  0.16939030491E+03  0.12500795280E+03 0.  0.
          2    1    1    2  501    0  0.43330882583E+02  0.15276634077E+02 -0.22791545365E+04  0.22796175868E+04  0.00000000000E+00 0. -1.
          1    1    1    2  502    0  0.38372847480E+02 -0.36873514697E+02  0.35521628785E+03  0.35918065464E+03  0.00000000000E+00 0. -1.
         22    1    3    3    0    0 -0.82588731628E+02 -0.21017985869E+02  0.45297054048E+01  0.85341505453E+02  0.00000000000E+00 0. -1.
         22    1    3    3    0    0  0.88500156500E+00  0.42614866489E+02  0.72438875034E+02  0.84048799455E+02  0.00000000000E+00 0. -1.
</event>
<event>
 7    1  0.5970484E-006  0.1902732E+03  0.7818608E-02  0.1235773E+00
          2   -1    0    0  502    0  0.00000000000E+00  0.00000000000E+00  0.13748636037E+04  0.13748636037E+04  0.00000000000E+00 0. -1.
          1   -1    0    0  501    0 -0.00000000000E+00 -0.00000000000E+00 -0.63939861663E+02  0.63939861663E+02  0.00000000000E+00 0. -1.
         25    2    1    2    0    0  0.15073963017E+03  0.11538438979E+03  0.24106287837E+03  0.33131881006E+03  0.12499939624E+03 0.  0.
          2    1    1    2  501    0 -0.19758628975E+03 -0.48657980203E+02  0.71612950285E+03  0.74447928500E+03  0.00000000000E+00 0. -1.
          1    1    1    2  502    0  0.46846659581E+02 -0.66726409583E+02  0.35373136081E+03  0.36300537031E+03  0.00000000000E+00 0. -1.
         22    1    3    3    0    0  0.10114602833E+03  0.13106138891E+03  0.13663515918E+03  0.21465501027E+03  0.00000000000E+00 0.  1.
         22    1    3    3    0    0  0.49593601844E+02 -0.15676999126E+02  0.10442771919E+03  0.11666379979E+03  0.00000000000E+00 0.  1.
</event>
<event>
 7    1  0.5970484E-006  0.1010858E+03  0.7818608E-02  0.1279308E+00
          2   -1    0    0  502    0  0.00000000000E+00  0.00000000000E+00  0.32907624105E+03  0.32907624105E+03  0.00000000000E+00 0. -1.
          1   -1    0    0  501    0 -0.00000000000E+00 -0.00000000000E+00 -0.21434294574E+03  0.21434294574E+03  0.00000000000E+00 0. -1.
         25    2    1    2    0    0 -0.68274897095E+00 -0.21803696179E+02  0.37636989286E+02  0.13235639768E+03  0.12500322288E+03 0.  0.
          2    1    1    2  501    0  0.34231999073E+02  0.11715983462E+03 -0.13140609572E+03  0.17934831641E+03  0.00000000000E+00 0. -1.
          1    1    1    2  502    0 -0.33549250102E+02 -0.95356138440E+02  0.20850240175E+03  0.23171447270E+03  0.00000000000E+00 0. -1.
         22    1    3    3    0    0  0.32620684193E+02  0.72889581273E+01 -0.34313795976E+02  0.47902761319E+02  0.00000000000E+00 0.  1.
         22    1    3    3    0    0 -0.33303433163E+02 -0.29092654306E+02  0.71950785261E+02  0.84453636362E+02  0.00000000000E+00 0.  1.
</event>
<event>
 7    1  0.5970484E-006  0.7614747E+02  0.7818608E-02  0.1379254E+00
          2   -1    0    0  502    0  0.00000000000E+00  0.00000000000E+00  0.44723673814E+02  0.44723673814E+02  0.00000000000E+00 0. -1.
          1   -1    0    0  501    0 -0.00000000000E+00 -0.00000000000E+00 -0.70563327294E+03  0.70563327294E+03  0.00000000000E+00 0. -1.
         25    2    1    2    0    0  0.61759493379E+02 -0.18400413201E+01 -0.31256143391E+03  0.34225294513E+03  0.12499923084E+03 0.  0.
          2    1    1    2  501    0  0.12484070220E-01  0.54906014541E+02 -0.31558340025E+03  0.32032413756E+03  0.00000000000E+00 0. -1.
          1    1    1    2  502    0 -0.61771977449E+02 -0.53065973221E+02 -0.32764764970E+02  0.87779864065E+02  0.00000000000E+00 0. -1.
         22    1    3    3    0    0  0.48293169103E+02 -0.74743333004E+01 -0.26064939847E+02  0.55384807750E+02  0.00000000000E+00 0.  1.
         22    1    3    3    0    0  0.13466324275E+02  0.56342919804E+01 -0.28649649406E+03  0.28686813738E+03  0.00000000000E+00 0.  1.
</event>
<event>
 7    1  0.5970484E-006  0.1005665E+03  0.7818608E-02  0.1369861E+00
          2   -1    0    0  502    0  0.00000000000E+00  0.00000000000E+00  0.99804093753E+03  0.99804093753E+03  0.00000000000E+00 0. -1.
          1   -1    0    0  501    0 -0.00000000000E+00 -0.00000000000E+00 -0.46222530017E+03  0.46222530017E+03  0.00000000000E+00 0. -1.
         25    2    1    2    0    0  0.51786989086E+02 -0.22939786123E+02  0.32344881280E+03  0.35135798864E+03  0.12500070259E+03 0.  0.
          2    1    1    2  501    0 -0.89964834215E+02  0.46594195887E+02 -0.44176626614E+03  0.45323517558E+03  0.00000000000E+00 0. -1.
          1    1    1    2  502    0  0.38177845129E+02 -0.23654409764E+02  0.65413309069E+03  0.65567307349E+03  0.00000000000E+00 0. -1.
         22    1    3    3    0    0  0.81385737258E+02 -0.24036063108E+02  0.12734375370E+03  0.15302876254E+03  0.00000000000E+00 0. -1.
         22    1    3    3    0    0 -0.29598748173E+02  0.10962769849E+01  0.19610505911E+03  0.19832922610E+03  0.00000000000E+00 0. -1.
</event>
<event>
 7    1  0.5970484E-006  0.3993556E+03  0.7818608E-02  0.1125556E+00
          2   -1    0    0  502    0  0.00000000000E+00  0.00000000000E+00  0.27337380711E+04  0.27337380711E+04  0.00000000000E+00 0. -1.
          1   -1    0    0  501    0 -0.00000000000E+00 -0.00000000000E+00 -0.51458356951E+03  0.51458356951E+03  0.00000000000E+00 0. -1.
         25    2    1    2    0    0 -0.42186759462E+03 -0.73304741340E+02 -0.12617429691E+03  0.46356299245E+03  0.12499936911E+03 0.  0.
          2    1    1    2  501    0  0.27222386930E+02  0.13146120785E+03 -0.18199162502E+03  0.22615052309E+03  0.00000000000E+00 0. -1.
          1    1    1    2  502    0  0.39464520769E+03 -0.58156466506E+02  0.25273204235E+04  0.25586081251E+04  0.00000000000E+00 0. -1.
         22    1    3    3    0    0 -0.10090784615E+03 -0.51269465925E+02 -0.79879090866E+02  0.13853382514E+03  0.00000000000E+00 0.  1.
         22    1    3    3    0    0 -0.32095974847E+03 -0.22035275415E+02 -0.46295206043E+02  0.32502916731E+03  0.00000000000E+00 0.  1.
</event>
<event>
 7    1  0.5970484E-006  0.1331708E+03  0.7818608E-02  0.1421256E+00
          2   -1    0    0  502    0  0.00000000000E+00  0.00000000000E+00  0.83387397097E+03  0.83387397097E+03  0.00000000000E+00 0. -1.
          1   -1    0    0  501    0 -0.00000000000E+00 -0.00000000000E+00 -0.10919511294E+04  0.10919511294E+04  0.00000000000E+00 0. -1.
         25    2    1    2    0    0 -0.11945638751E+03 -0.83445094905E+02 -0.43839423219E+03  0.47858916892E+03  0.12500070961E+03 0.  0.
          2    1    1    2  501    0  0.21524771374E+02 -0.66009772192E+01 -0.62781902813E+03  0.62822258855E+03  0.00000000000E+00 0. -1.
          1    1    1    2  502    0  0.97931616136E+02  0.90046072124E+02  0.80813610193E+03  0.81901334287E+03  0.00000000000E+00 0. -1.
         22    1    3    3    0    0 -0.40632242548E+02  0.32328407511E+02 -0.11796740821E+03  0.12888915573E+03  0.00000000000E+00 0.  1.
         22    1    3    3    0    0 -0.78824144962E+02 -0.11577350242E+03 -0.32042682399E+03  0.34970001318E+03  0.00000000000E+00 0.  1.
</event>
<event>
 7    1  0.5970484E-006  0.7642718E+02  0.7818608E-02  0.1401742E+00
          2   -1    0    0  502    0  0.00000000000E+00  0.00000000000E+00  0.10407273407E+04  0.10407273407E+04  0.00000000000E+00 0. -1.
          1   -1    0    0  501    0 -0.00000000000E+00 -0.00000000000E+00 -0.46005190434E+03  0.46005190434E+03  0.00000000000E+00 0. -1.
         25    2    1    2    0    0  0.56226837736E+02 -0.67994574381E+02  0.27891809796E+03  0.31812614774E+03  0.12499688427E+03 0.  0.
          2    1    1    2  501    0  0.15898153145E+02  0.42810603917E+02 -0.43728982499E+03  0.43966793165E+03  0.00000000000E+00 0. -1.
          1    1    1    2  502    0 -0.72124990881E+02  0.25183970465E+02  0.73904716334E+03  0.74298516561E+03  0.00000000000E+00 0. -1.
         22    1    3    3    0    0  0.24079546131E+02  0.31373468675E+01 -0.40237273102E+01  0.24614180237E+02  0.00000000000E+00 0. -1.
         22    1    3    3    0    0  0.32147291605E+02 -0.71131921249E+02  0.28294182528E+03  0.29351196750E+03  0.00000000000E+00 0. -1.
</event>
<event>
 7    1  0.5970484E-006  0.1099274E+03  0.7818608E-02  0.1316843E+00
          2   -1    0    0  502    0  0.00000000000E+00  0.00000000000E+00  0.99980698761E+03  0.99980698761E+03  0.00000000000E+00 0. -1.
          1   -1    0    0  501    0 -0.00000000000E+00 -0.00000000000E+00 -0.13578579215E+04  0.13578579215E+04  0.00000000000E+00 0. -1.
         25    2    1    2    0    0  0.10432460262E+03 -0.51970397116E+02  0.55422633246E+03  0.57997771457E+03  0.12499110737E+03 0.  0.
          2    1    1    2  501    0  0.79421464677E+01  0.64409435530E+02 -0.13368102360E+04  0.13383845711E+04  0.00000000000E+00 0. -1.
          1    1    1    2  502    0 -0.11226674909E+03 -0.12439038414E+02  0.42453296966E+03  0.43930262344E+03  0.00000000000E+00 0. -1.
         22    1    3    3    0    0  0.10947582175E+03  0.41085445655E+00  0.45112297279E+03  0.46421660992E+03  0.00000000000E+00 0.  1.
         22    1    3    3    0    0 -0.51512191286E+01 -0.52381251573E+02  0.10310335967E+03  0.11576110465E+03  0.00000000000E+00 0.  1.
</event>
<event>
 7    1  0.5970484E-006  0.3691992E+02  0.7818608E-02  0.1578624E+00
          2   -1    0    0  502    0  0.00000000000E+00  0.00000000000E+00  0.10410511391E+04  0.10410511391E+04  0.00000000000E+00 0. -1.
          1   -1    0    0  501    0 -0.00000000000E+00 -0.00000000000E+00 -0.74550602735E+03  0.74550602735E+03  0.00000000000E+00 0. -1.
         25    2    1    2    0    0  0.53884534124E+02  0.22958326002E+01 -0.92179993596E+01  0.13644899120E+03  0.12499816728E+03 0.  0.
          2    1    1    2  501    0 -0.31794143014E+02 -0.18598029306E+02 -0.67197526080E+03  0.67298403054E+03  0.00000000000E+00 0. -1.
          1    1    1    2  502    0 -0.22090391110E+02  0.16302196706E+02  0.97673837190E+03  0.97712414469E+03  0.00000000000E+00 0. -1.
         22    1    3    3    0    0  0.61698955634E+01 -0.53543612465E+02 -0.27858178643E+02  0.60671774033E+02  0.00000000000E+00 0. -1.
         22    1    3    3    0    0  0.47714638560E+02  0.55839445065E+02  0.18640179283E+02  0.75777217169E+02  0.00000000000E+00 0. -1.
</event>
<event>
 7    1  0.5970484E-006  0.2537937E+03  0.7818608E-02  0.1137145E+00
          2   -1    0    0  502    0  0.00000000000E+00  0.00000000000E+00  0.12251100924E+04  0.12251100924E+04  0.00000000000E+00 0. -1.
          1   -1    0    0  501    0 -0.00000000000E+00 -0.00000000000E+00 -0.66501574359E+03  0.66501574359E+03  0.00000000000E+00 0. -1.
         25    2    1    2    0    0 -0.29030518211E+03 -0.21536552440E+03  0.49307317158E+02  0.38563544644E+03  0.12499631263E+03 0.  0.
          2    1    1    2  501    0  0.24032701283E+03  0.39019856272E+02 -0.45790493135E+03  0.51861020857E+03  0.00000000000E+00 0. -1.
          1    1    1    2  502    0  0.49978169278E+02  0.17634566812E+03  0.96869196305E+03  0.98588018103E+03  0.00000000000E+00 0. -1.
         22    1    3    3    0    0 -0.18438595028E+03 -0.10263339622E+03 -0.27710906468E+02  0.21283723127E+03  0.00000000000E+00 0.  1.
         22    1    3    3    0    0 -0.10591923184E+03 -0.11273212818E+03  0.77018223626E+02  0.17279821517E+03  0.00000000000E+00 0.  1.
</event>
<event>
 7    1  0.5970484E-006  0.5679746E+02  0.7818608E-02  0.1434313E+00
          2   -1    0    0  502    0  0.00000000000E+00  0.00000000000E+00  0.25994165837E+04  0.25994165837E+04  0.00000000000E+00 0. -1.
          1   -1    0    0  501    0 -0.00000000000E+00 -0.00000000000E+00 -0.31506945906E+02  0.31506945906E+02  0.00000000000E+00 0. -1.
         25    2    1    2    0    0  0.50572985176E+02  0.88210273421E+02  0.51555756290E+03  0.54015093881E+03  0.12499902747E+03 0.  0.
          2    1    1    2  501    0 -0.31134708807E+02 -0.36266947087E+02  0.11493517077E+02  0.49160578498E+02  0.00000000000E+00 0. -1.
          1    1    1    2  502    0 -0.19438276369E+02 -0.51943326335E+02  0.20408585579E+04  0.20416120123E+04  0.00000000000E+00 0. -1.
         22    1    3    3    0    0 -0.37525269001E+02  0.41081550547E+02  0.12166176618E+03  0.13378125788E+03  0.00000000000E+00 0.  1.
         22    1    3    3    0    0  0.88098254177E+02  0.47128722875E+02  0.39389579671E+03  0.40636968093E+03  0.00000000000E+00 0.  1.
</event>
<event>
 7    1  0.6117880E-006  0.1297126E+03  0.7818608E-02  0.1406012E+00
          2   -1    0    0  502    0  0.00000000000E+00  0.00000000000E+00  0.16462983493E+04  0.16462983493E+04  0.00000000000E+00 0. -1.
          1   -1    0    0  501    0 -0.00000000000E+00 -0.00000000000E+00 -0.13891113456E+04  0.13891113456E+04  0.00000000000E+00 0. -1.
         25    2    1    2    0    0 -0.10313248623E+03 -0.77516061375E+02 -0.23072612403E+03  0.29241095357E+03  0.12499828787E+03 0.  0.
          2    1    1    2  501    0  0.17102974841E+02 -0.19606337286E+02 -0.11247870074E+04  0.11250878776E+04  0.00000000000E+00 0. -1.
          1    1    1    2  502    0  0.86029511385E+02  0.97122398661E+02  0.16127001351E+04  0.16179108638E+04  0.00000000000E+00 0. -1.
         22    1    3    3    0    0 -0.38584629285E+02 -0.97201684964E+02 -0.17928490048E+03  0.20755726130E+03  0.00000000000E+00 0.  1.
         22    1    3    3    0    0 -0.64547856942E+02  0.19685623588E+02 -0.51441223550E+02  0.84853692272E+02  0.00000000000E+00 0.  1.
</event>
<event>
 7    1  0.5970484E-006  0.1283962E+03  0.7818608E-02  0.1304221E+00
          2   -1    0    0  502    0  0.00000000000E+00  0.00000000000E+00  0.67535646082E+03  0.67535646082E+03  0.00000000000E+00 0. -1.
          1   -1    0    0  501    0 -0.00000000000E+00 -0.00000000000E+00 -0.62141477355E+03  0.62141477355E+03  0.00000000000E+00 0. -1.
         25    2    1    2    0    0  0.41217104093E+02  0.73704175648E+02  0.78604892371E+02  0.17010010443E+03  0.12499664493E+03 0.  0.
          2    1    1    2  501    0 -0.13600360021E+02  0.60796582288E+02 -0.56537550435E+03  0.56879755197E+03  0.00000000000E+00 0. -1.
          1    1    1    2  502    0 -0.27616744072E+02 -0.13450075794E+03  0.54071229925E+03  0.55787357797E+03  0.00000000000E+00 0. -1.
         22    1    3    3    0    0  0.62224922446E+02 -0.85199257240E+01  0.16497394003E+02  0.64936077158E+02  0.00000000000E+00 0.  1.
         22    1    3    3    0    0 -0.21007818353E+02  0.82224101372E+02  0.62107498368E+02  0.10516402727E+03  0.00000000000E+00 0.  1.
</event>
<event>
 7    1  0.5970484E-006  0.1137025E+03  0.7818608E-02  0.1336843E+00
          2   -1    0    0  502    0  0.00000000000E+00  0.00000000000E+00  0.21215436224E+04  0.21215436224E+04  0.00000000000E+00 0. -1.
          1   -1    0    0  501    0 -0.00000000000E+00 -0.00000000000E+00 -0.43867357654E+03  0.43867357654E+03  0.00000000000E+00 0. -1.
         25    2    1    2    0    0 -0.78826024598E+02  0.32022679117E+02  0.26111321953E+03  0.30173562810E+03  0.12500112687E+03 0.  0.
          2    1    1    2  501    0 -0.19881963078E+01  0.52537166298E+02 -0.41484282219E+03  0.41816106214E+03  0.00000000000E+00 0. -1.
          1    1    1    2  502    0  0.80814220905E+02 -0.84559845415E+02  0.18365996485E+04  0.18403205087E+04  0.00000000000E+00 0. -1.
         22    1    3    3    0    0 -0.36397884718E+02 -0.17563733289E+01  0.14496272777E+01  0.36469059193E+02  0.00000000000E+00 0.  1.
         22    1    3    3    0    0 -0.42428139880E+02  0.33779052445E+02  0.25966359225E+03  0.26526656891E+03  0.00000000000E+00 0.  1.
</event>
<event>
 7    1  0.5970484E-006  0.2995337E+03  0.7818608E-02  0.1188670E+00
          2   -1    0    0  502    0  0.00000000000E+00  0.00000000000E+00  0.69579015041E+03  0.69579015041E+03  0.00000000000E+00 0. -1.
          1   -1    0    0  501    0 -0.00000000000E+00 -0.00000000000E+00 -0.10476025009E+04  0.10476025009E+04  0.00000000000E+00 0. -1.
         25    2    1    2    0    0  0.13921237869E+03  0.19359377936E+03  0.24481807687E+02  0.27033856646E+03  0.12499977529E+03 0.  0.
          2    1    1    2  501    0 -0.22090198804E+03 -0.21880555357E+03 -0.89493819869E+03  0.94741117688E+03  0.00000000000E+00 0. -1.
          1    1    1    2  502    0  0.81689609346E+02  0.25211774212E+02  0.51864404056E+03  0.52564290792E+03  0.00000000000E+00 0. -1.
         22    1    3    3    0    0  0.13957558197E+02  0.62862577928E+02 -0.42656199650E+02  0.77240329513E+02  0.00000000000E+00 0.  1.
         22    1    3    3    0    0  0.12525482050E+03  0.13073120143E+03  0.67138007337E+02  0.19309823695E+03  0.00000000000E+00 0.  1.
</event>
<event>
 7    1  0.5970484E-006  0.8602057E+02  0.7818608E-02  0.1368908E+00
          2   -1    0    0  502    0  0.00000000000E+00  0.00000000000E+00  0.30157603648E+03  0.30157603648E+03  0.00000000000E+00 0. -1.
          1   -1    0    0  501    0 -0.00000000000E+00 -0.00000000000E+00 -0.30691555962E+04  0.30691555962E+04  0.00000000000E+00 0. -1.
         25    2    1    2    0    0  0.12482004148E+03 -0.16639921854E+02 -0.46831948138E+03  0.50080431396E+03  0.12499957795E+03 0.  0.
          2    1    1    2  501    0 -0.40927038835E+02  0.33552495726E+02 -0.25778988857E+04  0.25784420601E+04  0.00000000000E+00 0. -1.
          1    1    1    2  502    0 -0.83893002642E+02 -0.16912573872E+02  0.27863880734E+03  0.29148525864E+03  0.00000000000E+00 0. -1.
         22    1    3    3    0    0  0.12608749316E+03  0.20068169891E+02 -0.42623247069E+03  0.44494371155E+03  0.00000000000E+00 0.  1.
         22    1    3    3    0    0 -0.12674516809E+01 -0.36708091745E+02 -0.42087010689E+02  0.55860602414E+02  0.00000000000E+00 0.  1.
</event>
<event>
 7    1  0.5970484E-006  0.8365768E+02  0.7818608E-02  0.1325916E+00
          2   -1    0    0  502    0  0.00000000000E+00  0.00000000000E+00  0.10149733639E+03  0.10149733639E+03  0.00000000000E+00 0. -1.
          1   -1    0    0  501    0 -0.00000000000E+00 -0.00000000000E+00 -0.92606338309E+03  0.92606338309E+03  0.00000000000E+00 0. -1.
         25    2    1    2    0    0  0.78792208682E+02  0.58464056212E+02 -0.25141045261E+03  0.29742051821E+03  0.12500196380E+03 0.  0.
          2    1    1    2  501    0 -0.74001621711E+02  0.26637603743E+02 -0.62529469494E+03  0.63022159395E+03  0.00000000000E+00 0. -1.
          1    1    1    2  502    0 -0.47905869707E+01 -0.85101659955E+02  0.52139100856E+02  0.99918607320E+02  0.00000000000E+00 0. -1.
         22    1    3    3    0    0  0.45227943151E+02  0.93658355173E+02 -0.20654272894E+03  0.23125170964E+03  0.00000000000E+00 0.  1.
         22    1    3    3    0    0  0.33564265531E+02 -0.35194298961E+02 -0.44867723667E+02  0.66168808566E+02  0.00000000000E+00 0.  1.
</event>
<event>
 7    1  0.5970484E-006  0.2916342E+02  0.7818608E-02  0.1607650E+00
          2   -1    0    0  502    0  0.00000000000E+00  0.00000000000E+00  0.64490235605E+03  0.64490235605E+03  0.00000000000E+00 0. -1.
          1   -1    0    0  501    0 -0.00000000000E+00 -0.00000000000E+00 -0.17109992301E+03  0.17109992301E+03  0.00000000000E+00 0. -1.
         25    2    1    2    0    0  0.24201484792E+01  0.28741316175E+02  0.12899921687E+02  0.12892731521E+03  0.12499569694E+03 0.  0.
          2    1    1    2  501    0 -0.26500605308E+02 -0.12122125310E+02 -0.11082851891E+03  0.11459576173E+03  0.00000000000E+00 0. -1.
          1    1    1    2  502    0  0.24080456828E+02 -0.16619190866E+02  0.57173103026E+03  0.57247920213E+03  0.00000000000E+00 0. -1.
         22    1    3    3    0    0 -0.33563031302E+02  0.27707744073E+02  0.57181024750E+02  0.71860042745E+02  0.00000000000E+00 0.  1.
         22    1    3    3    0    0  0.35983179781E+02  0.10335721023E+01 -0.44281103063E+02  0.57067272468E+02  0.00000000000E+00 0.  1.
</event>
<event>
 7    1  0.5970484E-006  0.5306469E+02  0.7818608E-02  0.1507045E+00
          2   -1    0    0  502    0  0.00000000000E+00  0.00000000000E+00  0.92170384632E+03  0.92170384632E+03  0.00000000000E+00 0. -1.
          1   -1    0    0  501    0 -0.00000000000E+00 -0.00000000000E+00 -0.16196320125E+04  0.16196320125E+04  0.00000000000E+00 0. -1.
         25    2    1    2    0    0 -0.33367011780E+02  0.61065648619E+01 -0.10101063389E+03  0.16425174258E+03  0.12499935668E+03 0.  0.
          2    1    1    2  501    0 -0.16065450400E+02 -0.25798827727E+02 -0.14860500606E+04  0.14863608111E+04  0.00000000000E+00 0. -1.
          1    1    1    2  502    0  0.49432462180E+02  0.19692262865E+02  0.88913252827E+03  0.89072330517E+03  0.00000000000E+00 0. -1.
         22    1    3    3    0    0 -0.38128363368E+01  0.54392552333E+02 -0.91974721084E+02  0.10692257380E+03  0.00000000000E+00 0. -1.
         22    1    3    3    0    0 -0.29554175443E+02 -0.48285987471E+02 -0.90359128107E+01  0.57329168776E+02  0.00000000000E+00 0. -1.
</event>
<event>
 7    1  0.5970484E-006  0.4371572E+03  0.7818608E-02  0.1255711E+00
          2   -1    0    0  502    0  0.00000000000E+00  0.00000000000E+00  0.17417028754E+04  0.17417028754E+04  0.00000000000E+00 0. -1.
          1   -1    0    0  501    0 -0.00000000000E+00 -0.00000000000E+00 -0.37574173959E+03  0.37574173959E+03  0.00000000000E+00 0. -1.
         25    2    1    2    0    0 -0.40408865318E+03 -0.16142510453E+03  0.51953129196E+03  0.68911829748E+03  0.12500224236E+03 0.  0.
          2    1    1    2  501    0 -0.12951012505E+02  0.25988428562E+02 -0.24780842051E+03  0.24950378839E+03  0.00000000000E+00 0. -1.
          1    1    1    2  502    0  0.41703966569E+03  0.13543667597E+03  0.10942382644E+04  0.11788225291E+04  0.00000000000E+00 0. -1.
         22    1    3    3    0    0 -0.17328531825E+03 -0.64659937401E+02  0.31765897657E+03  0.36758119432E+03  0.00000000000E+00 0.  1.
         22    1    3    3    0    0 -0.23080333493E+03 -0.96765167131E+02  0.20187231539E+03  0.32153710316E+03  0.00000000000E+00 0.  1.
</event>
<event>
 7    1  0.6488260E-006  0.2054528E+03  0.7818608E-02  0.1340786E+00
          2   -1    0    0  502    0  0.00000000000E+00  0.00000000000E+00  0.19222720186E+04  0.19222720186E+04  0.00000000000E+00 0. -1.
          1   -1    0    0  501    0 -0.00000000000E+00 -0.00000000000E+00 -0.20713039782E+04  0.20713039782E+04  0.00000000000E+00 0. -1.
         25    2    1    2    0    0 -0.22412655510E+03 -0.51910661424E+01 -0.42840413845E+03  0.49941497456E+03  0.12500220439E+03 0.  0.
          2    1    1    2  501    0  0.19444340918E+02  0.20310310924E+02 -0.16016892396E+04  0.16019360197E+04  0.00000000000E+00 0. -1.
          1    1    1    2  502    0  0.20468221418E+03 -0.15119244781E+02  0.18810614184E+04  0.18922250025E+04  0.00000000000E+00 0. -1.
         22    1    3    3    0    0 -0.21398222875E+03 -0.42105482410E+02 -0.37286044370E+03  0.43195622040E+03  0.00000000000E+00 0.  1.
         22    1    3    3    0    0 -0.10144326350E+02  0.36914416268E+02 -0.55543694757E+02  0.67458754160E+02  0.00000000000E+00 0.  1.
</event>
<event>
 7    1  0.5970484E-006  0.1177632E+03  0.7818608E-02  0.1428703E+00
          2   -1    0    0  502    0  0.00000000000E+00  0.00000000000E+00  0.11336970950E+04  0.11336970950E+04  0.00000000000E+00 0. -1.
          1   -1    0    0  501    0 -0.00000000000E+00 -0.00000000000E+00 -0.36371787146E+03  0.36371787146E+03  0.00000000000E+00 0. -1.
         25    2    1    2    0    0 -0.40821625024E+02 -0.92820351108E+02  0.26405920328E+03  0.30925295119E+03  0.12501240871E+03 0.  0.
          2    1    1    2  501    0  0.63874108202E+02  0.99683814561E+02 -0.33067036861E+03  0.35122593478E+03  0.00000000000E+00 0. -1.
          1    1    1    2  502    0 -0.23052483179E+02 -0.68634634531E+01  0.83659038887E+03  0.83693608051E+03  0.00000000000E+00 0. -1.
         22    1    3    3    0    0 -0.48610196777E+02  0.12396670901E+02  0.12506920061E+03  0.13475508756E+03  0.00000000000E+00 0. -1.
         22    1    3    3    0    0  0.77885717533E+01 -0.10521702201E+03  0.13899000267E+03  0.17449786363E+03  0.00000000000E+00 0. -1.
</event>
<event>
 7    1  0.5970484E-006  0.1208208E+03  0.7818608E-02  0.1436829E+00
          2   -1    0    0  502    0  0.00000000000E+00  0.00000000000E+00  0.14051631832E+04  0.14051631832E+04  0.00000000000E+00 0. -1.
          1   -1    0    0  501    0 -0.00000000000E+00 -0.00000000000E+00 -0.20500233223E+03  0.20500233223E+03  0.00000000000E+00 0. -1.
         25    2    1    2    0    0 -0.88702487052E+02  0.10080401269E+03  0.28445991043E+03  0.33848590683E+03  0.12500275315E+03 0.  0.
          2    1    1    2  501    0  0.90500188761E+02 -0.78828796871E+02 -0.15763131692E+03  0.19812091121E+03  0.00000000000E+00 0. -1.
          1    1    1    2  502    0 -0.17977017089E+01 -0.21975215820E+02  0.10733322574E+04  0.10735586974E+04  0.00000000000E+00 0. -1.
         22    1    3    3    0    0 -0.47879476321E+01  0.58372487539E+02  0.21152426109E+03  0.21948299427E+03  0.00000000000E+00 0. -1.
         22    1    3    3    0    0 -0.83914539420E+02  0.42431525152E+02  0.72935649341E+02  0.11900291256E+03  0.00000000000E+00 0. -1.
</event>
<event>
 7    1  0.5970484E-006  0.9123549E+02  0.7818608E-02  0.1352674E+00
          2   -1    0    0  502    0  0.00000000000E+00  0.00000000000E+00  0.11847988233E+04  0.11847988233E+04  0.00000000000E+00 0. -1.
          1   -1    0    0  501    0 -0.00000000000E+00 -0.00000000000E+00 -0.87598757773E+03  0.87598757773E+03  0.00000000000E+00 0. -1.
         25    2    1    2    0    0 -0.11286841262E+03 -0.93236748894E+01 -0.94854826808E+02  0.19351435727E+03  0.12499663523E+03 0.  0.
          2    1    1    2  501    0  0.74574279984E+02  0.51788584283E+02 -0.72826239112E+03  0.73390019146E+03  0.00000000000E+00 0. -1.
          1    1    1    2  502    0  0.38294132631E+02 -0.42464909393E+02  0.11319284635E+04  0.11333718523E+04  0.00000000000E+00 0. -1.
         22    1    3    3    0    0 -0.90611325129E+02 -0.36663279985E+02 -0.11655486855E+03  0.15211721048E+03  0.00000000000E+00 0. -1.
         22    1    3    3    0    0 -0.22257087486E+02  0.27339605095E+02  0.21700041746E+02  0.41397146784E+02  0.00000000000E+00 0. -1.
</event>
<event>
 7    1  0.5970484E-006  0.2455984E+03  0.7818608E-02  0.1291680E+00
          2   -1    0    0  502    0  0.00000000000E+00  0.00000000000E+00  0.31549649358E+03  0.31549649358E+03  0.00000000000E+00 0. -1.
          1   -1    0    0  501    0 -0.00000000000E+00 -0.00000000000E+00 -0.62854957351E+03  0.62854957351E+03  0.00000000000E+00 0. -1.
         25    2    1    2    0    0 -0.15647840487E+03  0.21929038545E+03 -0.53656037425E+02  0.30178978162E+03  0.12499735036E+03 0.  0.
          2    1    1    2  501    0  0.30931806535E+02 -0.19516769025E+02 -0.37689883448E+03  0.37866926514E+03  0.00000000000E+00 0. -1.
          1    1    1    2  502    0  0.12554659834E+03 -0.19977361642E+03  0.11750179198E+03  0.26358702033E+03  0.00000000000E+00 0. -1.
         22    1    3    3    0    0 -0.15564928468E+03  0.17034578829E+03 -0.21848633798E+01  0.23075779735E+03  0.00000000000E+00 0. -1.
         22    1    3    3    0    0 -0.82912018806E+00  0.48944597151E+02 -0.51471174045E+02  0.71031984262E+02  0.00000000000E+00 0. -1.
</event>
<event>
 7    1  0.5970484E-006  0.5837229E+02  0.7818608E-02  0.1444901E+00
          2   -1    0    0  502    0  0.00000000000E+00  0.00000000000E+00  0.57560969896E+03  0.57560969896E+03  0.00000000000E+00 0. -1.
          1   -1    0    0  501    0 -0.00000000000E+00 -0.00000000000E+00 -0.27223096985E+03  0.27223096985E+03  0.00000000000E+00 0. -1.
         25    2    1    2    0    0 -0.24532629911E+02  0.73215917752E+02  0.59967829195E+01  0.14705282703E+03  0.12500460787E+03 0.  0.
          2    1    1    2  501    0 -0.14861619637E+02 -0.56057330447E+02 -0.19658228096E+03  0.20495825239E+03  0.00000000000E+00 0. -1.
          1    1    1    2  502    0  0.39394249548E+02 -0.17158587305E+02  0.49396422715E+03  0.49582958939E+03  0.00000000000E+00 0. -1.
         22    1    3    3    0    0  0.48456438701E+02  0.15060607425E+02 -0.11678080257E+02  0.52069433510E+02  0.00000000000E+00 0. -1.
         22    1    3    3    0    0 -0.72989068612E+02  0.58155310327E+02  0.17674863177E+02  0.94983393519E+02  0.00000000000E+00 0. -1.
</event>
<event>
 7    1  0.5970484E-006  0.7095993E+02  0.7818608E-02  0.1359348E+00
          2   -1    0    0  502    0  0.00000000000E+00  0.00000000000E+00  0.13713020409E+04  0.13713020409E+04  0.00000000000E+00 0. -1.
          1   -1    0    0  501    0 -0.00000000000E+00 -0.00000000000E+00 -0.23832806094E+02  0.23832806094E+02  0.00000000000E+00 0. -1.
         25    2    1    2    0    0  0.79764270470E+01 -0.20574322921E+02  0.48291677235E+03  0.49931863410E+03  0.12499425263E+03 0.  0.
          2    1    1    2  501    0  0.70008793171E+02 -0.11579291130E+02  0.80793427661E+02  0.10753087490E+03  0.00000000000E+00 0. -1.
          1    1    1    2  502    0 -0.77985220218E+02  0.32153614052E+02  0.78375903476E+03  0.78828533796E+03  0.00000000000E+00 0. -1.
         22    1    3    3    0    0  0.51285139704E+02 -0.27938399594E+02  0.41039068306E+03  0.41452530981E+03  0.00000000000E+00 0.  1.
         22    1    3    3    0    0 -0.43308712656E+02  0.73640766724E+01  0.72526089293E+02  0.84793324297E+02  0.00000000000E+00 0.  1.
</event>
<event>
 7    1  0.5970484E-006  0.5849743E+02  0.7818608E-02  0.1440609E+00
          2   -1    0    0  502    0  0.00000000000E+00  0.00000000000E+00  0.30228868394E+03  0.30228868394E+03  0.00000000000E+00 0. -1.
          1   -1    0    0  501    0 -0.00000000000E+00 -0.00000000000E+00 -0.60161983381E+03  0.60161983381E+03  0.00000000000E+00 0. -1.
         25    2    1    2    0    0 -0.93554494826E+02  0.28335630149E+02 -0.28808539318E+03  0.32890456162E+03  0.12501866043E+03 0.  0.
          2    1    1    2  501    0  0.52373795470E+02 -0.12091727307E+02 -0.28889236666E+03  0.29385034258E+03  0.00000000000E+00 0. -1.
          1    1    1    2  502    0  0.41180699357E+02 -0.16243902843E+02  0.27764660997E+03  0.28115361354E+03  0.00000000000E+00 0. -1.
         22    1    3    3    0    0  0.30891502621E+02  0.11392580635E+02 -0.53696117683E+02  0.62986894526E+02  0.00000000000E+00 0.  1.
         22    1    3    3    0    0 -0.12444599745E+03  0.16943049514E+02 -0.23438927549E+03  0.26591766709E+03  0.00000000000E+00 0.  1.
</event>
<event>
 7    1  0.5970484E-006  0.7101895E+02  0.7818608E-02  0.1441417E+00
          2   -1    0    0  502    0  0.00000000000E+00  0.00000000000E+00  0.17320722164E+03  0.17320722164E+03  0.00000000000E+00 0. -1.
          1   -1    0    0  501    0 -0.00000000000E+00 -0.00000000000E+00 -0.18296509003E+04  0.18296509003E+04  0.00000000000E+00 0. -1.
         25    2    1    2    0    0  0.17347053602E+02 -0.10313658818E+03 -0.25588274989E+03  0.30337928621E+03  0.12499973408E+03 0.  0.
          2    1    1    2  501    0  0.30516516118E+01  0.36115641011E+02 -0.15415856902E+04  0.15420117030E+04  0.00000000000E+00 0. -1.
          1    1    1    2  502    0 -0.20398705214E+02  0.67020947172E+02  0.14102476144E+03  0.15746713268E+03  0.00000000000E+00 0. -1.
         22    1    3    3    0    0  0.28799892774E+02  0.22159070965E+02 -0.45310578473E+02  0.58081897106E+02  0.00000000000E+00 0. -1.
         22    1    3    3    0    0 -0.11452839172E+02 -0.12529565915E+03 -0.21057217142E+03  0.24529738911E+03  0.00000000000E+00 0. -1.
</event>
<event>
 7    1  0.5970484E-006  0.1769183E+03  0.7818608E-02  0.1240557E+00
          2   -1    0    0  502    0  0.00000000000E+00  0.00000000000E+00  0.21789797454E+04  0.21789797454E+04  0.00000000000E+00 0. -1.
          1   -1    0    0  501    0 -0.00000000000E+00 -0.00000000000E+00 -0.31493093922E+03  0.31493093922E+03  0.00000000000E+00 0. -1.
         25    2    1    2    0    0 -0.16700399186E+03  0.12893087132E+03  0.74064375482E+03  0.78018707514E+03  0.12500079108E+03 0.  0.
          2    1    1    2  501    0  0.20194010646E+01 -0.83489184122E+02 -0.28396329582E+03  0.29598931605E+03  0.00000000000E+00 0. -1.
          1    1    1    2  502    0  0.16498459080E+03 -0.45441687201E+02  0.14073683472E+04  0.14177342935E+04  0.00000000000E+00 0. -1.
         22    1    3    3    0    0 -0.79277224187E+02  0.12418540157E+03  0.56366025712E+03  0.58259744052E+03  0.00000000000E+00 0. -1.
         22    1    3    3    0    0 -0.87726767675E+02  0.47454697514E+01  0.17698349770E+03  0.19758963462E+03  0.00000000000E+00 0. -1.
</event>
<event>
 7    1  0.5970484E-006  0.8995370E+02  0.7818608E-02  0.1368584E+00
          2   -1    0    0  502    0  0.00000000000E+00  0.00000000000E+00  0.55838864319E+03  0.55838864319E+03  0.00000000000E+00 0. -1.
          1   -1    0    0  501    0 -0.00000000000E+00 -0.00000000000E+00 -0.18336393153E+03  0.18336393153E+03  0.00000000000E+00 0. -1.
         25    2    1    2    0    0  0.15110750093E+02 -0.73038032418E+02  0.32463304967E+03  0.35577305892E+03  0.12499985427E+03 0.  0.
          2    1    1    2  501    0  0.34384445205E+02  0.84228927178E+02 -0.15209686333E+03  0.17722939395E+03  0.00000000000E+00 0. -1.
          1    1    1    2  502    0 -0.49495195298E+02 -0.11190894760E+02  0.20248852532E+03  0.20875012185E+03  0.00000000000E+00 0. -1.
         22    1    3    3    0    0 -0.82485744837E+01 -0.93612199643E+02  0.14052417334E+03  0.16905125316E+03  0.00000000000E+00 0. -1.
         22    1    3    3    0    0  0.23359324576E+02  0.20574167225E+02  0.18410887633E+03  0.18672180576E+03  0.00000000000E+00 0. -1.
</event>
<event>
 7    1  0.5970484E-006  0.9856921E+02  0.7818608E-02  0.1351059E+00
          2   -1    0    0  502    0  0.00000000000E+00  0.00000000000E+00  0.34458837560E+04  0.34458837560E+04  0.00000000000E+00 0. -1.
          1   -1    0    0  501    0 -0.00000000000E+00 -0.00000000000E+00 -0.26669252563E+03  0.26669252563E+03  0.00000000000E+00 0. -1.
         25    2    1    2    0    0 -0.85348674144E+02  0.14489517762E+02  0.49368024258E+03  0.51656480452E+03  0.12499869216E+03 0.  0.
          2    1    1    2  501    0  0.91115262230E+02  0.38858897022E+02 -0.24538522908E+03  0.26462410234E+03  0.00000000000E+00 0. -1.
          1    1    1    2  502    0 -0.57665880864E+01 -0.53348414784E+02  0.29308962169E+04  0.29313873748E+04  0.00000000000E+00 0. -1.
         22    1    3    3    0    0 -0.99559371858E+00  0.10983760453E+02  0.34810509576E+03  0.34827976096E+03  0.00000000000E+00 0.  1.
         22    1    3    3    0    0 -0.84353080425E+02  0.35057573083E+01  0.14557514683E+03  0.16828504356E+03  0.00000000000E+00 0.  1.
</event>
<event>
 7    1  0.5970484E-006  0.9362682E+02  0.7818608E-02  0.1428258E+00
          2   -1    0    0  502    0  0.00000000000E+00  0.00000000000E+00  0.45038040152E+04  0.45038040152E+04  0.00000000000E+00 0. -1.
          1   -1    0    0  501    0 -0.00000000000E+00 -0.00000000000E+00 -0.51550226974E+01  0.51550226974E+01  0.00000000000E+00 0. -1.
         25    2    1    2    0    0 -0.72802787967E+02 -0.20143404044E+02  0.18492026635E+04  0.18549576747E+04  0.12494591429E+03 0.  0.
          2    1    1    2  501    0 -0.27418369807E+02  0.13026768321E+02  0.18230289907E+03  0.18481290730E+03  0.00000000000E+00 0. -1.
          1    1    1    2  502    0  0.10022115777E+03  0.71166357231E+01  0.24671434299E+04  0.24691884559E+04  0.00000000000E+00 0. -1.
         22    1    3    3    0    0 -0.79464752595E+02 -0.60396682536E+02  0.15129245613E+04  0.15162134198E+04  0.00000000000E+00 0. -1.
         22    1    3    3    0    0  0.66619646284E+01  0.40253278492E+02  0.33627810222E+03  0.33874425491E+03  0.00000000000E+00 0. -1.
</event>
<event>
 7    1  0.5970484E-006  0.1294394E+03  0.7818608E-02  0.1244598E+00
          2   -1    0    0  502    0  0.00000000000E+00  0.00000000000E+00  0.11594343009E+04  0.11594343009E+04  0.00000000000E+00 0. -1.
          1   -1    0    0  501    0 -0.00000000000E+00 -0.00000000000E+00 -0.83250624536E+02  0.83250624536E+02  0.00000000000E+00 0. -1.
         25    2    1    2    0    0  0.87730017120E+02  0.14546386813E+03  0.30433234900E+03  0.37026754943E+03  0.12499434659E+03 0.  0.
          2    1    1    2  501    0 -0.10795546473E+03 -0.18781448996E+02  0.22117150571E+02  0.11178682186E+03  0.00000000000E+00 0. -1.
          1    1    1    2  502    0  0.20225447609E+02 -0.12668241914E+03  0.74973417682E+03  0.76063055417E+03  0.00000000000E+00 0. -1.
         22    1    3    3    0    0  0.67529963916E+02  0.15743589216E+03  0.30129504775E+03  0.34659062590E+03  0.00000000000E+00 0.  1.
         22    1    3    3    0    0  0.20200053204E+02 -0.11972024031E+02  0.30373012513E+01  0.23676923528E+02  0.00000000000E+00 0.  1.
</event>
<event>
 7    1  0.5970484E-006  0.1194284E+03  0.7818608E-02  0.1358731E+00
          2   -1    0    0  502    0  0.00000000000E+00  0.00000000000E+00  0.11960257528E+04  0.11960257528E+04  0.00000000000E+00 0. -1.
          1   -1    0    0  501    0 -0.00000000000E+00 -0.00000000000E+00 -0.94007672589E+02  0.94007672589E+02  0.00000000000E+00 0. -1.
         25    2    1    2    0    0 -0.12296784564E+03 -0.86862289263E+02  0.17200681990E+03  0.26053223338E+03  0.12499820070E+03 0.  0.
          2    1    1    2  501    0  0.84428860209E+02  0.71464001054E+02  0.12800098049E+02  0.11135159807E+03  0.00000000000E+00 0. -1.
          1    1    1    2  502    0  0.38538985435E+02  0.15398288209E+02  0.91721116230E+03  0.91814959398E+03  0.00000000000E+00 0. -1.
         22    1    3    3    0    0 -0.12136932129E+03 -0.22176743304E+02  0.76501073922E+02  0.14517139665E+03  0.00000000000E+00 0. -1.
         22    1    3    3    0    0 -0.15985243578E+01 -0.64685545959E+02  0.95505745980E+02  0.11536083673E+03  0.00000000000E+00 0. -1.
</event>
<event>
 7    1  0.5970484E-006  0.7039774E+02  0.7818608E-02  0.1374409E+00
          2   -1    0    0  502    0  0.00000000000E+00  0.00000000000E+00  0.22697082537E+04  0.22697082537E+04  0.00000000000E+00 0. -1.
          1   -1    0    0  501    0 -0.00000000000E+00 -0.00000000000E+00 -0.30348662945E+03  0.30348662945E+03  0.00000000000E+00 0. -1.
         25    2    1    2    0    0  0.21960745544E+02  0.12950959060E+02 -0.10400675254E+03  0.16459490335E+03  0.12499630375E+03 0.  0.
          2    1    1    2  501    0 -0.70098641274E+02 -0.51699356215E+02 -0.15751836428E+03  0.17999632781E+03  0.00000000000E+00 0. -1.
          1    1    1    2  502    0  0.48137895730E+02  0.38748397155E+02  0.22277467411E+04  0.22286036520E+04  0.00000000000E+00 0. -1.
         22    1    3    3    0    0  0.11785197556E+02 -0.58726429365E+01 -0.13014819908E+03  0.13081258556E+03  0.00000000000E+00 0.  1.
         22    1    3    3    0    0  0.10175547987E+02  0.18823601997E+02  0.26141446534E+02  0.33782317799E+02  0.00000000000E+00 0.  1.
</event>
<event>
 7    1  0.5970484E-006  0.5032215E+02  0.7818608E-02  0.1470844E+00
          2   -1    0    0  502    0  0.00000000000E+00  0.00000000000E+00  0.18458312353E+04  0.18458312353E+04  0.00000000000E+00 0. -1.
          1   -1    0    0  501    0 -0.00000000000E+00 -0.00000000000E+00 -0.10000710453E+02  0.10000710453E+02  0.00000000000E+00 0. -1.
         25    2    1    2    0    0 -0.17373946477E+02  0.12922846728E+02  0.10935500748E+04  0.11008885914E+04  0.12504027575E+03 0.  0.
          2    1    1    2  501    0  0.54094032143E+02  0.58881345643E+01  0.12554912905E+03  0.13683354212E+03  0.00000000000E+00 0. -1.
          1    1    1    2  502    0 -0.36720085666E+02 -0.18810981292E+02  0.61673132096E+03  0.61810981222E+03  0.00000000000E+00 0. -1.
         22    1    3    3    0    0 -0.15905291467E+01  0.13240630162E+02  0.10800054207E+04  0.10800877524E+04  0.00000000000E+00 0. -1.
         22    1    3    3    0    0 -0.15783417330E+02 -0.31778343476E+00  0.13544654085E+02  0.20800839003E+02  0.00000000000E+00 0. -1.
</event>
<event>
 7    1  0.5970484E-006  0.1521594E+03  0.7818608E-02  0.1299656E+00
          2   -1    0    0  502    0  0.00000000000E+00  0.00000000000E+00  0.14350827355E+04  0.14350827355E+04  0.00000000000E+00 0. -1.
          1   -1    0    0  501    0 -0.00000000000E+00 -0.00000000000E+00 -0.23928505651E+03  0.23928505651E+03  0.00000000000E+00 0. -1.
         25    2    1    2    0    0 -0.11669592636E+02 -0.10768615066E+03  0.16583234563E+03  0.23421527241E+03  0.12499576207E+03 0.  0.
          2    1    1    2  501    0  0.41648261896E+02  0.15358534332E+03 -0.17350772621E+03  0.23543144747E+03  0.00000000000E+00 0. -1.
          1    1    1    2  502    0 -0.29978669260E+02 -0.45899192653E+02  0.12034730596E+04  0.12047210721E+04  0.00000000000E+00 0. -1.
         22    1    3    3    0    0 -0.40310888795E+02 -0.67962011055E+01  0.10568374886E+03  0.11331465430E+03  0.00000000000E+00 0. -1.
         22    1    3    3    0    0  0.28641296159E+02 -0.10088994956E+03  0.60148596774E+02  0.12090061812E+03  0.00000000000E+00 0. -1.
</event>
<event>
 7    1  0.5970484E-006  0.1326187E+03  0.7818608E-02  0.1403699E+00
          2   -1    0    0  502    0  0.00000000000E+00  0.00000000000E+00  0.18044261339E+04  0.18044261339E+04  0.00000000000E+00 0. -1.
          1   -1    0    0  501    0 -0.00000000000E+00 -0.00000000000E+00 -0.53416706642E+03  0.53416706642E+03  0.00000000000E+00 0. -1.
         25    2    1    2    0    0  0.72097058679E+02  0.12109873747E+03  0.51353913233E+03  0.54700155568E+03  0.12500148558E+03 0.  0.
          2    1    1    2  501    0 -0.46362407922E+02 -0.12414674950E+03 -0.50881597344E+03  0.52579043649E+03  0.00000000000E+00 0. -1.
          1    1    1    2  502    0 -0.25734650757E+02  0.30480120291E+01  0.12655359086E+04  0.12658012081E+04  0.00000000000E+00 0. -1.
         22    1    3    3    0    0  0.32809412391E+02  0.11372338139E+03  0.48132034517E+03  0.49565990325E+03  0.00000000000E+00 0. -1.
         22    1    3    3    0    0  0.39287646288E+02  0.73753560742E+01  0.32218787162E+02  0.51341652430E+02  0.00000000000E+00 0. -1.
</event>
<event>
 7    1  0.5970484E-006  0.5541757E+02  0.7818608E-02  0.1458811E+00
          2   -1    0    0  502    0  0.00000000000E+00  0.00000000000E+00  0.90325086363E+03  0.90325086363E+03  0.00000000000E+00 0. -1.
          1   -1    0    0  501    0 -0.00000000000E+00 -0.00000000000E+00 -0.83563230526E+03  0.83563230526E+03  0.00000000000E+00 0. -1.
         25    2    1    2    0    0 -0.29746190044E+02  0.40684007361E+02 -0.50045635061E+02  0.14377045082E+03  0.12500141064E+03 0.  0.
          2    1    1    2  501    0  0.38294907614E+02  0.14255888571E+02 -0.73725542799E+03  0.73838695575E+03  0.00000000000E+00 0. -1.
          1    1    1    2  502    0 -0.85487175696E+01 -0.54939895932E+02  0.85491962142E+03  0.85672576232E+03  0.00000000000E+00 0. -1.
         22    1    3    3    0    0 -0.15362071984E+02  0.78329443246E+02 -0.39441652051E+00  0.79822618970E+02  0.00000000000E+00 0. -1.
         22    1    3    3    0    0 -0.14384118060E+02 -0.37645435884E+02 -0.49651218541E+02  0.63947831847E+02  0.00000000000E+00 0. -1.
</event>
<event>
 7    1  0.5970484E-006  0.3228187E+02  0.7818608E-02  0.1604821E+00
          2   -1    0    0  502    0  0.00000000000E+00  0.00000000000E+00  0.10432287527E+04  0.10432287527E+04  0.00000000000E+00 0. -1.
          1   -1    0    0  501    0 -0.00000000000E+00 -0.00000000000E+00 -0.10893714439E+04  0.10893714439E+04  0.00000000000E+00 0. -1.
         25    2    1    2    0    0 -0.18574710044E+02  0.48496857772E+02  0.69601377873E+02  0.15220655487E+03  0.12500207389E+03 0.  0.
          2    1    1    2  501    0 -0.26247086307E+01 -0.32142306746E+02 -0.10476284484E+04  0.10481246982E+04  0.00000000000E+00 0. -1.
          1    1    1    2  502    0  0.21199418675E+02 -0.16354551026E+02  0.93188437932E+03  0.93226894356E+03  0.00000000000E+00 0. -1.
         22    1    3    3    0    0  0.48323924634E+02  0.43383012837E+02  0.17495795004E+02  0.67256154646E+02  0.00000000000E+00 0.  1.
         22    1    3    3    0    0 -0.66898634678E+02  0.51138449347E+01  0.52105582869E+02  0.84950400222E+02  0.00000000000E+00 0.  1.
</event>
<event>
 7    1  0.5970484E-006  0.8659831E+02  0.7818608E-02  0.1323548E+00
          2   -1    0    0  502    0  0.00000000000E+00  0.00000000000E+00  0.45744031550E+03  0.45744031550E+03  0.00000000000E+00 0. -1.
          1   -1    0    0  501    0 -0.00000000000E+00 -0.00000000000E+00 -0.69164209435E+03  0.69164209435E+03  0.00000000000E+00 0. -1.
         25    2    1    2    0    0 -0.11155626922E+03 -0.10643888579E+02 -0.42655400966E+03  0.45840112210E+03  0.12500068808E+03 0.  0.
          2    1    1    2  501    0  0.43487340756E+02  0.64260043855E+02 -0.23870615685E+03  0.25100026167E+03  0.00000000000E+00 0. -1.
          1    1    1    2  502    0  0.68068928465E+02 -0.53616155275E+02  0.43105838766E+03  0.43968102608E+03  0.00000000000E+00 0. -1.
         22    1    3    3    0    0 -0.17180045798E+02 -0.52349211135E+02 -0.22888628584E+03  0.23542414007E+03  0.00000000000E+00 0.  1.
         22    1    3    3    0    0 -0.94376223423E+02  0.41705322555E+02 -0.19766772381E+03  0.22297698203E+03  0.00000000000E+00 0.  1.
</event>
<event>
 7    1  0.5970484E-006  0.1081957E+03  0.7818608E-02  0.1336781E+00
          2   -1    0    0  502    0  0.00000000000E+00  0.00000000000E+00  0.82201762696E+03  0.82201762696E+03  0.00000000000E+00 0. -1.
          1   -1    0    0  501    0 -0.00000000000E+00 -0.00000000000E+00 -0.50530203091E+03  0.50530203091E+03  0.00000000000E+00 0. -1.
         25    2    1    2    0    0 -0.26998190805E+02 -0.74537980928E+02  0.99643990151E+02  0.17842488958E+03  0.12498681346E+03 0.  0.
          2    1    1    2  501    0  0.82257470369E+02  0.73009286204E+02 -0.45827560658E+03  0.47128884868E+03  0.00000000000E+00 0. -1.
          1    1    1    2  502    0 -0.55259279564E+02  0.15286947237E+01  0.67534721249E+03  0.67760591961E+03  0.00000000000E+00 0. -1.
         22    1    3    3    0    0  0.26636093736E+02 -0.49630159912E+02  0.10489000938E+03  0.11905691215E+03  0.00000000000E+00 0.  1.
         22    1    3    3    0    0 -0.53634284542E+02 -0.24907821016E+02 -0.52460192316E+01  0.59367977427E+02  0.00000000000E+00 0.  1.
</event>
<event>
 7    1  0.5970484E-006  0.3840024E+02  0.7818608E-02  0.1526381E+00
          2   -1    0    0  502    0  0.00000000000E+00  0.00000000000E+00  0.47073535440E+03  0.47073535440E+03  0.00000000000E+00 0. -1.
          1   -1    0    0  501    0 -0.00000000000E+00 -0.00000000000E+00 -0.12460049761E+03  0.12460049761E+03  0.00000000000E+00 0. -1.
         25    2    1    2    0    0 -0.76278210125E+01  0.18440762596E+01  0.21795329983E+03  0.25137676860E+03  0.12500021845E+03 0.  0.
          2    1    1    2  501    0 -0.28729889447E+02 -0.23129110988E+02 -0.10277428169E+03  0.10919210273E+03  0.00000000000E+00 0. -1.
          1    1    1    2  502    0  0.36357710459E+02  0.21285034729E+02  0.23095583864E+03  0.23476698068E+03  0.00000000000E+00 0. -1.
         22    1    3    3    0    0  0.50993988517E+02 -0.23768677820E+02  0.13766905320E+03  0.14872156911E+03  0.00000000000E+00 0. -1.
         22    1    3    3    0    0 -0.58621809529E+02  0.25612754079E+02  0.80284246630E+02  0.10265519948E+03  0.00000000000E+00 0. -1.
</event>
<event>
 7    1  0.5970484E-006  0.1297821E+03  0.7818608E-02  0.1375266E+00
          2   -1    0    0  502    0  0.00000000000E+00  0.00000000000E+00  0.99011096950E+03  0.99011096950E+03  0.00000000000E+00 0. -1.
          1   -1    0    0  501    0 -0.00000000000E+00 -0.00000000000E+00 -0.58949527825E+03  0.58949527825E+03  0.00000000000E+00 0. -1.
         25    2    1    2    0    0 -0.16049155350E+03  0.36495647254E+01  0.98032132331E+00  0.20346820757E+03  0.12500996918E+03 0.  0.
          2    1    1    2  501    0  0.12727700353E+03 -0.14916130739E+01 -0.47963534104E+03  0.49623756499E+03  0.00000000000E+00 0. -1.
          1    1    1    2  502    0  0.33214549971E+02 -0.21579516515E+01  0.87927071096E+03  0.87990047519E+03  0.00000000000E+00 0. -1.
         22    1    3    3    0    0 -0.11213852139E+03  0.59190820789E+02  0.17485123330E+02  0.12800129211E+03  0.00000000000E+00 0.  1.
         22    1    3    3    0    0 -0.48353032114E+02 -0.55541256063E+02 -0.16504802007E+02  0.75466915460E+02  0.00000000000E+00 0.  1.
</event>
<event>
 7    1  0.5970484E-006  0.8354666E+02  0.7818608E-02  0.1443531E+00
          2   -1    0    0  502    0  0.00000000000E+00  0.00000000000E+00  0.17580154777E+04  0.17580154777E+04  0.00000000000E+00 0. -1.
          1   -1    0    0  501    0 -0.00000000000E+00 -0.00000000000E+00 -0.75778162242E+03  0.75778162242E+03  0.00000000000E+00 0. -1.
         25    2    1    2    0    0 -0.53960316299E+02 -0.16168395717E+02 -0.49793521821E+02  0.14586596749E+03  0.12499741158E+03 0.  0.
          2    1    1    2  501    0  0.77436523009E+02  0.35369321520E+02 -0.65707119560E+03  0.66256317442E+03  0.00000000000E+00 0. -1.
          1    1    1    2  502    0 -0.23476206709E+02 -0.19200925803E+02  0.17070985727E+04  0.17073679582E+04  0.00000000000E+00 0. -1.
         22    1    3    3    0    0 -0.78095909052E+02 -0.16764090715E+02 -0.75985529434E+02  0.11024430340E+03  0.00000000000E+00 0.  1.
         22    1    3    3    0    0  0.24135592752E+02  0.59569499774E+00  0.26192007613E+02  0.35621664094E+02  0.00000000000E+00 0.  1.
</event>
<event>
 7    1  0.5970484E-006  0.3343220E+02  0.7818608E-02  0.1563391E+00
          2   -1    0    0  502    0  0.00000000000E+00  0.00000000000E+00  0.28377103667E+03  0.28377103667E+03  0.00000000000E+00 0. -1.
          1   -1    0    0  501    0 -0.00000000000E+00 -0.00000000000E+00 -0.38920914960E+03  0.38920914960E+03  0.00000000000E+00 0. -1.
         25    2    1    2    0    0  0.13788831665E+02 -0.17089686304E+02 -0.14295015427E+03  0.19117846889E+03  0.12502908104E+03 0.  0.
          2    1    1    2  501    0 -0.33250811416E+02 -0.10093824839E+02 -0.21969744245E+03  0.22242856826E+03  0.00000000000E+00 0. -1.
          1    1    1    2  502    0  0.19461979751E+02  0.27183511144E+02  0.25720948379E+03  0.25937314912E+03  0.00000000000E+00 0. -1.
         22    1    3    3    0    0 -0.23442500351E+02  0.39556903515E+02 -0.18696977685E+02  0.49637449703E+02  0.00000000000E+00 0. -1.
         22    1    3    3    0    0  0.37231332016E+02 -0.56646589819E+02 -0.12425317658E+03  0.14154101919E+03  0.00000000000E+00 0. -1.
</event>
<event>
 7    1  0.5970484E-006  0.1418423E+03  0.7818608E-02  0.1344691E+00
          2   -1    0    0  502    0  0.00000000000E+00  0.00000000000E+00  0.15508187181E+03  0.15508187181E+03  0.00000000000E+00 0. -1.
          1   -1    0    0  501    0 -0.00000000000E+00 -0.00000000000E+00 -0.28479952514E+04  0.28479952514E+04  0.00000000000E+00 0. -1.
         25    2    1    2    0    0 -0.11514287129E+03 -0.47422287608E+00 -0.42771785156E+03  0.46024448018E+03  0.12499726113E+03 0.  0.
          2    1    1    2  501    0 -0.26225553319E+02  0.29374153803E+02 -0.23663105614E+04  0.23666381839E+04  0.00000000000E+00 0. -1.
          1    1    1    2  502    0  0.14136842461E+03 -0.28899930927E+02  0.10111503331E+03  0.17619445918E+03  0.00000000000E+00 0. -1.
         22    1    3    3    0    0 -0.12240226467E+03  0.21088909034E+02 -0.23152976776E+03  0.26274148862E+03  0.00000000000E+00 0.  1.
         22    1    3    3    0    0  0.72593933748E+01 -0.21563131910E+02 -0.19618808380E+03  0.19750299156E+03  0.00000000000E+00 0.  1.
</event>
<event>
 7    1  0.5970484E-006  0.9928384E+02  0.7818608E-02  0.1356943E+00
          2   -1    0    0  502    0  0.00000000000E+00  0.00000000000E+00  0.40095093215E+03  0.40095093215E+03  0.00000000000E+00 0. -1.
          1   -1    0    0  501    0 -0.00000000000E+00 -0.00000000000E+00 -0.10154168688E+03  0.10154168688E+03  0.00000000000E+00 0. -1.
         25    2    1    2    0    0  0.47066952189E+02  0.62598265203E+02  0.12580805545E+03  0.19387274317E+03  0.12500053173E+03 0.  0.
          2    1    1    2  501    0  0.49502498851E+02 -0.10862998254E+02 -0.42625837991E+02  0.66222837360E+02  0.00000000000E+00 0. -1.
          1    1    1    2  502    0 -0.96569451040E+02 -0.51735266949E+02  0.21622702780E+03  0.24239703850E+03  0.00000000000E+00 0. -1.
         22    1    3    3    0    0 -0.21626499537E+02  0.74688329147E+02  0.65641818759E+02  0.10175903087E+03  0.00000000000E+00 0. -1.
         22    1    3    3    0    0  0.68693451726E+02 -0.12090063944E+02  0.60166236692E+02  0.92113712301E+02  0.00000000000E+00 0. -1.
</event>
<event>
 7    1  0.6780561E-006  0.1173124E+03  0.7818608E-02  0.1312839E+00
          2   -1    0    0  502    0  0.00000000000E+00  0.00000000000E+00  0.26672546523E+04  0.26672546523E+04  0.00000000000E+00 0. -1.
          1   -1    0    0  501    0 -0.00000000000E+00 -0.00000000000E+00 -0.19030845006E+04  0.19030845006E+04  0.00000000000E+00 0. -1.
         25    2    1    2    0    0  0.16038443303E+03  0.68571295768E+02 -0.44824078106E+03  0.49696094975E+03  0.12500079521E+03 0.  0.
          2    1    1    2  501    0 -0.10605567035E+03 -0.36586998095E+02 -0.14279070939E+04  0.14323076074E+04  0.00000000000E+00 0. -1.
          1    1    1    2  502    0 -0.54328762679E+02 -0.31984297673E+02  0.26403180266E+04  0.26410705957E+04  0.00000000000E+00 0. -1.
         22    1    3    3    0    0  0.75459525989E+01 -0.21789836855E+02 -0.13451427062E+03  0.13647647193E+03  0.00000000000E+00 0. -1.
         22    1    3    3    0    0  0.15283848043E+03  0.90361132623E+02 -0.31372651045E+03  0.36048447782E+03  0.00000000000E+00 0. -1.
</event>
<event>
 7    1  0.5970484E-006  0.1509848E+03  0.7818608E-02  0.1282059E+00
          2   -1    0    0  502    0  0.00000000000E+00  0.00000000000E+00  0.75078720808E+03  0.75078720808E+03  0.00000000000E+00 0. -1.
          1   -1    0    0  501    0 -0.00000000000E+00 -0.00000000000E+00 -0.20426275033E+03  0.20426275033E+03  0.00000000000E+00 0. -1.
         25    2    1    2    0    0 -0.78079720303E+02  0.14569293421E+03  0.28774173869E+03  0.35460314950E+03  0.12500084658E+03 0.  0.
          2    1    1    2  501    0 -0.38352496537E+02 -0.52643158328E+02 -0.15097418484E+03  0.16442451337E+03  0.00000000000E+00 0. -1.
          1    1    1    2  502    0  0.11643221684E+03 -0.93049775884E+02  0.40975690390E+03  0.43602229553E+03  0.00000000000E+00 0. -1.
         22    1    3    3    0    0 -0.11017277745E+03  0.12554095406E+03  0.25318693812E+03  0.30331864050E+03  0.00000000000E+00 0.  1.
         22    1    3    3    0    0  0.32093057146E+02  0.20151980148E+02  0.34554800571E+02  0.51284509000E+02  0.00000000000E+00 0.  1.
</event>
<event>
 7    1  0.5970484E-006  0.1272761E+03  0.7818608E-02  0.1375016E+00
          2   -1    0    0  502    0  0.00000000000E+00  0.00000000000E+00  0.88916205617E+03  0.88916205617E+03  0.00000000000E+00 0. -1.
          1   -1    0    0  501    0 -0.00000000000E+00 -0.00000000000E+00 -0.52415414586E+03  0.52415414586E+03  0.00000000000E+00 0. -1.
         25    2    1    2    0    0  0.13345812868E+03 -0.36446837747E+01 -0.22161210060E+01  0.18290361341E+03  0.12499785909E+03 0.  0.
          2    1    1    2  501    0 -0.12193825546E+03  0.35643989404E+02 -0.42187132650E+03  0.44058466637E+03  0.00000000000E+00 0. -1.
          1    1    1    2  502    0 -0.11519873226E+02 -0.31999305630E+02  0.78909535781E+03  0.78982792225E+03  0.00000000000E+00 0. -1.
         22    1    3    3    0    0 -0.15113228317E+02 -0.26095575521E+02 -0.11700707203E+02  0.32346487923E+02  0.00000000000E+00 0.  1.
         22    1    3    3    0    0  0.14857135700E+03  0.22450891746E+02  0.94845861967E+01  0.15055712549E+03  0.00000000000E+00 0.  1.
</event>
<event>
 7    1  0.5970484E-006  0.1402357E+03  0.7818608E-02  0.1346407E+00
          2   -1    0    0  502    0  0.00000000000E+00  0.00000000000E+00  0.35122223359E+03  0.35122223359E+03  0.00000000000E+00 0. -1.
          1   -1    0    0  501    0 -0.00000000000E+00 -0.00000000000E+00 -0.92494033889E+03  0.92494033889E+03  0.00000000000E+00 0. -1.
         25    2    1    2    0    0 -0.73884140040E+02  0.73887807939E+02  0.80620028445E+02  0.18177370341E+03  0.12499526372E+03 0.  0.
          2    1    1    2  501    0  0.10973875950E+03 -0.89847361954E+02 -0.86680311917E+03  0.87832954589E+03  0.00000000000E+00 0. -1.
          1    1    1    2  502    0 -0.35854619465E+02  0.15959554015E+02  0.21246498542E+03  0.21605932318E+03  0.00000000000E+00 0. -1.
         22    1    3    3    0    0 -0.45935579288E+02  0.10967538864E+02 -0.26712267061E+02  0.54257806487E+02  0.00000000000E+00 0. -1.
         22    1    3    3    0    0 -0.27948560752E+02  0.62920269074E+02  0.10733229551E+03  0.12751589692E+03  0.00000000000E+00 0. -1.
</event>
<event>
 7    1  0.5970484E-006  0.6340442E+02  0.7818608E-02  0.1415124E+00
          2   -1    0    0  502    0  0.00000000000E+00  0.00000000000E+00  0.97467016843E+03  0.97467016843E+03  0.00000000000E+00 0. -1.
          1   -1    0    0  501    0 -0.00000000000E+00 -0.00000000000E+00 -0.11369787907E+04  0.11369787907E+04  0.00000000000E+00 0. -1.
         25    2    1    2    0    0 -0.28410628853E+02  0.30489827175E+02  0.49641980599E+03  0.51360755693E+03  0.12499322127E+03 0.  0.
          2    1    1    2  501    0  0.24817087826E+02  0.42918515237E+02 -0.11249602722E+04  0.11260521750E+04  0.00000000000E+00 0. -1.
          1    1    1    2  502    0  0.35935410270E+01 -0.73408342412E+02  0.46623184395E+03  0.47198922719E+03  0.00000000000E+00 0. -1.
         22    1    3    3    0    0 -0.19416001476E+02  0.64441773234E+02  0.13869221857E+03  0.15415983505E+03  0.00000000000E+00 0. -1.
         22    1    3    3    0    0 -0.89946273767E+01 -0.33951946058E+02  0.35772758743E+03  0.35944772189E+03  0.00000000000E+00 0. -1.
</event>
<event>
 7    1  0.5970484E-006  0.7254803E+02  0.7818608E-02  0.1383042E+00
          2   -1    0    0  502    0  0.00000000000E+00  0.00000000000E+00  0.16451913445E+04  0.16451913445E+04  0.00000000000E+00 0. -1.
          1   -1    0    0  501    0 -0.00000000000E+00 -0.00000000000E+00 -0.38201314986E+03  0.38201314986E+03  0.00000000000E+00 0. -1.
         25    2    1    2    0    0 -0.80338333070E+02  0.92730687183E+02 -0.74562926747E+01  0.17531610517E+03  0.12500764906E+03 0.  0.
          2    1    1    2  501    0  0.48291159617E+02 -0.28116003929E+02 -0.28709874126E+03  0.29248629542E+03  0.00000000000E+00 0. -1.
          1    1    1    2  502    0  0.32047173453E+02 -0.64614683254E+02  0.15577332286E+04  0.15594020938E+04  0.00000000000E+00 0. -1.
         22    1    3    3    0    0  0.28631371229E+02  0.34056090304E+02  0.19620487214E+02  0.48626497136E+02  0.00000000000E+00 0.  1.
         22    1    3    3    0    0 -0.10896970430E+03  0.58674596879E+02 -0.27076779888E+02  0.12668960803E+03  0.00000000000E+00 0.  1.
</event>
<event>
 7    1  0.5970484E-006  0.5615960E+02  0.7818608E-02  0.1498913E+00
          2   -1    0    0  502    0  0.00000000000E+00  0.00000000000E+00  0.10209149656E+03  0.10209149656E+03  0.00000000000E+00 0. -1.
          1   -1    0    0  501    0 -0.00000000000E+00 -0.00000000000E+00 -0.26655839742E+03  0.26655839742E+03  0.00000000000E+00 0. -1.
         25    2    1    2    0    0 -0.72618837318E+02  0.41867074103E+02 -0.14272793869E+02  0.15118232720E+03  0.12500414387E+03 0.  0.
          2    1    1    2  501    0  0.43744430232E+02 -0.32484679910E+02 -0.17178081932E+03  0.18021509230E+03  0.00000000000E+00 0. -1.
          1    1    1    2  502    0  0.28874407086E+02 -0.93823941929E+01  0.21586712333E+02  0.37252474478E+02  0.00000000000E+00 0. -1.
         22    1    3    3    0    0 -0.57211531203E+02 -0.91790490182E+01  0.43582177900E+02  0.72503934196E+02  0.00000000000E+00 0.  1.
         22    1    3    3    0    0 -0.15407306115E+02  0.51046123121E+02 -0.57854971769E+02  0.78678393004E+02  0.00000000000E+00 0.  1.
</event>
<event>
 7    1  0.5970484E-006  0.7452037E+02  0.7818608E-02  0.1436933E+00
          2   -1    0    0  502    0  0.00000000000E+00  0.00000000000E+00  0.46402715811E+02  0.46402715811E+02  0.00000000000E+00 0. -1.
          1   -1    0    0  501    0 -0.00000000000E+00 -0.00000000000E+00 -0.12072938089E+04  0.12072938089E+04  0.00000000000E+00 0. -1.
         25    2    1    2    0    0  0.12827277683E+02  0.43881900632E+02 -0.86294362442E+03  0.87314838321E+03  0.12500495957E+03 0.  0.
          2    1    1    2  501    0 -0.16176899504E+02  0.31846841022E+02 -0.30250676594E+03  0.30460836626E+03  0.00000000000E+00 0. -1.
          1    1    1    2  502    0  0.33496218213E+01 -0.75728741653E+02  0.45592972222E+01  0.75939775282E+02  0.00000000000E+00 0. -1.
         22    1    3    3    0    0 -0.27023617051E+02  0.60454930377E+01 -0.41631962055E+02  0.50000441289E+02  0.00000000000E+00 0.  1.
         22    1    3    3    0    0  0.39850894733E+02  0.37836407594E+02 -0.82131166236E+03  0.82314794192E+03  0.00000000000E+00 0.  1.
</event>
<event>
 7    1  0.5970484E-006  0.1032115E+03  0.7818608E-02  0.1335135E+00
          2   -1    0    0  502    0  0.00000000000E+00  0.00000000000E+00  0.15587478176E+04  0.15587478176E+04  0.00000000000E+00 0. -1.
          1   -1    0    0  501    0 -0.00000000000E+00 -0.00000000000E+00 -0.16365988816E+03  0.16365988816E+03  0.00000000000E+00 0. -1.
         25    2    1    2    0    0  0.35398567814E+02  0.74725947315E+02 -0.58574776653E+02  0.16091023972E+03  0.12499629987E+03 0.  0.
          2    1    1    2  501    0 -0.51825510013E+02  0.27750949490E+02 -0.35531431948E+02  0.68691202799E+02  0.00000000000E+00 0. -1.
          1    1    1    2  502    0  0.16426942198E+02 -0.10247689680E+03  0.14891941381E+04  0.14928062633E+04  0.00000000000E+00 0. -1.
         22    1    3    3    0    0 -0.79579711684E+01 -0.28649433264E+02 -0.35770271552E+02  0.46514854169E+02  0.00000000000E+00 0. -1.
         22    1    3    3    0    0  0.43356538983E+02  0.10337538058E+03 -0.22804505100E+02  0.11439538555E+03  0.00000000000E+00 0. -1.
</event>
<event>
 7    1  0.5970484E-006  0.3313499E+02  0.7818608E-02  0.1604207E+00
          2   -1    0    0  502    0  0.00000000000E+00  0.00000000000E+00  0.19731452918E+04  0.19731452918E+04  0.00000000000E+00 0. -1.
          1   -1    0    0  501    0 -0.00000000000E+00 -0.00000000000E+00 -0.60062316245E+03  0.60062316245E+03  0.00000000000E+00 0. -1.
         25    2    1    2    0    0  0.21805895960E+02  0.82286119753E+00  0.50896672886E+03  0.52454622567E+03  0.12500175034E+03 0.  0.
          2    1    1    2  501    0  0.26415724876E+00 -0.26180011039E+02 -0.59235023342E+03  0.59292854695E+03  0.00000000000E+00 0. -1.
          1    1    1    2  502    0 -0.22070053208E+02  0.25357149842E+02  0.14559056339E+04  0.14562936816E+04  0.00000000000E+00 0. -1.
         22    1    3    3    0    0  0.39158941148E+02  0.20882661610E+02  0.59146584600E+02  0.73944754361E+02  0.00000000000E+00 0. -1.
         22    1    3    3    0    0 -0.17353045189E+02 -0.20059800413E+02  0.44982014426E+03  0.45060147131E+03  0.00000000000E+00 0. -1.
</event>
<event>
 7    1  0.5970484E-006  0.9276270E+02  0.7818608E-02  0.1306319E+00
          2   -1    0    0  502    0  0.00000000000E+00  0.00000000000E+00  0.81727570355E+03  0.81727570355E+03  0.00000000000E+00 0. -1.
          1   -1    0    0  501    0 -0.00000000000E+00 -0.00000000000E+00 -0.58705462392E+03  0.58705462392E+03  0.00000000000E+00 0. -1.
         25    2    1    2    0    0  0.99177849834E+01 -0.38618037739E+01  0.13158697874E+03  0.18180636020E+03  0.12500057459E+03 0.  0.
          2    1    1    2  501    0 -0.77459858840E+02  0.54791966175E+02 -0.55519573508E+03  0.56324461253E+03  0.00000000000E+00 0. -1.
          1    1    1    2  502    0  0.67542073856E+02 -0.50930162401E+02  0.65382983597E+03  0.65927935474E+03  0.00000000000E+00 0. -1.
         22    1    3    3    0    0  0.18439003282E+02  0.13000454960E+02 -0.19331114934E+02  0.29710278958E+02  0.00000000000E+00 0. -1.
         22    1    3    3    0    0 -0.85212182983E+01 -0.16862258734E+02  0.15091809367E+03  0.15209608124E+03  0.00000000000E+00 0. -1.
</event>
<event>
 7    1  0.5970484E-006  0.1884182E+03  0.7818608E-02  0.1311890E+00
          2   -1    0    0  502    0  0.00000000000E+00  0.00000000000E+00  0.26897274040E+03  0.26897274040E+03  0.00000000000E+00 0. -1.
          1   -1    0    0  501    0 -0.00000000000E+00 -0.00000000000E+00 -0.87059769648E+03  0.87059769648E+03  0.00000000000E+00 0. -1.
         25    2    1    2    0    0  0.11099385975E+03 -0.13692076021E+03  0.97238255847E+02  0.23695427911E+03  0.12500048205E+03 0.  0.
          2    1    1    2  501    0 -0.86924947199E+02  0.16835546363E+03 -0.78514573668E+03  0.80768393348E+03  0.00000000000E+00 0. -1.
          1    1    1    2  502    0 -0.24068912548E+02 -0.31434703413E+02  0.86282524748E+02  0.94932224280E+02  0.00000000000E+00 0. -1.
         22    1    3    3    0    0  0.12663412113E+03 -0.71049217963E+02  0.84694374627E+02  0.16809916449E+03  0.00000000000E+00 0. -1.
         22    1    3    3    0    0 -0.15640261382E+02 -0.65871542250E+02  0.12543881219E+02  0.68855114629E+02  0.00000000000E+00 0. -1.
</event>
<event>
 7    1  0.5970484E-006  0.6286654E+02  0.7818608E-02  0.1443083E+00
          2   -1    0    0  502    0  0.00000000000E+00  0.00000000000E+00  0.15665187035E+04  0.15665187035E+04  0.00000000000E+00 0. -1.
          1   -1    0    0  501    0 -0.00000000000E+00 -0.00000000000E+00 -0.33785820084E+02  0.33785820084E+02  0.00000000000E+00 0. -1.
         25    2    1    2    0    0  0.58471913866E+01  0.57816834802E+02  0.29561929017E+03  0.32617736488E+03  0.12499573035E+03 0.  0.
          2    1    1    2  501    0 -0.45054223157E+02 -0.47908763941E+02  0.41360763707E+02  0.77690703827E+02  0.00000000000E+00 0. -1.
          1    1    1    2  502    0  0.39207031771E+02 -0.99080708608E+01  0.11957528295E+04  0.11964364549E+04  0.00000000000E+00 0. -1.
         22    1    3    3    0    0 -0.10633453347E+02  0.53774904579E+02  0.30282169874E+03  0.30774306154E+03  0.00000000000E+00 0. -1.
         22    1    3    3    0    0  0.16480644733E+02  0.40419302226E+01 -0.72024085709E+01  0.18434303349E+02  0.00000000000E+00 0. -1.
</event>
<event>
 7    1  0.5970484E-006  0.3432145E+02  0.7818608E-02  0.1636191E+00
          2   -1    0    0  502    0  0.00000000000E+00  0.00000000000E+00  0.12371569203E+04  0.12371569203E+04  0.00000000000E+00 0. -1.
          1   -1    0    0  501    0 -0.00000000000E+00 -0.00000000000E+00 -0.14370305044E+04  0.14370305044E+04  0.00000000000E+00 0. -1.
         25    2    1    2    0    0  0.17653607657E+02 -0.39655792608E+02  0.17691945987E+03  0.22092923818E+03  0.12500000501E+03 0.  0.
          2    1    1    2  501    0  0.25830725793E+01  0.34220015753E+02 -0.14147117858E+04  0.14151279513E+04  0.00000000000E+00 0. -1.
          1    1    1    2  502    0 -0.20236680236E+02  0.54357768546E+01  0.10379187418E+04  0.10381302353E+04  0.00000000000E+00 0. -1.
         22    1    3    3    0    0 -0.16181209339E+02 -0.44496427238E+02  0.18045919355E+03  0.18656710351E+03  0.00000000000E+00 0. -1.
         22    1    3    3    0    0  0.33834816996E+02  0.48406346306E+01 -0.35397336853E+01  0.34362134674E+02  0.00000000000E+00 0. -1.
</event>
<event>
 7    1  0.5970484E-006  0.8631055E+02  0.7818608E-02  0.1430789E+00
          2   -1    0    0  502    0  0.00000000000E+00  0.00000000000E+00  0.44184841101E+04  0.44184841101E+04  0.00000000000E+00 0. -1.
          1   -1    0    0  501    0 -0.00000000000E+00 -0.00000000000E+00 -0.12116403243E+03  0.12116403243E+03  0.00000000000E+00 0. -1.
         25    2    1    2    0    0  0.84368965718E+02  0.25509917681E+02  0.44617060903E+02  0.15932903703E+03  0.12500472648E+03 0.  0.
          2    1    1    2  501    0 -0.16450192329E+02  0.27800006505E+02 -0.59259751094E+02  0.67491979443E+02  0.00000000000E+00 0. -1.
          1    1    1    2  502    0 -0.67918773390E+02 -0.53309924186E+02  0.43119627679E+04  0.43128271261E+04  0.00000000000E+00 0. -1.
         22    1    3    3    0    0  0.60746007033E+01 -0.15557740010E+02 -0.35997065412E+02  0.39682902693E+02  0.00000000000E+00 0. -1.
         22    1    3    3    0    0  0.78294365015E+02  0.41067657691E+02  0.80614126315E+02  0.11964613434E+03  0.00000000000E+00 0. -1.
</event>
<event>
 7    1  0.5970484E-006  0.1601226E+03  0.7818608E-02  0.1380300E+00
          2   -1    0    0  502    0  0.00000000000E+00  0.00000000000E+00  0.40415669463E+03  0.40415669463E+03  0.00000000000E+00 0. -1.
          1   -1    0    0  501    0 -0.00000000000E+00 -0.00000000000E+00 -0.86906844689E+03  0.86906844689E+03  0.00000000000E+00 0. -1.
         25    2    1    2    0    0 -0.14344730895E+03 -0.33930151552E+02  0.83490974729E+02  0.21053424958E+03  0.12500216700E+03 0.  0.
          2    1    1    2  501    0  0.14966506329E+03  0.59061575375E+02 -0.79683316942E+03  0.81291512518E+03  0.00000000000E+00 0. -1.
          1    1    1    2  502    0 -0.62177543360E+01 -0.25131423824E+02  0.24843044243E+03  0.24977576676E+03  0.00000000000E+00 0. -1.
         22    1    3    3    0    0 -0.15169689461E+01 -0.47462171572E+02  0.38185194968E+02  0.60934949248E+02  0.00000000000E+00 0.  1.
         22    1    3    3    0    0 -0.14193034000E+03  0.13532020021E+02  0.45305779761E+02  0.14959930033E+03  0.00000000000E+00 0.  1.
</event>
<event>
 7    1  0.5970484E-006  0.3742719E+02  0.7818608E-02  0.1559239E+00
          2   -1    0    0  502    0  0.00000000000E+00  0.00000000000E+00  0.74917421268E+03  0.74917421268E+03  0.00000000000E+00 0. -1.
          1   -1    0    0  501    0 -0.00000000000E+00 -0.00000000000E+00 -0.48956654458E+03  0.48956654458E+03  0.00000000000E+00 0. -1.
         25    2    1    2    0    0  0.82239792570E+01 -0.41007438825E+00  0.43805554658E+02  0.13271715727E+03  0.12500846059E+03 0.  0.
          2    1    1    2  501    0  0.26611087558E+02  0.15064807616E+02 -0.44404421492E+03  0.44509590339E+03  0.00000000000E+00 0. -1.
          1    1    1    2  502    0 -0.34835066815E+02 -0.14654733228E+02  0.65984632836E+03  0.66092769660E+03  0.00000000000E+00 0. -1.
         22    1    3    3    0    0  0.74959004043E+01 -0.62605853983E+02  0.23411759881E+02  0.67259140468E+02  0.00000000000E+00 0. -1.
         22    1    3    3    0    0  0.72807885262E+00  0.62195779594E+02  0.20393794778E+02  0.65458016802E+02  0.00000000000E+00 0. -1.
</event>
<event>
 7    1  0.5970484E-006  0.1299201E+03  0.7818608E-02  0.1323268E+00
          2   -1    0    0  502    0  0.00000000000E+00  0.00000000000E+00  0.14301415722E+04  0.14301415722E+04  0.00000000000E+00 0. -1.
          1   -1    0    0  501    0 -0.00000000000E+00 -0.00000000000E+00 -0.85632043766E+03  0.85632043766E+03  0.00000000000E+00 0. -1.
         25    2    1    2    0    0  0.63046227833E+02 -0.16210169242E+03 -0.14151613484E+03  0.25671978577E+03  0.12500578571E+03 0.  0.
          2    1    1    2  501    0 -0.30574030178E+02  0.12168230222E+03 -0.65071819636E+03  0.66270319531E+03  0.00000000000E+00 0. -1.
          1    1    1    2  502    0 -0.32472197655E+02  0.40419390199E+02  0.13660554657E+04  0.13670390288E+04  0.00000000000E+00 0. -1.
         22    1    3    3    0    0  0.95810746053E+02 -0.10423267230E+03 -0.12336966196E+03  0.18778770600E+03  0.00000000000E+00 0. -1.
         22    1    3    3    0    0 -0.32764518220E+02 -0.57869020120E+02 -0.18146472878E+02  0.68932079772E+02  0.00000000000E+00 0. -1.
</event>
<event>
 7    1  0.5970484E-006  0.7208912E+02  0.7818608E-02  0.1383494E+00
          2   -1    0    0  502    0  0.00000000000E+00  0.00000000000E+00  0.43942316128E+02  0.43942316128E+02  0.00000000000E+00 0. -1.
          1   -1    0    0  501    0 -0.00000000000E+00 -0.00000000000E+00 -0.14182247740E+04  0.14182247740E+04  0.00000000000E+00 0. -1.
         25    2    1    2    0    0  0.12048124475E+02 -0.16823675067E+02 -0.48679945480E+03  0.50301833674E+03  0.12500217818E+03 0.  0.
          2    1    1    2  501    0  0.40669224820E+02 -0.38540466293E+02 -0.88061183154E+03  0.88239251541E+03  0.00000000000E+00 0. -1.
          1    1    1    2  502    0 -0.52717349295E+02  0.55364141360E+02 -0.68711714793E+01  0.76756237940E+02  0.00000000000E+00 0. -1.
         22    1    3    3    0    0 -0.48297380836E+02  0.22700513995E+02 -0.24183693252E+03  0.24765510748E+03  0.00000000000E+00 0.  1.
         22    1    3    3    0    0  0.60345505311E+02 -0.39524189062E+02 -0.24496252229E+03  0.25536322926E+03  0.00000000000E+00 0.  1.
</event>
<event>
 7    1  0.5970484E-006  0.1290113E+03  0.7818608E-02  0.1378183E+00
          2   -1    0    0  502    0  0.00000000000E+00  0.00000000000E+00  0.66185234556E+03  0.66185234556E+03  0.00000000000E+00 0. -1.
          1   -1    0    0  501    0 -0.00000000000E+00 -0.00000000000E+00 -0.17539765778E+04  0.17539765778E+04  0.00000000000E+00 0. -1.
         25    2    1    2    0    0 -0.13483629067E+03 -0.84284901941E+02 -0.38958106526E+03  0.43895836520E+03  0.12500507989E+03 0.  0.
          2    1    1    2  501    0  0.31858051243E+02  0.73395685217E+01 -0.13330205520E+04  0.13334213876E+04  0.00000000000E+00 0. -1.
          1    1    1    2  502    0  0.10297823943E+03  0.76945333419E+02  0.63047738502E+03  0.64344917061E+03  0.00000000000E+00 0. -1.
         22    1    3    3    0    0 -0.57805863740E+02 -0.90198467846E+02 -0.31024150230E+03  0.32821802393E+03  0.00000000000E+00 0. -1.
         22    1    3    3    0    0 -0.77030426930E+02  0.59135659050E+01 -0.79339562962E+02  0.11074034127E+03  0.00000000000E+00 0. -1.
</event>
<event>
 7    1  0.5970484E-006  0.6623410E+02  0.7818608E-02  0.1382232E+00
          2   -1    0    0  502    0  0.00000000000E+00  0.00000000000E+00  0.74317995379E+03  0.74317995379E+03  0.00000000000E+00 0. -1.
          1   -1    0    0  501    0 -0.00000000000E+00 -0.00000000000E+00 -0.21017893792E+03  0.21017893792E+03  0.00000000000E+00 0. -1.
         25    2    1    2    0    0 -0.25550975854E+01 -0.34511538904E+02  0.21882366888E+03  0.25437497988E+03  0.12500102995E+03 0.  0.
          2    1    1    2  501    0  0.65644191170E+02  0.88202278800E+01 -0.18431722882E+03  0.19585657276E+03  0.00000000000E+00 0. -1.
          1    1    1    2  502    0 -0.63089093584E+02  0.25691311024E+02  0.49849457582E+03  0.50312733906E+03  0.00000000000E+00 0. -1.
         22    1    3    3    0    0 -0.49362344458E+02  0.20622790501E+02  0.63448293459E+02  0.82991725379E+02  0.00000000000E+00 0.  1.
         22    1    3    3    0    0  0.46807246873E+02 -0.55134329406E+02  0.15537537542E+03  0.17138325451E+03  0.00000000000E+00 0.  1.
</event>
<event>
 7    1  0.5970484E-006  0.6667795E+02  0.7818608E-02  0.1434346E+00
          2   -1    0    0  502    0  0.00000000000E+00  0.00000000000E+00  0.66829685819E+03  0.66829685819E+03  0.00000000000E+00 0. -1.
          1   -1    0    0  501    0 -0.00000000000E+00 -0.00000000000E+00 -0.15560672177E+03  0.15560672177E+03  0.00000000000E+00 0. -1.
         25    2    1    2    0    0  0.19781982294E+02  0.25783681953E+02  0.31656442114E+03  0.34189835586E+03  0.12500131171E+03 0.  0.
          2    1    1    2  501    0 -0.14138443348E+02 -0.66095749704E+02 -0.13362742386E+03  0.14974923077E+03  0.00000000000E+00 0. -1.
          1    1    1    2  502    0 -0.56435389467E+01  0.40312067752E+02  0.32975313913E+03  0.33225599333E+03  0.00000000000E+00 0. -1.
         22    1    3    3    0    0 -0.16006835358E+02  0.28651631406E+01 -0.54052259184E+01  0.17136055708E+02  0.00000000000E+00 0.  1.
         22    1    3    3    0    0  0.35788817652E+02  0.22918518812E+02  0.32196964706E+03  0.32476230015E+03  0.00000000000E+00 0.  1.
</event>
<event>
 7    1  0.5970484E-006  0.5730754E+02  0.7818608E-02  0.1462088E+00
          2   -1    0    0  502    0  0.00000000000E+00  0.00000000000E+00  0.18804559244E+03  0.18804559244E+03  0.00000000000E+00 0. -1.
          1   -1    0    0  501    0 -0.00000000000E+00 -0.00000000000E+00 -0.15492965715E+04  0.15492965715E+04  0.00000000000E+00 0. -1.
         25    2    1    2    0    0  0.36782304272E+02 -0.79055099272E+02 -0.20806072073E+03  0.25790905554E+03  0.12500068316E+03 0.  0.
          2    1    1    2  501    0 -0.39595123690E+02  0.40572002815E+02 -0.13134098137E+04  0.13146327244E+04  0.00000000000E+00 0. -1.
          1    1    1    2  502    0  0.28128194182E+01  0.38483096458E+02  0.16021955536E+03  0.16480038405E+03  0.00000000000E+00 0. -1.
         22    1    3    3    0    0  0.41511904042E+02 -0.10297046150E+03 -0.10787678924E+03  0.15480166593E+03  0.00000000000E+00 0.  1.
         22    1    3    3    0    0 -0.47295997700E+01  0.23915362223E+02 -0.10018393149E+03  0.10310738961E+03  0.00000000000E+00 0.  1.
</event>
<event>
 7    1  0.5970484E-006  0.9018145E+02  0.7818608E-02  0.1335574E+00
          2   -1    0    0  502    0  0.00000000000E+00  0.00000000000E+00  0.13695862302E+03  0.13695862302E+03  0.00000000000E+00 0. -1.
          1   -1    0    0  501    0 -0.00000000000E+00 -0.00000000000E+00 -0.40597766409E+03  0.40597766409E+03  0.00000000000E+00 0. -1.
         25    2    1    2    0    0 -0.30485012156E+01  0.57835921007E+02 -0.18341850795E+03  0.22939492574E+03  0.12500158310E+03 0.  0.
          2    1    1    2  501    0  0.46347343888E+02 -0.10899705163E+03 -0.16910962660E+03  0.20646185933E+03  0.00000000000E+00 0. -1.
          1    1    1    2  502    0 -0.43298842672E+02  0.51161130618E+02  0.83509093480E+02  0.10707950204E+03  0.00000000000E+00 0. -1.
         22    1    3    3    0    0 -0.65174271401E+00  0.31330365596E+02 -0.19702718596E+03  0.19950370569E+03  0.00000000000E+00 0. -1.
         22    1    3    3    0    0 -0.23967585016E+01  0.26505555411E+02  0.13608678006E+02  0.29891220049E+02  0.00000000000E+00 0. -1.
</event>
<event>
 7    1  0.5970484E-006  0.6818265E+02  0.7818608E-02  0.1373758E+00
          2   -1    0    0  502    0  0.00000000000E+00  0.00000000000E+00  0.98004135219E+03  0.98004135219E+03  0.00000000000E+00 0. -1.
          1   -1    0    0  501    0 -0.00000000000E+00 -0.00000000000E+00 -0.30195861092E+03  0.30195861092E+03  0.00000000000E+00 0. -1.
         25    2    1    2    0    0 -0.40353550343E+01  0.86466858790E+01 -0.48165472763E+02  0.13429672063E+03  0.12499858855E+03 0.  0.
          2    1    1    2  501    0  0.72214971989E+02 -0.92903000182E+01 -0.20315189681E+03  0.21580547961E+03  0.00000000000E+00 0. -1.
          1    1    1    2  502    0 -0.68179616955E+02  0.64361413921E+00  0.92940011085E+03  0.93189776287E+03  0.00000000000E+00 0. -1.
         22    1    3    3    0    0 -0.33226441458E+02 -0.49895243002E+02 -0.23050473994E+02  0.64225042137E+02  0.00000000000E+00 0. -1.
         22    1    3    3    0    0  0.29191086423E+02  0.58541928881E+02 -0.25114998769E+02  0.70071678493E+02  0.00000000000E+00 0. -1.
</event>
<event>
 7    1  0.5970484E-006  0.6986890E+02  0.7818608E-02  0.1510268E+00
          2   -1    0    0  502    0  0.00000000000E+00  0.00000000000E+00  0.81171401034E+03  0.81171401034E+03  0.00000000000E+00 0. -1.
          1   -1    0    0  501    0 -0.00000000000E+00 -0.00000000000E+00 -0.10963804178E+04  0.10963804178E+04  0.00000000000E+00 0. -1.
         25    2    1    2    0    0  0.59841348039E+02  0.22748840259E+02 -0.22259782320E+03  0.26319665960E+03  0.12499677620E+03 0.  0.
          2    1    1    2  501    0 -0.70456196223E+02 -0.28163407267E+01 -0.85186511940E+03  0.85477844440E+03  0.00000000000E+00 0. -1.
          1    1    1    2  502    0  0.10614848184E+02 -0.19932499532E+02  0.78979653512E+03  0.79011932417E+03  0.00000000000E+00 0. -1.
         22    1    3    3    0    0  0.58743796779E+02  0.56918543026E+02 -0.72650157110E+02  0.10940109473E+03  0.00000000000E+00 0.  1.
         22    1    3    3    0    0  0.10975512601E+01 -0.34169702767E+02 -0.14994766609E+03  0.15379556487E+03  0.00000000000E+00 0.  1.
</event>
<event>
 7    1  0.5970484E-006  0.2906632E+03  0.7818608E-02  0.1178208E+00
          2   -1    0    0  502    0  0.00000000000E+00  0.00000000000E+00  0.13555834504E+04  0.13555834504E+04  0.00000000000E+00 0. -1.
          1   -1    0    0  501    0 -0.00000000000E+00 -0.00000000000E+00 -0.66015812564E+03  0.66015812564E+03  0.00000000000E+00 0. -1.
         25    2    1    2    0    0  0.71420200460E+02 -0.21656885057E+03 -0.44596180816E+03  0.51624620139E+03  0.12500117615E+03 0.  0.
          2    1    1    2  501    0 -0.62962687013E+02 -0.76430885303E+02 -0.14752192276E+03  0.17767582244E+03  0.00000000000E+00 0. -1.
          1    1    1    2  502    0 -0.84575134467E+01  0.29299973587E+03  0.12889090557E+04  0.13218195522E+04  0.00000000000E+00 0. -1.
         22    1    3    3    0    0 -0.12796906167E+01 -0.64601654307E+02 -0.24813688782E+03  0.25641163477E+03  0.00000000000E+00 0.  1.
         22    1    3    3    0    0  0.72699891076E+02 -0.15196719626E+03 -0.19782492034E+03  0.25983456662E+03  0.00000000000E+00 0.  1.
</event>
<event>
 7    1  0.5970484E-006  0.1219536E+03  0.7818608E-02  0.1437342E+00
          2   -1    0    0  502    0  0.00000000000E+00  0.00000000000E+00  0.89720419350E+03  0.89720419350E+03  0.00000000000E+00 0. -1.
          1   -1    0    0  501    0 -0.00000000000E+00 -0.00000000000E+00 -0.13293123971E+04  0.13293123971E+04  0.00000000000E+00 0. -1.
         25    2    1    2    0    0  0.63631493227E+02 -0.80686809490E+02 -0.48065268756E+03  0.50716010256E+03  0.12500014164E+03 0.  0.
          2    1    1    2  501    0  0.20183958260E+02 -0.81303774025E+01 -0.83104504566E+03  0.83132987624E+03  0.00000000000E+00 0. -1.
          1    1    1    2  502    0 -0.83815451487E+02  0.88817186892E+02  0.87958952963E+03  0.88802661178E+03  0.00000000000E+00 0. -1.
         22    1    3    3    0    0  0.46438686761E+02 -0.85331628662E+01 -0.44957265287E+02  0.65196029010E+02  0.00000000000E+00 0. -1.
         22    1    3    3    0    0  0.17192806466E+02 -0.72153646624E+02 -0.43569542227E+03  0.44196407355E+03  0.00000000000E+00 0. -1.
</event>
<event>
 7    1  0.5970484E-006  0.1093892E+03  0.7818608E-02  0.1412162E+00
          2   -1    0    0  502    0  0.00000000000E+00  0.00000000000E+00  0.13096267682E+04  0.13096267682E+04  0.00000000000E+00 0. -1.
          1   -1    0    0  501    0 -0.00000000000E+00 -0.00000000000E+00 -0.25035987270E+03  0.25035987270E+03  0.00000000000E+00 0. -1.
         25    2    1    2    0    0  0.10986664874E+03  0.64451856380E+02  0.12039756935E+03  0.21529491853E+03  0.12502641698E+03 0.  0.
          2    1    1    2  501    0 -0.81245401457E+02 -0.71192225429E+02 -0.18832871112E+03  0.21711022927E+03  0.00000000000E+00 0. -1.
          1    1    1    2  502    0 -0.28621247279E+02  0.67403690491E+01  0.11271980373E+04  0.11275814931E+04  0.00000000000E+00 0. -1.
         22    1    3    3    0    0 -0.70350635746E+01  0.56945221818E+01  0.76878807493E+02  0.77409758712E+02  0.00000000000E+00 0. -1.
         22    1    3    3    0    0  0.11690171231E+03  0.58757334198E+02  0.43518761860E+02  0.13788515981E+03  0.00000000000E+00 0. -1.
</event>
<event>
 7    1  0.5970484E-006  0.7851522E+02  0.7818608E-02  0.1394875E+00
          2   -1    0    0  502    0  0.00000000000E+00  0.00000000000E+00  0.31505217891E+03  0.31505217891E+03  0.00000000000E+00 0. -1.
          1   -1    0    0  501    0 -0.00000000000E+00 -0.00000000000E+00 -0.33700550396E+03  0.33700550396E+03  0.00000000000E+00 0. -1.
         25    2    1    2    0    0  0.58731474295E+02 -0.49817230579E+01  0.15302132818E+03  0.20618950254E+03  0.12499752175E+03 0.  0.
          2    1    1    2  501    0  0.21623024299E+02 -0.41666198483E+02 -0.29239186476E+03  0.29613616775E+03  0.00000000000E+00 0. -1.
          1    1    1    2  502    0 -0.80354498594E+02  0.46647921541E+02  0.11741721152E+03  0.14973201257E+03  0.00000000000E+00 0. -1.
         22    1    3    3    0    0  0.77227082062E+02 -0.30402660393E+02  0.46518340894E+02  0.95143575728E+02  0.00000000000E+00 0.  1.
         22    1    3    3    0    0 -0.18495607767E+02  0.25420937335E+02  0.10650298729E+03  0.11104592682E+03  0.00000000000E+00 0.  1.
</event>
<event>
 7    1  0.5970484E-006  0.1538292E+03  0.7818608E-02  0.1319085E+00
          2   -1    0    0  502    0  0.00000000000E+00  0.00000000000E+00  0.13947404833E+04  0.13947404833E+04  0.00000000000E+00 0. -1.
          1   -1    0    0  501    0 -0.00000000000E+00 -0.00000000000E+00 -0.75716882350E+02  0.75716882350E+02  0.00000000000E+00 0. -1.
         25    2    1    2    0    0  0.76666674749E+02  0.15161023253E+03  0.28913634050E+03  0.35789238242E+03  0.12499476939E+03 0.  0.
          2    1    1    2  501    0 -0.45366320952E+02 -0.28150008320E+01 -0.21470198963E+02  0.50269242583E+02  0.00000000000E+00 0. -1.
          1    1    1    2  502    0 -0.31300353797E+02 -0.14879523169E+03  0.10513574594E+04  0.10622957406E+04  0.00000000000E+00 0. -1.
         22    1    3    3    0    0  0.79683238802E+02  0.23963523345E+02  0.11697970267E+03  0.14355458834E+03  0.00000000000E+00 0. -1.
         22    1    3    3    0    0 -0.30165640532E+01  0.12764670918E+03  0.17215663783E+03  0.21433779408E+03  0.00000000000E+00 0. -1.
</event>
<event>
 7    1  0.5970484E-006  0.7170229E+02  0.7818608E-02  0.1436920E+00
          2   -1    0    0  502    0  0.00000000000E+00  0.00000000000E+00  0.17391790248E+02  0.17391790248E+02  0.00000000000E+00 0. -1.
          1   -1    0    0  501    0 -0.00000000000E+00 -0.00000000000E+00 -0.22200706944E+04  0.22200706944E+04  0.00000000000E+00 0. -1.
         25    2    1    2    0    0 -0.16325937873E+02  0.51538790775E+02 -0.41966155802E+03  0.44120507615E+03  0.12499325078E+03 0.  0.
          2    1    1    2  501    0 -0.33089838151E+02  0.16837658979E+02 -0.15110436839E+04  0.15114997383E+04  0.00000000000E+00 0. -1.
          1    1    1    2  502    0  0.49415776024E+02 -0.68376449755E+02 -0.27197366217E+03  0.28475767016E+03  0.00000000000E+00 0. -1.
         22    1    3    3    0    0 -0.68876811112E+02  0.26206509019E+02 -0.28648327798E+03  0.29580984565E+03  0.00000000000E+00 0.  1.
         22    1    3    3    0    0  0.52550873239E+02  0.25332281756E+02 -0.13317828004E+03  0.14539523050E+03  0.00000000000E+00 0.  1.
</event>
<event>
 7    1  0.5970484E-006  0.1021546E+03  0.7818608E-02  0.1295383E+00
          2   -1    0    0  502    0  0.00000000000E+00  0.00000000000E+00  0.12684611176E+03  0.12684611176E+03  0.00000000000E+00 0. -1.
          1   -1    0    0  501    0 -0.00000000000E+00 -0.00000000000E+00 -0.30787796550E+04  0.30787796550E+04  0.00000000000E+00 0. -1.
         25    2    1    2    0    0 -0.10779976952E+03 -0.93037757725E+02 -0.12315936392E+04  0.12460834628E+04  0.12499715764E+03 0.  0.
          2    1    1    2  501    0  0.84722253676E+02 -0.62315200449E+01 -0.18170554224E+04  0.18190401590E+04  0.00000000000E+00 0. -1.
          1    1    1    2  502    0  0.23077515843E+02  0.99269277770E+02  0.96715518357E+02  0.14050214496E+03  0.00000000000E+00 0. -1.
         22    1    3    3    0    0 -0.14964806939E+01 -0.81218726345E+02 -0.46098591225E+03  0.46808838082E+03  0.00000000000E+00 0.  1.
         22    1    3    3    0    0 -0.10630328883E+03 -0.11819031380E+02 -0.77060772698E+03  0.77799508199E+03  0.00000000000E+00 0.  1.
</event>
<event>
 7    1  0.5970484E-006  0.8992269E+02  0.7818608E-02  0.1343472E+00
          2   -1    0    0  502    0  0.00000000000E+00  0.00000000000E+00  0.81851314557E+03  0.81851314557E+03  0.00000000000E+00 0. -1.
          1   -1    0    0  501    0 -0.00000000000E+00 -0.00000000000E+00 -0.75149542467E+03  0.75149542467E+03  0.00000000000E+00 0. -1.
         25    2    1    2    0    0  0.67806427060E+02  0.74725016551E+02 -0.10859154913E+03  0.19390256714E+03  0.12499816539E+03 0.  0.
          2    1    1    2  501    0  0.20935238427E+02 -0.59174855606E+02 -0.59597917872E+03  0.59927550360E+03  0.00000000000E+00 0. -1.
          1    1    1    2  502    0 -0.88741665488E+02 -0.15550160945E+02  0.77158844875E+03  0.77683049950E+03  0.00000000000E+00 0. -1.
         22    1    3    3    0    0 -0.26497934253E+02  0.57521798149E+02 -0.30671057526E+02  0.70367688264E+02  0.00000000000E+00 0.  1.
         22    1    3    3    0    0  0.94304361313E+02  0.17203218403E+02 -0.77920491609E+02  0.12353487887E+03  0.00000000000E+00 0.  1.
</event>
<event>
 7    1  0.5970484E-006  0.4787855E+02  0.7818608E-02  0.1573888E+00
          2   -1    0    0  502    0  0.00000000000E+00  0.00000000000E+00  0.35170248915E+03  0.35170248915E+03  0.00000000000E+00 0. -1.
          1   -1    0    0  501    0 -0.00000000000E+00 -0.00000000000E+00 -0.59039649168E+03  0.59039649168E+03  0.00000000000E+00 0. -1.
         25    2    1    2    0    0 -0.62403101141E+02 -0.22969299276E+02  0.10713323559E+03  0.17754266856E+03  0.12498853247E+03 0.  0.
          2    1    1    2  501    0  0.21801181736E+02  0.17295502200E+00 -0.55238506270E+03  0.55281513993E+03  0.00000000000E+00 0. -1.
          1    1    1    2  502    0  0.40601919405E+02  0.22796344254E+02  0.20655782458E+03  0.21174117235E+03  0.00000000000E+00 0. -1.
         22    1    3    3    0    0 -0.91530834748E+02  0.89040975807E+01  0.46346262714E+02  0.10298132224E+03  0.00000000000E+00 0. -1.
         22    1    3    3    0    0  0.29127733607E+02 -0.31873396857E+02  0.60786972879E+02  0.74561346313E+02  0.00000000000E+00 0. -1.
</event>
<event>
 7    1  0.5970484E-006  0.6682588E+02  0.7818608E-02  0.1456061E+00
          2   -1    0    0  502    0  0.00000000000E+00  0.00000000000E+00  0.16456192207E+04  0.16456192207E+04  0.00000000000E+00 0. -1.
          1   -1    0    0  501    0 -0.00000000000E+00 -0.00000000000E+00 -0.58706193711E+03  0.58706193711E+03  0.00000000000E+00 0. -1.
         25    2    1    2    0    0 -0.64646748229E+02  0.50869825345E+02  0.13109327731E+03  0.19894034275E+03  0.12499948572E+03 0.  0.
          2    1    1    2  501    0  0.33610429852E+02  0.80998213702E+01 -0.55184736734E+03  0.55292927662E+03  0.00000000000E+00 0. -1.
          1    1    1    2  502    0  0.31036318377E+02 -0.58969646715E+02  0.14793113736E+04  0.14808115385E+04  0.00000000000E+00 0. -1.
         22    1    3    3    0    0  0.26625019529E+02  0.46515983001E+02  0.73363231564E+02  0.90855886353E+02  0.00000000000E+00 0.  1.
         22    1    3    3    0    0 -0.91271767758E+02  0.43538423438E+01  0.57730045745E+02  0.10808445640E+03  0.00000000000E+00 0.  1.
</event>
<event>
 7    1  0.5970484E-006  0.4196847E+02  0.7818608E-02  0.1546885E+00
          2   -1    0    0  502    0  0.00000000000E+00  0.00000000000E+00  0.10172465416E+04  0.10172465416E+04  0.00000000000E+00 0. -1.
          1   -1    0    0  501    0 -0.00000000000E+00 -0.00000000000E+00 -0.29134628254E+03  0.29134628254E+03  0.00000000000E+00 0. -1.
         25    2    1    2    0    0  0.33373801733E+02  0.27218844061E+01  0.29634014690E+03  0.32336248395E+03  0.12499837627E+03 0.  0.
          2    1    1    2  501    0 -0.32436626630E+02  0.26776246087E+02 -0.27593296021E+03  0.27912022613E+03  0.00000000000E+00 0. -1.
          1    1    1    2  502    0 -0.93717510362E+00 -0.29498130493E+02  0.70549307239E+03  0.70611011406E+03  0.00000000000E+00 0. -1.
         22    1    3    3    0    0 -0.29376639880E+02 -0.13197134528E+02  0.22392349583E+03  0.22622750345E+03  0.00000000000E+00 0. -1.
         22    1    3    3    0    0  0.62750441614E+02  0.15919018934E+02  0.72416651064E+02  0.97134980506E+02  0.00000000000E+00 0. -1.
</event>
<event>
 7    1  0.5970484E-006  0.8254043E+02  0.7818608E-02  0.1361319E+00
          2   -1    0    0  502    0  0.00000000000E+00  0.00000000000E+00  0.41064206082E+04  0.41064206082E+04  0.00000000000E+00 0. -1.
          1   -1    0    0  501    0 -0.00000000000E+00 -0.00000000000E+00 -0.10897139257E+03  0.10897139257E+03  0.00000000000E+00 0. -1.
         25    2    1    2    0    0 -0.96465014320E+02 -0.40723807425E+02  0.15920658305E+04  0.16003945243E+04  0.12500038911E+03 0.  0.
          2    1    1    2  501    0  0.51958483758E+02 -0.27435553286E+02 -0.95857420020E+02  0.11243237341E+03  0.00000000000E+00 0. -1.
          1    1    1    2  502    0  0.44506530561E+02  0.68159360710E+02  0.25012408052E+04  0.25025651031E+04  0.00000000000E+00 0. -1.
         22    1    3    3    0    0 -0.29263174308E+02 -0.75508755221E+02  0.10429671179E+04  0.10461062634E+04  0.00000000000E+00 0.  1.
         22    1    3    3    0    0 -0.67201840012E+02  0.34784947797E+02  0.54909871260E+03  0.55428826081E+03  0.00000000000E+00 0.  1.
</event>
<event>
 7    1  0.5970484E-006  0.6801258E+02  0.7818608E-02  0.1450576E+00
          2   -1    0    0  502    0  0.00000000000E+00  0.00000000000E+00  0.20091070659E+04  0.20091070659E+04  0.00000000000E+00 0. -1.
          1   -1    0    0  501    0 -0.00000000000E+00 -0.00000000000E+00 -0.10232364335E+04  0.10232364335E+04  0.00000000000E+00 0. -1.
         25    2    1    2    0    0 -0.34787181062E+02  0.45508243608E+01  0.62465580857E+03  0.63800456235E+03  0.12499633764E+03 0.  0.
          2    1    1    2  501    0  0.67488633114E+02  0.89094702268E+01 -0.10151950483E+04  0.10174748549E+04  0.00000000000E+00 0. -1.
          1    1    1    2  502    0 -0.32701452052E+02 -0.13460294588E+02  0.13764098722E+04  0.13768640822E+04  0.00000000000E+00 0. -1.
         22    1    3    3    0    0 -0.81709411608E+02  0.11001189223E+02  0.39183732545E+03  0.40041721207E+03  0.00000000000E+00 0. -1.
         22    1    3    3    0    0  0.46922230547E+02 -0.64503648619E+01  0.23281848313E+03  0.23758735028E+03  0.00000000000E+00 0. -1.
</event>
<event>
 7    1  0.5970484E-006  0.9963945E+02  0.7818608E-02  0.1414877E+00
          2   -1    0    0  502    0  0.00000000000E+00  0.00000000000E+00  0.18324798333E+04  0.18324798333E+04  0.00000000000E+00 0. -1.
          1   -1    0    0  501    0 -0.00000000000E+00 -0.00000000000E+00 -0.16176142144E+03  0.16176142144E+03  0.00000000000E+00 0. -1.
         25    2    1    2    0    0 -0.89321034788E+02 -0.83696679268E+02  0.30528895780E+03  0.35186558932E+03  0.12499865527E+03 0.  0.
          2    1    1    2  501    0  0.57969878108E+02  0.79675339095E+02 -0.12075569704E+03  0.15585443464E+03  0.00000000000E+00 0. -1.
          1    1    1    2  502    0  0.31351156680E+02  0.40213401736E+01  0.14861851511E+04  0.14865212307E+04  0.00000000000E+00 0. -1.
         22    1    3    3    0    0  0.13633506848E+02  0.21577932099E+02  0.27884033379E+02  0.37802102853E+02  0.00000000000E+00 0. -1.
         22    1    3    3    0    0 -0.10295454164E+03 -0.10527461137E+03  0.27740492442E+03  0.31406348647E+03  0.00000000000E+00 0. -1.
</event>
<event>
 7    1  0.5970484E-006  0.1047237E+03  0.7818608E-02  0.1339643E+00
          2   -1    0    0  502    0  0.00000000000E+00  0.00000000000E+00  0.32024721897E+03  0.32024721897E+03  0.00000000000E+00 0. -1.
          1   -1    0    0  501    0 -0.00000000000E+00 -0.00000000000E+00 -0.40536127160E+03  0.40536127160E+03  0.00000000000E+00 0. -1.
         25    2    1    2    0    0  0.44101624518E+02  0.48805920444E+02 -0.25290554946E+02  0.14349943808E+03  0.12500202160E+03 0.  0.
          2    1    1    2  501    0  0.55707657860E+02 -0.61643362800E+00 -0.30658181088E+03  0.31160251908E+03  0.00000000000E+00 0. -1.
          1    1    1    2  502    0 -0.99809282378E+02 -0.48189486816E+02  0.24675831319E+03  0.27050653341E+03  0.00000000000E+00 0. -1.
         22    1    3    3    0    0  0.53882300150E+02 -0.23856950901E+02  0.13641363600E+02  0.60485892377E+02  0.00000000000E+00 0. -1.
         22    1    3    3    0    0 -0.97806756318E+01  0.72662871346E+02 -0.38931918546E+02  0.83013545700E+02  0.00000000000E+00 0. -1.
</event>
<event>
 7    1  0.5970484E-006  0.6334675E+02  0.7818608E-02  0.1446183E+00
          2   -1    0    0  502    0  0.00000000000E+00  0.00000000000E+00  0.17733636668E+04  0.17733636668E+04  0.00000000000E+00 0. -1.
          1   -1    0    0  501    0 -0.00000000000E+00 -0.00000000000E+00 -0.36173399763E+03  0.36173399763E+03  0.00000000000E+00 0. -1.
         25    2    1    2    0    0  0.90289886081E+02 -0.24413345144E+01  0.10166928245E+04  0.10283227395E+04  0.12500053413E+03 0.  0.
          2    1    1    2  501    0 -0.59430225784E+02 -0.21763801638E+02 -0.35258731840E+03  0.35822260103E+03  0.00000000000E+00 0. -1.
          1    1    1    2  502    0 -0.30859660298E+02  0.24205136152E+02  0.74752416298E+03  0.74855232382E+03  0.00000000000E+00 0. -1.
         22    1    3    3    0    0  0.41723386507E+02  0.50462698862E+02  0.25576220190E+03  0.26401066054E+03  0.00000000000E+00 0.  1.
         22    1    3    3    0    0  0.48566499575E+02 -0.52904033376E+02  0.76093062265E+03  0.76431207901E+03  0.00000000000E+00 0.  1.
</event>
<event>
 7    1  0.5970484E-006  0.4758688E+02  0.7818608E-02  0.1557047E+00
          2   -1    0    0  502    0  0.00000000000E+00  0.00000000000E+00  0.34057285999E+03  0.34057285999E+03  0.00000000000E+00 0. -1.
          1   -1    0    0  501    0 -0.00000000000E+00 -0.00000000000E+00 -0.19557121759E+04  0.19557121759E+04  0.00000000000E+00 0. -1.
         25    2    1    2    0    0 -0.61856183352E+02 -0.17136582579E+02 -0.19882882754E+03  0.24346924627E+03  0.12499808534E+03 0.  0.
          2    1    1    2  501    0  0.39319985189E+02  0.26458239403E+02 -0.17337716308E+04  0.17344192594E+04  0.00000000000E+00 0. -1.
          1    1    1    2  502    0  0.22536198163E+02 -0.93216568239E+01  0.31746114241E+03  0.31839653022E+03  0.00000000000E+00 0. -1.
         22    1    3    3    0    0  0.23540213772E+02  0.22959693884E+02 -0.10651962377E+03  0.11147968180E+03  0.00000000000E+00 0.  1.
         22    1    3    3    0    0 -0.85396397125E+02 -0.40096276463E+02 -0.92309203771E+02  0.13198956447E+03  0.00000000000E+00 0.  1.
</event>
<event>
 7    1  0.5970484E-006  0.4284621E+02  0.7818608E-02  0.1573086E+00
          2   -1    0    0  502    0  0.00000000000E+00  0.00000000000E+00  0.55905740130E+03  0.55905740130E+03  0.00000000000E+00 0. -1.
          1   -1    0    0  501    0 -0.00000000000E+00 -0.00000000000E+00 -0.12164789944E+04  0.12164789944E+04  0.00000000000E+00 0. -1.
         25    2    1    2    0    0 -0.52429100341E+02  0.36565342806E+02 -0.10988833830E+03  0.17828611116E+03  0.12499862271E+03 0.  0.
          2    1    1    2  501    0  0.24043389513E+02 -0.46269253823E+01 -0.10713820001E+04  0.10716617392E+04  0.00000000000E+00 0. -1.
          1    1    1    2  502    0  0.28385710829E+02 -0.31938417423E+02  0.52384874531E+03  0.52558854539E+03  0.00000000000E+00 0. -1.
         22    1    3    3    0    0  0.20672904748E+01  0.13884651919E+02  0.26324454956E+02  0.29833440592E+02  0.00000000000E+00 0. -1.
         22    1    3    3    0    0 -0.54496390816E+02  0.22680690886E+02 -0.13621279326E+03  0.14845267056E+03  0.00000000000E+00 0. -1.
</event>
<event>
 7    1  0.5970484E-006  0.7551439E+02  0.7818608E-02  0.1380325E+00
          2   -1    0    0  502    0  0.00000000000E+00  0.00000000000E+00  0.75356623777E+03  0.75356623777E+03  0.00000000000E+00 0. -1.
          1   -1    0    0  501    0 -0.00000000000E+00 -0.00000000000E+00 -0.28343284351E+03  0.28343284351E+03  0.00000000000E+00 0. -1.
         25    2    1    2    0    0  0.78398604523E+02 -0.78726198325E+02  0.80813271475E+02  0.18574185684E+03  0.12500038817E+03 0.  0.
          2    1    1    2  501    0 -0.24156935962E+02  0.70349386789E+02 -0.22372214051E+03  0.23576299525E+03  0.00000000000E+00 0. -1.
          1    1    1    2  502    0 -0.54241668561E+02  0.83768115357E+01  0.61304226329E+03  0.61549422919E+03  0.00000000000E+00 0. -1.
         22    1    3    3    0    0  0.77826598259E+02 -0.17089203019E+02 -0.52822865320E+01  0.79855637292E+02  0.00000000000E+00 0.  1.
         22    1    3    3    0    0  0.57200626470E+00 -0.61636995306E+02  0.86095558007E+02  0.10588621955E+03  0.00000000000E+00 0.  1.
</event>
<event>
 7    1  0.5970484E-006  0.3200546E+02  0.7818608E-02  0.1586593E+00
          2   -1    0    0  502    0  0.00000000000E+00  0.00000000000E+00  0.37275058578E+03  0.37275058578E+03  0.00000000000E+00 0. -1.
          1   -1    0    0  501    0 -0.00000000000E+00 -0.00000000000E+00 -0.71091689560E+03  0.71091689560E+03  0.00000000000E+00 0. -1.
         25    2    1    2    0    0 -0.36129345377E+02 -0.22391836498E+02  0.40161762050E+02  0.13800188710E+03  0.12499931909E+03 0.  0.
          2    1    1    2  501    0  0.31158601078E+02 -0.73502563077E+01 -0.66080684906E+03  0.66158187434E+03  0.00000000000E+00 0. -1.
          1    1    1    2  502    0  0.49707442993E+01  0.29742092806E+02  0.28247877718E+03  0.28408371995E+03  0.00000000000E+00 0. -1.
         22    1    3    3    0    0 -0.66208837215E+02 -0.24870064578E+02 -0.17553488611E+02  0.72871497857E+02  0.00000000000E+00 0. -1.
         22    1    3    3    0    0  0.30079491838E+02  0.24782280794E+01  0.57715250661E+02  0.65130389240E+02  0.00000000000E+00 0. -1.
</event>
<event>
 7    1  0.5970484E-006  0.8052722E+02  0.7818608E-02  0.1437442E+00
          2   -1    0    0  502    0  0.00000000000E+00  0.00000000000E+00  0.25733569436E+04  0.25733569436E+04  0.00000000000E+00 0. -1.
          1   -1    0    0  501    0 -0.00000000000E+00 -0.00000000000E+00 -0.49988967922E+03  0.49988967922E+03  0.00000000000E+00 0. -1.
         25    2    1    2    0    0 -0.28797817447E+02  0.50486106739E+02  0.35328345999E+03  0.37922582722E+03  0.12499945464E+03 0.  0.
          2    1    1    2  501    0  0.13473501401E+02 -0.79632523708E+02 -0.48344557925E+03  0.49014538880E+03  0.00000000000E+00 0. -1.
          1    1    1    2  502    0  0.15324316046E+02  0.29146416969E+02  0.22036293836E+04  0.22038754068E+04  0.00000000000E+00 0. -1.
         22    1    3    3    0    0 -0.31847406198E+02 -0.28051793224E+02  0.22353557817E+03  0.22752871267E+03  0.00000000000E+00 0. -1.
         22    1    3    3    0    0  0.30495887511E+01  0.78537899964E+02  0.12974788183E+03  0.15169711454E+03  0.00000000000E+00 0. -1.
</event>
<event>
 7    1  0.5970484E-006  0.6760915E+02  0.7818608E-02  0.1475976E+00
          2   -1    0    0  502    0  0.00000000000E+00  0.00000000000E+00  0.10083992441E+04  0.10083992441E+04  0.00000000000E+00 0. -1.
          1   -1    0    0  501    0 -0.00000000000E+00 -0.00000000000E+00 -0.21724079231E+03  0.21724079231E+03  0.00000000000E+00 0. -1.
         25    2    1    2    0    0 -0.36799932637E+02  0.20902820236E+02 -0.10950243114E+03  0.17148321735E+03  0.12499819388E+03 0.  0.
          2    1    1    2  501    0 -0.10569102186E+02  0.27654704170E+02 -0.72667772167E+02  0.78467150422E+02  0.00000000000E+00 0. -1.
          1    1    1    2  502    0  0.47369034822E+02 -0.48557524405E+02  0.97332865514E+03  0.97568966867E+03  0.00000000000E+00 0. -1.
         22    1    3    3    0    0 -0.34278120237E+02 -0.40320792963E+02 -0.94638524317E+02  0.10843065137E+03  0.00000000000E+00 0.  1.
         22    1    3    3    0    0 -0.25218123995E+01  0.61223613198E+02 -0.14863906822E+02  0.63052565982E+02  0.00000000000E+00 0.  1.
</event>
<event>
 7    1  0.5970484E-006  0.7660360E+02  0.7818608E-02  0.1419703E+00
          2   -1    0    0  502    0  0.00000000000E+00  0.00000000000E+00  0.13374594611E+04  0.13374594611E+04  0.00000000000E+00 0. -1.
          1   -1    0    0  501    0 -0.00000000000E+00 -0.00000000000E+00 -0.74694916726E+03  0.74694916726E+03  0.00000000000E+00 0. -1.
         25    2    1    2    0    0  0.11556665723E+03 -0.13125394559E+01  0.24111733283E+02  0.17194081971E+03  0.12499957911E+03 0.  0.
          2    1    1    2  501    0 -0.39577724842E+02  0.15855259264E+01 -0.67128556533E+03  0.67245313623E+03  0.00000000000E+00 0. -1.
          1    1    1    2  502    0 -0.75988932389E+02 -0.27298647055E+00  0.12376841258E+04  0.12400146724E+04  0.00000000000E+00 0. -1.
         22    1    3    3    0    0  0.40073639151E+02  0.60400857434E+02  0.56928218752E+01  0.72708791453E+02  0.00000000000E+00 0. -1.
         22    1    3    3    0    0  0.75493018080E+02 -0.61713396890E+02  0.18418911407E+02  0.99232028257E+02  0.00000000000E+00 0. -1.
</event>
<event>
 7    1  0.5970484E-006  0.6040366E+02  0.7818608E-02  0.1490352E+00
          2   -1    0    0  502    0  0.00000000000E+00  0.00000000000E+00  0.30795547584E+04  0.30795547584E+04  0.00000000000E+00 0. -1.
          1   -1    0    0  501    0 -0.00000000000E+00 -0.00000000000E+00 -0.32611409898E+02  0.32611409898E+02  0.00000000000E+00 0. -1.
         25    2    1    2    0    0 -0.41471561570E+02  0.76310508905E+02  0.45472593383E+03  0.47952385363E+03  0.12499706840E+03 0.  0.
          2    1    1    2  501    0  0.22589085887E+02 -0.19666446529E+02 -0.85833808281E+01  0.31156224847E+02  0.00000000000E+00 0. -1.
          1    1    1    2  502    0  0.18882475683E+02 -0.56644062376E+02  0.26008007955E+04  0.26014860898E+04  0.00000000000E+00 0. -1.
         22    1    3    3    0    0 -0.26302651166E+02 -0.11328158899E+02  0.29757296557E+03  0.29894786583E+03  0.00000000000E+00 0. -1.
         22    1    3    3    0    0 -0.15168910404E+02  0.87638667803E+02  0.15715296826E+03  0.18057598780E+03  0.00000000000E+00 0. -1.
</event>
<event>
 7    1  0.5970484E-006  0.1509651E+03  0.7818608E-02  0.1291905E+00
          2   -1    0    0  502    0  0.00000000000E+00  0.00000000000E+00  0.10161433535E+04  0.10161433535E+04  0.00000000000E+00 0. -1.
          1   -1    0    0  501    0 -0.00000000000E+00 -0.00000000000E+00 -0.86555464647E+03  0.86555464647E+03  0.00000000000E+00 0. -1.
         25    2    1    2    0    0  0.19417559404E+03  0.72744869211E+02  0.25674698665E+03  0.35290098127E+03  0.12499644038E+03 0.  0.
          2    1    1    2  501    0 -0.13549726005E+03 -0.63667512214E+02 -0.80936164695E+03  0.82309132856E+03  0.00000000000E+00 0. -1.
          1    1    1    2  502    0 -0.58678333988E+02 -0.90773569974E+01  0.70320336735E+03  0.70570569018E+03  0.00000000000E+00 0. -1.
         22    1    3    3    0    0  0.43232820755E+02 -0.34198118919E+02  0.79210975753E+02  0.96503713958E+02  0.00000000000E+00 0.  1.
         22    1    3    3    0    0  0.15094277328E+03  0.10694298813E+03  0.17753601090E+03  0.25639726731E+03  0.00000000000E+00 0.  1.
</event>
<event>
 7    1  0.5970484E-006  0.9499839E+02  0.7818608E-02  0.1361219E+00
          2   -1    0    0  502    0  0.00000000000E+00  0.00000000000E+00  0.64610660115E+03  0.64610660115E+03  0.00000000000E+00 0. -1.
          1   -1    0    0  501    0 -0.00000000000E+00 -0.00000000000E+00 -0.36024952141E+03  0.36024952141E+03  0.00000000000E+00 0. -1.
         25    2    1    2    0    0 -0.94903508326E+02  0.25760596758E+02  0.26193341224E+03  0.30643779737E+03  0.12499890789E+03 0.  0.
          2    1    1    2  501    0  0.66464118421E+02 -0.68208641104E+02 -0.32941453447E+03  0.34290499162E+03  0.00000000000E+00 0. -1.
          1    1    1    2  502    0  0.28439389905E+02  0.42448044347E+02  0.35333820198E+03  0.35701333357E+03  0.00000000000E+00 0. -1.
         22    1    3    3    0    0 -0.59492569152E+02  0.30609728775E+02  0.32762145643E+02  0.74496170821E+02  0.00000000000E+00 0.  1.
         22    1    3    3    0    0 -0.35410939174E+02 -0.48491320170E+01  0.22917126659E+03  0.23194162655E+03  0.00000000000E+00 0.  1.
</event>
<event>
 7    1  0.5970484E-006  0.1796249E+03  0.7818608E-02  0.1328890E+00
          2   -1    0    0  502    0  0.00000000000E+00  0.00000000000E+00  0.18090316110E+03  0.18090316110E+03  0.00000000000E+00 0. -1.
          1   -1    0    0  501    0 -0.00000000000E+00 -0.00000000000E+00 -0.12314865966E+04  0.12314865966E+04  0.00000000000E+00 0. -1.
         25    2    1    2    0    0  0.13902710164E+03  0.43406095142E+02 -0.96692775793E+03  0.98579297661E+03  0.12500351831E+03 0.  0.
          2    1    1    2  501    0  0.34412924451E+02  0.94256695145E+01 -0.20522525412E+03  0.20830385868E+03  0.00000000000E+00 0. -1.
          1    1    1    2  502    0 -0.17344002609E+03 -0.52831764657E+02  0.12156957659E+03  0.21829292237E+03  0.00000000000E+00 0. -1.
         22    1    3    3    0    0  0.61724630156E+02 -0.22350567380E+02 -0.16677647614E+03  0.17923133326E+03  0.00000000000E+00 0.  1.
         22    1    3    3    0    0  0.77302471485E+02  0.65756662522E+02 -0.80015128179E+03  0.80656164335E+03  0.00000000000E+00 0.  1.
</event>
<event>
 7    1  0.5970484E-006  0.1268774E+03  0.7818608E-02  0.1320352E+00
          2   -1    0    0  502    0  0.00000000000E+00  0.00000000000E+00  0.14747880647E+04  0.14747880647E+04  0.00000000000E+00 0. -1.
          1   -1    0    0  501    0 -0.00000000000E+00 -0.00000000000E+00 -0.54015179544E+03  0.54015179544E+03  0.00000000000E+00 0. -1.
         25    2    1    2    0    0 -0.80675218306E+02  0.13951225979E+03 -0.88094666340E+02  0.22216531522E+03  0.12499838226E+03 0.  0.
          2    1    1    2  501    0  0.30266143556E+02 -0.11882620811E+03 -0.37471448598E+03  0.39426723575E+03  0.00000000000E+00 0. -1.
          1    1    1    2  502    0  0.50409074750E+02 -0.20686051681E+02  0.13974454215E+04  0.13985073091E+04  0.00000000000E+00 0. -1.
         22    1    3    3    0    0 -0.87351266292E+02  0.57819237554E+02 -0.41424038589E+01  0.10483543038E+03  0.00000000000E+00 0.  1.
         22    1    3    3    0    0  0.66760479860E+01  0.81693022238E+02 -0.83952262481E+02  0.11732988483E+03  0.00000000000E+00 0.  1.
</event>
<event>
 7    1  0.5970484E-006  0.2022925E+03  0.7818608E-02  0.1285326E+00
          2   -1    0    0  502    0  0.00000000000E+00  0.00000000000E+00  0.19085228313E+03  0.19085228313E+03  0.00000000000E+00 0. -1.
          1   -1    0    0  501    0 -0.00000000000E+00 -0.00000000000E+00 -0.38693947742E+03  0.38693947742E+03  0.00000000000E+00 0. -1.
         25    2    1    2    0    0  0.16252750772E+03  0.78592279001E+02 -0.34518719182E+02  0.22227854416E+03  0.12499708851E+03 0.  0.
          2    1    1    2  501    0  0.46648903090E+02  0.67400418762E+01 -0.11578152649E+03  0.12500764057E+03  0.00000000000E+00 0. -1.
          1    1    1    2  502    0 -0.20917641081E+03 -0.85332320877E+02 -0.45786948614E+02  0.23050557583E+03  0.00000000000E+00 0. -1.
         22    1    3    3    0    0  0.16300598782E+03  0.76550942005E+02 -0.65200112488E+02  0.19152559478E+03  0.00000000000E+00 0.  1.
         22    1    3    3    0    0 -0.47848010838E+00  0.20413369952E+01  0.30681393306E+02  0.30752949373E+02  0.00000000000E+00 0.  1.
</event>
<event>
 7    1  0.5970484E-006  0.5244998E+02  0.7818608E-02  0.1482436E+00
          2   -1    0    0  502    0  0.00000000000E+00  0.00000000000E+00  0.15160837879E+04  0.15160837879E+04  0.00000000000E+00 0. -1.
          1   -1    0    0  501    0 -0.00000000000E+00 -0.00000000000E+00 -0.18817295755E+03  0.18817295755E+03  0.00000000000E+00 0. -1.
         25    2    1    2    0    0  0.83845584122E+02 -0.42905544300E+01  0.71995493597E+03  0.73553269649E+03  0.12499898776E+03 0.  0.
          2    1    1    2  501    0 -0.34840819900E+02  0.10738337251E+02 -0.17775737481E+03  0.18145765048E+03  0.00000000000E+00 0. -1.
          1    1    1    2  502    0 -0.49004764222E+02 -0.64477828212E+01  0.78571326919E+03  0.78726639850E+03  0.00000000000E+00 0. -1.
         22    1    3    3    0    0  0.23667872591E+02  0.42056502137E+02  0.10102816039E+03  0.11196252390E+03  0.00000000000E+00 0. -1.
         22    1    3    3    0    0  0.60177711530E+02 -0.46347056567E+02  0.61892677558E+03  0.62357017259E+03  0.00000000000E+00 0. -1.
</event>
<event>
 7    1  0.5970484E-006  0.1411837E+03  0.7818608E-02  0.1344980E+00
          2   -1    0    0  502    0  0.00000000000E+00  0.00000000000E+00  0.92246979774E+03  0.92246979774E+03  0.00000000000E+00 0. -1.
          1   -1    0    0  501    0 -0.00000000000E+00 -0.00000000000E+00 -0.23224076373E+03  0.23224076373E+03  0.00000000000E+00 0. -1.
         25    2    1    2    0    0  0.12118035088E+03  0.58746922702E+02  0.37255439681E+03  0.41538911186E+03  0.12496182340E+03 0.  0.
          2    1    1    2  501    0 -0.10544381699E+03 -0.94936874579E+02 -0.18609167423E+03  0.23401179439E+03  0.00000000000E+00 0. -1.
          1    1    1    2  502    0 -0.15736533888E+02  0.36189951877E+02  0.50376631143E+03  0.50530965521E+03  0.00000000000E+00 0. -1.
         22    1    3    3    0    0  0.56895964564E+02 -0.25722378130E+02  0.65449088518E+02  0.90456479637E+02  0.00000000000E+00 0.  1.
         22    1    3    3    0    0  0.64284386316E+02  0.84469300832E+02  0.30710530829E+03  0.32493263223E+03  0.00000000000E+00 0.  1.
</event>
<event>
 7    1  0.5970484E-006  0.1804948E+03  0.7818608E-02  0.1323393E+00
          2   -1    0    0  502    0  0.00000000000E+00  0.00000000000E+00  0.14556375355E+04  0.14556375355E+04  0.00000000000E+00 0. -1.
          1   -1    0    0  501    0 -0.00000000000E+00 -0.00000000000E+00 -0.90013922084E+02  0.90013922084E+02  0.00000000000E+00 0. -1.
         25    2    1    2    0    0 -0.86182868041E+02  0.18843497038E+03  0.58917464018E+03  0.63693351730E+03  0.12498929562E+03 0.  0.
          2    1    1    2  501    0  0.89087467021E+02 -0.15126972709E+03  0.51696269883E+02  0.18300713492E+03  0.00000000000E+00 0. -1.
          1    1    1    2  502    0 -0.29045989795E+01 -0.37165243292E+02  0.72475270337E+03  0.72571080538E+03  0.00000000000E+00 0. -1.
         22    1    3    3    0    0 -0.20947694533E+02  0.17253332296E+03  0.45035543011E+03  0.48272825364E+03  0.00000000000E+00 0. -1.
         22    1    3    3    0    0 -0.65235173508E+02  0.15901647414E+02  0.13881921007E+03  0.15420526365E+03  0.00000000000E+00 0. -1.
</event>
<event>
 7    1  0.5970484E-006  0.1674476E+03  0.7818608E-02  0.1281305E+00
          2   -1    0    0  502    0  0.00000000000E+00  0.00000000000E+00  0.36822885841E+03  0.36822885841E+03  0.00000000000E+00 0. -1.
          1   -1    0    0  501    0 -0.00000000000E+00 -0.00000000000E+00 -0.36022323027E+03  0.36022323027E+03  0.00000000000E+00 0. -1.
         25    2    1    2    0    0  0.61848307605E+02  0.19394492113E+03 -0.10050698746E+03  0.25916278950E+03  0.12499540531E+03 0.  0.
          2    1    1    2  501    0 -0.71355521996E+02 -0.13556346565E+03 -0.14381382175E+03  0.21012253345E+03  0.00000000000E+00 0. -1.
          1    1    1    2  502    0  0.95072143908E+01 -0.58381455482E+02  0.25232643735E+03  0.25916676572E+03  0.00000000000E+00 0. -1.
         22    1    3    3    0    0  0.75831656649E+02  0.17213338385E+03 -0.12309089783E+03  0.22479259577E+03  0.00000000000E+00 0. -1.
         22    1    3    3    0    0 -0.13983349044E+02  0.21811537281E+02  0.22583910374E+02  0.34370193726E+02  0.00000000000E+00 0. -1.
</event>
<event>
 7    1  0.5970484E-006  0.8721018E+02  0.7818608E-02  0.1317139E+00
          2   -1    0    0  502    0  0.00000000000E+00  0.00000000000E+00  0.15655166142E+03  0.15655166142E+03  0.00000000000E+00 0. -1.
          1   -1    0    0  501    0 -0.00000000000E+00 -0.00000000000E+00 -0.84840227526E+03  0.84840227526E+03  0.00000000000E+00 0. -1.
         25    2    1    2    0    0  0.16143039236E+02  0.12706678891E+02 -0.52193537734E+03  0.53709162226E+03  0.12501525978E+03 0.  0.
          2    1    1    2  501    0 -0.31734024204E+02  0.75160619808E+02 -0.29956081690E+03  0.31047197955E+03  0.00000000000E+00 0. -1.
          1    1    1    2  502    0  0.15590984968E+02 -0.87867298699E+02  0.12964558040E+03  0.15739033487E+03  0.00000000000E+00 0. -1.
         22    1    3    3    0    0 -0.22484193268E+02 -0.13195461351E+01 -0.12032620992E+02  0.25535546143E+02  0.00000000000E+00 0.  1.
         22    1    3    3    0    0  0.38627232503E+02  0.14026225026E+02 -0.50990275635E+03  0.51155607612E+03  0.00000000000E+00 0.  1.
</event>
<event>
 7    1  0.5970484E-006  0.1199792E+03  0.7818608E-02  0.1247451E+00
          2   -1    0    0  502    0  0.00000000000E+00  0.00000000000E+00  0.36629139280E+03  0.36629139280E+03  0.00000000000E+00 0. -1.
          1   -1    0    0  501    0 -0.00000000000E+00 -0.00000000000E+00 -0.29776541448E+03  0.29776541448E+03  0.00000000000E+00 0. -1.
         25    2    1    2    0    0 -0.32999371471E+02 -0.33416153437E+02  0.18350946344E+02  0.13477901015E+03  0.12499210582E+03 0.  0.
          2    1    1    2  501    0 -0.11394705659E+03  0.14561216496E+02 -0.20455197868E+03  0.23460066649E+03  0.00000000000E+00 0. -1.
          1    1    1    2  502    0  0.14694642806E+03  0.18854936941E+02  0.25472701066E+03  0.29467713065E+03  0.00000000000E+00 0. -1.
         22    1    3    3    0    0  0.15077575643E+01  0.43291747037E+02 -0.12663628531E+02  0.45131099942E+02  0.00000000000E+00 0.  1.
         22    1    3    3    0    0 -0.34507129035E+02 -0.76707900475E+02  0.31014574875E+02  0.89647910205E+02  0.00000000000E+00 0.  1.
</event>
<event>
 7    1  0.5970484E-006  0.8180401E+02  0.7818608E-02  0.1487971E+00
          2   -1    0    0  502    0  0.00000000000E+00  0.00000000000E+00  0.49430352073E+03  0.49430352073E+03  0.00000000000E+00 0. -1.
          1   -1    0    0  501    0 -0.00000000000E+00 -0.00000000000E+00 -0.51535426788E+02  0.51535426788E+02  0.00000000000E+00 0. -1.
         25    2    1    2    0    0  0.50173907004E+02 -0.46533220111E+02  0.89959533853E+02  0.16852421848E+03  0.12499973186E+03 0.  0.
          2    1    1    2  501    0 -0.25900647790E+01 -0.22336090121E+02  0.10313112460E+02  0.24738020254E+02  0.00000000000E+00 0. -1.
          1    1    1    2  502    0 -0.47583842225E+02  0.68869310232E+02  0.34249544763E+03  0.35257670879E+03  0.00000000000E+00 0. -1.
         22    1    3    3    0    0  0.18825527775E+02 -0.97907036558E+01 -0.31405394465E+02  0.37901941581E+02  0.00000000000E+00 0.  1.
         22    1    3    3    0    0  0.31348379228E+02 -0.36742516455E+02  0.12136492832E+03  0.13062227690E+03  0.00000000000E+00 0.  1.
</event>
<event>
 7    1  0.5970484E-006  0.1510423E+03  0.7818608E-02  0.1200903E+00
          2   -1    0    0  502    0  0.00000000000E+00  0.00000000000E+00  0.36745390588E+03  0.36745390588E+03  0.00000000000E+00 0. -1.
          1   -1    0    0  501    0 -0.00000000000E+00 -0.00000000000E+00 -0.23324799620E+04  0.23324799620E+04  0.00000000000E+00 0. -1.
         25    2    1    2    0    0 -0.19111276577E+02  0.13446555834E+03 -0.12062934907E+03  0.22050839845E+03  0.12500514654E+03 0.  0.
          2    1    1    2  501    0 -0.12834277253E+03 -0.79636094731E+02 -0.21395974710E+04  0.21449221694E+04  0.00000000000E+00 0. -1.
          1    1    1    2  502    0  0.14745404911E+03 -0.54829463605E+02  0.29520076397E+03  0.33450330002E+03  0.00000000000E+00 0. -1.
         22    1    3    3    0    0  0.27072312120E+02  0.13032204016E+02 -0.78301009043E+02  0.83867731830E+02  0.00000000000E+00 0. -1.
         22    1    3    3    0    0 -0.46183588698E+02  0.12143335432E+03 -0.42328340027E+02  0.13664066663E+03  0.00000000000E+00 0. -1.
</event>
<event>
 7    1  0.5970484E-006  0.6070926E+02  0.7818608E-02  0.1403710E+00
          2   -1    0    0  502    0  0.00000000000E+00  0.00000000000E+00  0.73977998455E+03  0.73977998455E+03  0.00000000000E+00 0. -1.
          1   -1    0    0  501    0 -0.00000000000E+00 -0.00000000000E+00 -0.76381277047E+03  0.76381277047E+03  0.00000000000E+00 0. -1.
         25    2    1    2    0    0  0.65223368681E+02 -0.91106777685E+02  0.17368779207E+03  0.24154980453E+03  0.12499730474E+03 0.  0.
          2    1    1    2  501    0 -0.47502794831E+02  0.37346869824E+02 -0.72711971927E+03  0.72962619905E+03  0.00000000000E+00 0. -1.
          1    1    1    2  502    0 -0.17720573851E+02  0.53759907861E+02  0.52939914127E+03  0.53241675143E+03  0.00000000000E+00 0. -1.
         22    1    3    3    0    0  0.59938394817E+02 -0.11769339426E+03  0.16825816941E+03  0.21390455301E+03  0.00000000000E+00 0. -1.
         22    1    3    3    0    0  0.52849738645E+01  0.26586616571E+02  0.54296226625E+01  0.27645251522E+02  0.00000000000E+00 0. -1.
</event>
<event>
 7    1  0.5970484E-006  0.3945536E+02  0.7818608E-02  0.1539433E+00
          2   -1    0    0  502    0  0.00000000000E+00  0.00000000000E+00  0.12535468235E+03  0.12535468235E+03  0.00000000000E+00 0. -1.
          1   -1    0    0  501    0 -0.00000000000E+00 -0.00000000000E+00 -0.19244241366E+03  0.19244241366E+03  0.00000000000E+00 0. -1.
         25    2    1    2    0    0  0.42400269831E+01  0.48802775440E+01 -0.10489700916E+03  0.16330658542E+03  0.12499545342E+03 0.  0.
          2    1    1    2  501    0 -0.38453804544E+02  0.14770237083E+02 -0.46066673889E+02  0.61798005069E+02  0.00000000000E+00 0. -1.
          1    1    1    2  502    0  0.34213777561E+02 -0.19650514627E+02  0.83875951739E+02  0.92692505524E+02  0.00000000000E+00 0. -1.
         22    1    3    3    0    0 -0.80536218539E+01  0.44823972258E+01 -0.13263964289E+03  0.13295949600E+03  0.00000000000E+00 0. -1.
         22    1    3    3    0    0  0.12293648837E+02  0.39788031815E+00  0.27742633730E+02  0.30347089428E+02  0.00000000000E+00 0. -1.
</event>
<event>
 7    1  0.5970484E-006  0.9591914E+02  0.7818608E-02  0.1438105E+00
          2   -1    0    0  502    0  0.00000000000E+00  0.00000000000E+00  0.10498299645E+04  0.10498299645E+04  0.00000000000E+00 0. -1.
          1   -1    0    0  501    0 -0.00000000000E+00 -0.00000000000E+00 -0.14304232757E+04  0.14304232757E+04  0.00000000000E+00 0. -1.
         25    2    1    2    0    0 -0.56830491400E+02  0.10231477295E+03  0.33804754741E+03  0.37894546159E+03  0.12500200411E+03 0.  0.
          2    1    1    2  501    0  0.32084930815E+02 -0.90299664657E+02 -0.14080714109E+04  0.14113286543E+04  0.00000000000E+00 0. -1.
          1    1    1    2  502    0  0.24745560585E+02 -0.12015108295E+02  0.68943055226E+03  0.68997912431E+03  0.00000000000E+00 0. -1.
         22    1    3    3    0    0 -0.31871351259E+02  0.12373164826E+03  0.31147757325E+03  0.33666538648E+03  0.00000000000E+00 0. -1.
         22    1    3    3    0    0 -0.24959140141E+02 -0.21416875310E+02  0.26569974153E+02  0.42280075108E+02  0.00000000000E+00 0. -1.
</event>
<event>
 7    1  0.5970484E-006  0.5303928E+02  0.7818608E-02  0.1479682E+00
          2   -1    0    0  502    0  0.00000000000E+00  0.00000000000E+00  0.19858992960E+04  0.19858992960E+04  0.00000000000E+00 0. -1.
          1   -1    0    0  501    0 -0.00000000000E+00 -0.00000000000E+00 -0.37253798178E+03  0.37253798178E+03  0.00000000000E+00 0. -1.
         25    2    1    2    0    0  0.32525383604E+02  0.64138755184E+02  0.18429848995E+03  0.23401430830E+03  0.12500033038E+03 0.  0.
          2    1    1    2  501    0 -0.44128242684E+02 -0.29257938130E+02 -0.34547287666E+03  0.34950656253E+03  0.00000000000E+00 0. -1.
          1    1    1    2  502    0  0.11602859080E+02 -0.34880817054E+02  0.17745357009E+04  0.17749164069E+04  0.00000000000E+00 0. -1.
         22    1    3    3    0    0 -0.31922633509E+00  0.39423426669E+02  0.18860768538E+03  0.19268411315E+03  0.00000000000E+00 0. -1.
         22    1    3    3    0    0  0.32844609939E+02  0.24715328515E+02 -0.43091954343E+01  0.41330195148E+02  0.00000000000E+00 0. -1.
</event>
<event>
 7    1  0.5970484E-006  0.9748816E+02  0.7818608E-02  0.1292821E+00
          2   -1    0    0  502    0  0.00000000000E+00  0.00000000000E+00  0.13234912835E+04  0.13234912835E+04  0.00000000000E+00 0. -1.
          1   -1    0    0  501    0 -0.00000000000E+00 -0.00000000000E+00 -0.42287799953E+03  0.42287799953E+03  0.00000000000E+00 0. -1.
         25    2    1    2    0    0 -0.47714504708E+02 -0.11915257440E+03  0.44899095397E+03  0.48341712220E+03  0.12500090936E+03 0.  0.
          2    1    1    2  501    0  0.86276195672E+02  0.29452669700E+02 -0.39771065588E+03  0.40802549858E+03  0.00000000000E+00 0. -1.
          1    1    1    2  502    0 -0.38561690964E+02  0.89699904702E+02  0.84933298592E+03  0.85492666229E+03  0.00000000000E+00 0. -1.
         22    1    3    3    0    0 -0.46283469710E+02 -0.99923816436E+02  0.16262171433E+03  0.19639946699E+03  0.00000000000E+00 0. -1.
         22    1    3    3    0    0 -0.14310349982E+01 -0.19228757966E+02  0.28636923964E+03  0.28701765521E+03  0.00000000000E+00 0. -1.
</event>
<event>
 7    1  0.5970484E-006  0.1193110E+03  0.7818608E-02  0.1335110E+00
          2   -1    0    0  502    0  0.00000000000E+00  0.00000000000E+00  0.34256903641E+03  0.34256903641E+03  0.00000000000E+00 0. -1.
          1   -1    0    0  501    0 -0.00000000000E+00 -0.00000000000E+00 -0.10856098872E+04  0.10856098872E+04  0.00000000000E+00 0. -1.
         25    2    1    2    0    0  0.11673826364E+03 -0.26796471747E+02  0.22974332173E+03  0.28766821140E+03  0.12500053150E+03 0.  0.
          2    1    1    2  501    0 -0.11699536116E+03 -0.24068912818E+02 -0.10452069017E+04  0.10520098357E+04  0.00000000000E+00 0. -1.
          1    1    1    2  502    0  0.25709752284E+00  0.50865384564E+02  0.72422729152E+02  0.88500876515E+02  0.00000000000E+00 0. -1.
         22    1    3    3    0    0 -0.15450223108E+02 -0.21012096310E+02  0.96212721150E+02  0.99685030453E+02  0.00000000000E+00 0. -1.
         22    1    3    3    0    0  0.13218848675E+03 -0.57843754370E+01  0.13353060058E+03  0.18798318095E+03  0.00000000000E+00 0. -1.
</event>
<event>
 7    1  0.5970484E-006  0.7010107E+02  0.7818608E-02  0.1484864E+00
          2   -1    0    0  502    0  0.00000000000E+00  0.00000000000E+00  0.14686548870E+02  0.14686548870E+02  0.00000000000E+00 0. -1.
          1   -1    0    0  501    0 -0.00000000000E+00 -0.00000000000E+00 -0.22705621093E+04  0.22705621093E+04  0.00000000000E+00 0. -1.
         25    2    1    2    0    0 -0.34245981481E+02  0.55127224823E+02 -0.80867396597E+03  0.82084963643E+03  0.12501497600E+03 0.  0.
          2    1    1    2  501    0  0.57718820816E+02 -0.42159622006E+02 -0.14315817010E+04  0.14333649440E+04  0.00000000000E+00 0. -1.
          1    1    1    2  502    0 -0.23472839336E+02 -0.12967602817E+02 -0.15619893423E+02  0.31034077718E+02  0.00000000000E+00 0. -1.
         22    1    3    3    0    0 -0.52897296598E+02  0.73270040462E+02 -0.76260240465E+03  0.76793818136E+03  0.00000000000E+00 0. -1.
         22    1    3    3    0    0  0.18651315118E+02 -0.18142815638E+02 -0.46071561322E+02  0.52911455069E+02  0.00000000000E+00 0. -1.
</event>
<event>
 7    1  0.5970484E-006  0.8911239E+02  0.7818608E-02  0.1384140E+00
          2   -1    0    0  502    0  0.00000000000E+00  0.00000000000E+00  0.68011832288E+03  0.68011832288E+03  0.00000000000E+00 0. -1.
          1   -1    0    0  501    0 -0.00000000000E+00 -0.00000000000E+00 -0.18877544025E+03  0.18877544025E+03  0.00000000000E+00 0. -1.
         25    2    1    2    0    0  0.19219117869E+02 -0.83912005855E+02 -0.62083876380E+02  0.16398459972E+03  0.12500376802E+03 0.  0.
          2    1    1    2  501    0 -0.62537355537E+02  0.71398467712E+02 -0.44820966954E+02  0.10496466600E+03  0.00000000000E+00 0. -1.
          1    1    1    2  502    0  0.43318237668E+02  0.12513538143E+02  0.59824772596E+03  0.59994449741E+03  0.00000000000E+00 0. -1.
         22    1    3    3    0    0  0.37434475489E+02 -0.62364942651E+02 -0.95630930416E+02  0.12014991003E+03  0.00000000000E+00 0. -1.
         22    1    3    3    0    0 -0.18215357620E+02 -0.21547063204E+02  0.33547054036E+02  0.43834689693E+02  0.00000000000E+00 0. -1.
</event>
<event>
 7    1  0.5970484E-006  0.5510714E+02  0.7818608E-02  0.1434550E+00
          2   -1    0    0  502    0  0.00000000000E+00  0.00000000000E+00  0.10390239562E+04  0.10390239562E+04  0.00000000000E+00 0. -1.
          1   -1    0    0  501    0 -0.00000000000E+00 -0.00000000000E+00 -0.57358519140E+03  0.57358519140E+03  0.00000000000E+00 0. -1.
         25    2    1    2    0    0  0.36195801201E+02 -0.58745474077E+02 -0.39181412652E+03  0.41701772034E+03  0.12499721031E+03 0.  0.
          2    1    1    2  501    0 -0.48909929360E+02  0.51132669995E+01 -0.16483712371E+03  0.17201629005E+03  0.00000000000E+00 0. -1.
          1    1    1    2  502    0  0.12714128159E+02  0.53632207077E+02  0.10220900151E+04  0.10235751372E+04  0.00000000000E+00 0. -1.
         22    1    3    3    0    0  0.60178933060E+02 -0.77457046725E+02 -0.19946022228E+03  0.22227343149E+03  0.00000000000E+00 0. -1.
         22    1    3    3    0    0 -0.23983131859E+02  0.18711572648E+02 -0.19235390424E+03  0.19474428885E+03  0.00000000000E+00 0. -1.
</event>
<event>
 7    1  0.5970484E-006  0.3460102E+02  0.7818608E-02  0.1558970E+00
          2   -1    0    0  502    0  0.00000000000E+00  0.00000000000E+00  0.73197393366E+03  0.73197393366E+03  0.00000000000E+00 0. -1.
          1   -1    0    0  501    0 -0.00000000000E+00 -0.00000000000E+00 -0.12311300958E+03  0.12311300958E+03  0.00000000000E+00 0. -1.
         25    2    1    2    0    0 -0.17770966055E+02 -0.14013947764E+02  0.23068040192E+02  0.12910804973E+03  0.12499822423E+03 0.  0.
          2    1    1    2  501    0  0.26675132228E+02 -0.19653556774E+02 -0.65686185558E+02  0.73569694484E+02  0.00000000000E+00 0. -1.
          1    1    1    2  502    0 -0.89041661733E+01  0.33667504539E+02  0.65147906945E+03  0.65240919902E+03  0.00000000000E+00 0. -1.
         22    1    3    3    0    0 -0.71033303736E-01  0.21794516329E+02  0.66571319430E+02  0.70048173126E+02  0.00000000000E+00 0.  1.
         22    1    3    3    0    0 -0.17699932751E+02 -0.35808464094E+02 -0.43503279237E+02  0.59059876605E+02  0.00000000000E+00 0.  1.
</event>
<event>
 7    1  0.5970484E-006  0.1187607E+03  0.7818608E-02  0.1331104E+00
          2   -1    0    0  502    0  0.00000000000E+00  0.00000000000E+00  0.13143261169E+03  0.13143261169E+03  0.00000000000E+00 0. -1.
          1   -1    0    0  501    0 -0.00000000000E+00 -0.00000000000E+00 -0.13445839806E+04  0.13445839806E+04  0.00000000000E+00 0. -1.
         25    2    1    2    0    0  0.10811826654E+03  0.52411197307E+02 -0.86155696003E+02  0.19360811756E+03  0.12499922427E+03 0.  0.
          2    1    1    2  501    0 -0.74433241556E+02 -0.93233142220E+02 -0.11923545245E+04  0.11983079898E+04  0.00000000000E+00 0. -1.
          1    1    1    2  502    0 -0.33685024988E+02  0.40821944913E+02  0.65358851566E+02  0.84100484974E+02  0.00000000000E+00 0. -1.
         22    1    3    3    0    0  0.10244926057E+03  0.87523744523E+02 -0.52408080293E+02  0.14457822702E+03  0.00000000000E+00 0. -1.
         22    1    3    3    0    0  0.56690059708E+01 -0.35112547215E+02 -0.33747615710E+02  0.49029890544E+02  0.00000000000E+00 0. -1.
</event>
<event>
 7    1  0.5970484E-006  0.4495954E+02  0.7818608E-02  0.1497231E+00
          2   -1    0    0  502    0  0.00000000000E+00  0.00000000000E+00  0.49858940732E+03  0.49858940732E+03  0.00000000000E+00 0. -1.
          1   -1    0    0  501    0 -0.00000000000E+00 -0.00000000000E+00 -0.44524153539E+02  0.44524153539E+02  0.00000000000E+00 0. -1.
         25    2    1    2    0    0  0.12371438914E+02  0.43424653231E+02  0.21609811232E+03  0.25371713787E+03  0.12504094885E+03 0.  0.
          2    1    1    2  501    0  0.25684928536E+02 -0.38561893654E+02 -0.20054976576E+01  0.46376257039E+02  0.00000000000E+00 0. -1.
          1    1    1    2  502    0 -0.38056367450E+02 -0.48627595761E+01  0.23997263912E+03  0.24302016596E+03  0.00000000000E+00 0. -1.
         22    1    3    3    0    0  0.10387882396E+02 -0.30907069511E+02  0.92245252125E+01  0.33885792183E+02  0.00000000000E+00 0. -1.
         22    1    3    3    0    0  0.19835565187E+01  0.74331722742E+02  0.20687358711E+03  0.21983134569E+03  0.00000000000E+00 0. -1.
</event>
<event>
 7    1  0.5970484E-006  0.9126036E+02  0.7818608E-02  0.1470257E+00
          2   -1    0    0  502    0  0.00000000000E+00  0.00000000000E+00  0.28859700041E+04  0.28859700041E+04  0.00000000000E+00 0. -1.
          1   -1    0    0  501    0 -0.00000000000E+00 -0.00000000000E+00 -0.11432254336E+04  0.11432254336E+04  0.00000000000E+00 0. -1.
         25    2    1    2    0    0  0.25279534548E+02  0.90884853274E+02  0.26883720959E+04  0.26929274491E+04  0.12495842584E+03 0.  0.
          2    1    1    2  501    0 -0.24361954008E+01 -0.91227653061E+02 -0.11384474316E+04  0.11420993715E+04  0.00000000000E+00 0. -1.
          1    1    1    2  502    0 -0.22843339148E+02  0.34279978711E+00  0.19281990625E+03  0.19416861719E+03  0.00000000000E+00 0. -1.
         22    1    3    3    0    0 -0.19901620600E+02 -0.16860474560E+02  0.18491969169E+03  0.18675021413E+03  0.00000000000E+00 0. -1.
         22    1    3    3    0    0  0.45181155148E+02  0.10774532783E+03  0.25034524043E+04  0.25061772349E+04  0.00000000000E+00 0. -1.
</event>
<event>
 7    1  0.5970484E-006  0.5906724E+02  0.7818608E-02  0.1412968E+00
          2   -1    0    0  502    0  0.00000000000E+00  0.00000000000E+00  0.37784433210E+04  0.37784433210E+04  0.00000000000E+00 0. -1.
          1   -1    0    0  501    0 -0.00000000000E+00 -0.00000000000E+00 -0.22869594597E+03  0.22869594597E+03  0.00000000000E+00 0. -1.
         25    2    1    2    0    0 -0.77846792422E+00  0.80013139389E+02 -0.21840406490E+02  0.15001772947E+03  0.12500242922E+03 0.  0.
          2    1    1    2  501    0 -0.39392943785E+02 -0.43754613047E+02 -0.13649123989E+03  0.14864766648E+03  0.00000000000E+00 0. -1.
          1    1    1    2  502    0  0.40171411709E+02 -0.36258526342E+02  0.37080790214E+04  0.37084738710E+04  0.00000000000E+00 0. -1.
         22    1    3    3    0    0  0.56670384061E+02  0.12159730703E+02 -0.19248760249E+02  0.61072958431E+02  0.00000000000E+00 0.  1.
         22    1    3    3    0    0 -0.57448851985E+02  0.67853408686E+02 -0.25916462410E+01  0.88944771038E+02  0.00000000000E+00 0.  1.
</event>
<event>
 7    1  0.5970484E-006  0.8688374E+02  0.7818608E-02  0.1373252E+00
          2   -1    0    0  502    0  0.00000000000E+00  0.00000000000E+00  0.50665429099E+04  0.50665429099E+04  0.00000000000E+00 0. -1.
          1   -1    0    0  501    0 -0.00000000000E+00 -0.00000000000E+00 -0.14090649463E+03  0.14090649463E+03  0.00000000000E+00 0. -1.
         25    2    1    2    0    0 -0.50840080801E+02 -0.12260919267E+03  0.24626596233E+02  0.18398322275E+03  0.12500251625E+03 0.  0.
          2    1    1    2  501    0  0.27859798400E+01  0.50472099572E+02 -0.50350754646E+02  0.71346990212E+02  0.00000000000E+00 0. -1.
          1    1    1    2  502    0  0.48054100961E+02  0.72137093096E+02  0.49513605736E+04  0.49521191915E+04  0.00000000000E+00 0. -1.
         22    1    3    3    0    0 -0.12558736609E+02 -0.85957786405E+01 -0.43273180077E+02  0.45871313363E+02  0.00000000000E+00 0.  1.
         22    1    3    3    0    0 -0.38281344192E+02 -0.11401341403E+03  0.67899776310E+02  0.13811190939E+03  0.00000000000E+00 0.  1.
</event>
<event>
 7    1  0.5970484E-006  0.1096200E+03  0.7818608E-02  0.1264321E+00
          2   -1    0    0  502    0  0.00000000000E+00  0.00000000000E+00  0.99250619763E+03  0.99250619763E+03  0.00000000000E+00 0. -1.
          1   -1    0    0  501    0 -0.00000000000E+00 -0.00000000000E+00 -0.58963389410E+03  0.58963389410E+03  0.00000000000E+00 0. -1.
         25    2    1    2    0    0  0.56422637490E+02  0.25198125532E+01  0.13501179715E+03  0.19246490618E+03  0.12499876505E+03 0.  0.
          2    1    1    2  501    0 -0.45136269756E+02  0.10328147944E+03 -0.55177126415E+03  0.56316593894E+03  0.00000000000E+00 0. -1.
          1    1    1    2  502    0 -0.11286367734E+02 -0.10580129199E+03  0.81963177052E+03  0.82650924661E+03  0.00000000000E+00 0. -1.
         22    1    3    3    0    0 -0.10289096964E+02 -0.40658486511E+02  0.80819887669E+01  0.42711785073E+02  0.00000000000E+00 0.  1.
         22    1    3    3    0    0  0.66711734453E+02  0.43178299064E+02  0.12692980839E+03  0.14975312111E+03  0.00000000000E+00 0.  1.
</event>
<event>
 7    1  0.5970484E-006  0.1685425E+03  0.7818608E-02  0.1262286E+00
          2   -1    0    0  502    0  0.00000000000E+00  0.00000000000E+00  0.53697483910E+03  0.53697483910E+03  0.00000000000E+00 0. -1.
          1   -1    0    0  501    0 -0.00000000000E+00 -0.00000000000E+00 -0.57222453034E+03  0.57222453034E+03  0.00000000000E+00 0. -1.
         25    2    1    2    0    0 -0.50206687784E+02 -0.19281423442E+03 -0.55601378726E+01  0.23527459310E+03  0.12500071414E+03 0.  0.
          2    1    1    2  501    0 -0.43146602881E+02  0.55874130072E+02 -0.43256721429E+03  0.43828979298E+03  0.00000000000E+00 0. -1.
          1    1    1    2  502    0  0.93353290665E+02  0.13694010434E+03  0.40287766092E+03  0.43563498336E+03  0.00000000000E+00 0. -1.
         22    1    3    3    0    0 -0.78898647913E+02 -0.59754906750E+02  0.13422387830E+01  0.98982054576E+02  0.00000000000E+00 0. -1.
         22    1    3    3    0    0  0.28691960129E+02 -0.13305932767E+03 -0.69023766556E+01  0.13629253853E+03  0.00000000000E+00 0. -1.
</event>
<event>
 7    1  0.5970484E-006  0.8600549E+02  0.7818608E-02  0.1370907E+00
          2   -1    0    0  502    0  0.00000000000E+00  0.00000000000E+00  0.60140950412E+02  0.60140950412E+02  0.00000000000E+00 0. -1.
          1   -1    0    0  501    0 -0.00000000000E+00 -0.00000000000E+00 -0.18167693062E+04  0.18167693062E+04  0.00000000000E+00 0. -1.
         25    2    1    2    0    0 -0.77319208658E+01  0.53898274410E+02 -0.17934700158E+03  0.22528852405E+03  0.12499906204E+03 0.  0.
          2    1    1    2  501    0 -0.37435524054E+02 -0.79791981876E+02 -0.15943863616E+04  0.15968206063E+04  0.00000000000E+00 0. -1.
          1    1    1    2  502    0  0.45167444919E+02  0.25893707466E+02  0.17105007308E+02  0.54801126283E+02  0.00000000000E+00 0. -1.
         22    1    3    3    0    0  0.14079097257E+02  0.89492872242E+02 -0.14615801478E+03  0.17195743789E+03  0.00000000000E+00 0.  1.
         22    1    3    3    0    0 -0.21811018123E+02 -0.35594597832E+02 -0.33188986798E+02  0.53331086160E+02  0.00000000000E+00 0.  1.
</event>
<event>
 7    1  0.5970484E-006  0.2847382E+02  0.7818608E-02  0.1627096E+00
          2   -1    0    0  502    0  0.00000000000E+00  0.00000000000E+00  0.14361360406E+04  0.14361360406E+04  0.00000000000E+00 0. -1.
          1   -1    0    0  501    0 -0.00000000000E+00 -0.00000000000E+00 -0.17226893169E+03  0.17226893169E+03  0.00000000000E+00 0. -1.
         25    2    1    2    0    0 -0.31892248618E+02  0.43807279782E+02 -0.83379425103E+00  0.13624284238E+03  0.12500089441E+03 0.  0.
          2    1    1    2  501    0  0.14375992942E+02 -0.23761742747E+02 -0.10173977191E+03  0.10546217701E+03  0.00000000000E+00 0. -1.
          1    1    1    2  502    0  0.17516255677E+02 -0.20045537035E+02  0.13664406751E+04  0.13666999529E+04  0.00000000000E+00 0. -1.
         22    1    3    3    0    0  0.47147957708E+02  0.10670814754E+02 -0.12015445725E+02  0.49811315376E+02  0.00000000000E+00 0. -1.
         22    1    3    3    0    0 -0.79040206327E+02  0.33136465028E+02  0.11181651474E+02  0.86431527005E+02  0.00000000000E+00 0. -1.
</event>
<event>
 7    1  0.5970484E-006  0.1155795E+03  0.7818608E-02  0.1264895E+00
          2   -1    0    0  502    0  0.00000000000E+00  0.00000000000E+00  0.13644883106E+04  0.13644883106E+04  0.00000000000E+00 0. -1.
          1   -1    0    0  501    0 -0.00000000000E+00 -0.00000000000E+00 -0.95292835876E+02  0.95292835876E+02  0.00000000000E+00 0. -1.
         25    2    1    2    0    0 -0.30669138719E+02 -0.27915044403E+01  0.30186306859E+03  0.32816760594E+03  0.12499710732E+03 0.  0.
          2    1    1    2  501    0  0.12299508666E+03  0.42115508961E+02 -0.26540469810E+02  0.13268724119E+03  0.00000000000E+00 0. -1.
          1    1    1    2  502    0 -0.92325947940E+02 -0.39324004520E+02  0.99387287595E+03  0.99892629936E+03  0.00000000000E+00 0. -1.
         22    1    3    3    0    0  0.16071572924E+02  0.13184156660E+02  0.26676167475E+03  0.26757038057E+03  0.00000000000E+00 0. -1.
         22    1    3    3    0    0 -0.46740711644E+02 -0.15975661100E+02  0.35101393845E+02  0.60597225369E+02  0.00000000000E+00 0. -1.
</event>
<event>
 7    1  0.5970484E-006  0.1028637E+03  0.7818608E-02  0.1300452E+00
          2   -1    0    0  502    0  0.00000000000E+00  0.00000000000E+00  0.62811202795E+03  0.62811202795E+03  0.00000000000E+00 0. -1.
          1   -1    0    0  501    0 -0.00000000000E+00 -0.00000000000E+00 -0.45887134207E+03  0.45887134207E+03  0.00000000000E+00 0. -1.
         25    2    1    2    0    0 -0.73102879486E+02 -0.21196520264E+02 -0.64961741201E+00  0.14635210436E+03  0.12500077194E+03 0.  0.
          2    1    1    2  501    0  0.91871623302E+02 -0.57086801785E+02 -0.37476357510E+03  0.39006029704E+03  0.00000000000E+00 0. -1.
          1    1    1    2  502    0 -0.18768743816E+02  0.78283322049E+02  0.54465387839E+03  0.55057096863E+03  0.00000000000E+00 0. -1.
         22    1    3    3    0    0 -0.61835441588E+02  0.44276452506E+02 -0.17010159250E+02  0.77931839454E+02  0.00000000000E+00 0.  1.
         22    1    3    3    0    0 -0.11267437898E+02 -0.65472972770E+02  0.16360541838E+02  0.68420264903E+02  0.00000000000E+00 0.  1.
</event>
<event>
 7    1  0.5970484E-006  0.6959923E+02  0.7818608E-02  0.1445466E+00
          2   -1    0    0  502    0  0.00000000000E+00  0.00000000000E+00  0.61681021872E+03  0.61681021872E+03  0.00000000000E+00 0. -1.
          1   -1    0    0  501    0 -0.00000000000E+00 -0.00000000000E+00 -0.10815239039E+04  0.10815239039E+04  0.00000000000E+00 0. -1.
         25    2    1    2    0    0  0.89117889621E+02 -0.34689210544E+02  0.21202980512E+03  0.26405971135E+03  0.12500221326E+03 0.  0.
          2    1    1    2  501    0 -0.22479160922E+02  0.27974164575E+02 -0.10522398533E+04  0.10528516398E+04  0.00000000000E+00 0. -1.
          1    1    1    2  502    0 -0.66638728699E+02  0.67150459691E+01  0.37549636297E+03  0.38142277149E+03  0.00000000000E+00 0. -1.
         22    1    3    3    0    0  0.62150557365E+02  0.39580153617E+02  0.13450527142E+03  0.15336540803E+03  0.00000000000E+00 0. -1.
         22    1    3    3    0    0  0.26967332256E+02 -0.74269364161E+02  0.77524533701E+02  0.11069430332E+03  0.00000000000E+00 0. -1.
</event>
<event>
 7    1  0.5970484E-006  0.4584655E+02  0.7818608E-02  0.1509122E+00
          2   -1    0    0  502    0  0.00000000000E+00  0.00000000000E+00  0.28603327947E+03  0.28603327947E+03  0.00000000000E+00 0. -1.
          1   -1    0    0  501    0 -0.00000000000E+00 -0.00000000000E+00 -0.29399871136E+03  0.29399871136E+03  0.00000000000E+00 0. -1.
         25    2    1    2    0    0  0.14251265869E+02 -0.34057565793E+01  0.86753097893E+02  0.15285712570E+03  0.12499801250E+03 0.  0.
          2    1    1    2  501    0  0.34073226495E+02 -0.64798396750E+01 -0.25609266581E+03  0.25843069974E+03  0.00000000000E+00 0. -1.
          1    1    1    2  502    0 -0.48324492364E+02  0.98855962543E+01  0.16137413602E+03  0.16874416539E+03  0.00000000000E+00 0. -1.
         22    1    3    3    0    0 -0.29208445359E+02 -0.22075306639E+02 -0.15834966992E+02  0.39889831074E+02  0.00000000000E+00 0.  1.
         22    1    3    3    0    0  0.43459711228E+02  0.18669550059E+02  0.10258806488E+03  0.11296729463E+03  0.00000000000E+00 0.  1.
</event>
<event>
 7    1  0.5970484E-006  0.3045920E+03  0.7818608E-02  0.1292192E+00
          2   -1    0    0  502    0  0.00000000000E+00  0.00000000000E+00  0.11857695209E+04  0.11857695209E+04  0.00000000000E+00 0. -1.
          1   -1    0    0  501    0 -0.00000000000E+00 -0.00000000000E+00 -0.19785147538E+04  0.19785147538E+04  0.00000000000E+00 0. -1.
         25    2    1    2    0    0  0.17675362362E+02  0.27674013611E+03  0.45168433067E+03  0.54455625377E+03  0.12500103034E+03 0.  0.
          2    1    1    2  501    0 -0.28819500680E+02 -0.30389220461E+03 -0.19197009387E+04  0.19438191093E+04  0.00000000000E+00 0. -1.
          1    1    1    2  502    0  0.11144138318E+02  0.27152068498E+02  0.67527137518E+03  0.67590891160E+03  0.00000000000E+00 0. -1.
         22    1    3    3    0    0 -0.26093036651E+02  0.53106230123E+02  0.32681341284E+02  0.67595771374E+02  0.00000000000E+00 0.  1.
         22    1    3    3    0    0  0.43768399013E+02  0.22363390598E+03  0.41900298938E+03  0.47696048240E+03  0.00000000000E+00 0.  1.
</event>
<event>
 7    1  0.5970484E-006  0.9580567E+02  0.7818608E-02  0.1304634E+00
          2   -1    0    0  502    0  0.00000000000E+00  0.00000000000E+00  0.40060887308E+03  0.40060887308E+03  0.00000000000E+00 0. -1.
          1   -1    0    0  501    0 -0.00000000000E+00 -0.00000000000E+00 -0.24440016103E+03  0.24440016103E+03  0.00000000000E+00 0. -1.
         25    2    1    2    0    0 -0.62082437560E+02  0.10194444476E+03 -0.24370345290E+02  0.17454295933E+03  0.12499772819E+03 0.  0.
          2    1    1    2  501    0 -0.20735854026E+02 -0.94235118824E+02 -0.12263907271E+03  0.15604670909E+03  0.00000000000E+00 0. -1.
          1    1    1    2  502    0  0.82818291586E+02 -0.77093259340E+01  0.30321813006E+03  0.31441936569E+03  0.00000000000E+00 0. -1.
         22    1    3    3    0    0 -0.96141822947E+01  0.58081106107E+02 -0.70653026945E+02  0.91965741471E+02  0.00000000000E+00 0.  1.
         22    1    3    3    0    0 -0.52468255265E+02  0.43863338651E+02  0.46282681654E+02  0.82577217859E+02  0.00000000000E+00 0.  1.
</event>
<event>
 7    1  0.5970484E-006  0.1127646E+03  0.7818608E-02  0.1378051E+00
          2   -1    0    0  502    0  0.00000000000E+00  0.00000000000E+00  0.21709039305E+03  0.21709039305E+03  0.00000000000E+00 0. -1.
          1   -1    0    0  501    0 -0.00000000000E+00 -0.00000000000E+00 -0.71651426407E+03  0.71651426407E+03  0.00000000000E+00 0. -1.
         25    2    1    2    0    0  0.42150319861E+02  0.95605665395E+02 -0.19191056179E+03  0.25173757707E+03  0.12500020506E+03 0.  0.
          2    1    1    2  501    0 -0.78147953235E+02 -0.85301954020E+02 -0.48595689092E+03  0.49953741180E+03  0.00000000000E+00 0. -1.
          1    1    1    2  502    0  0.35997633373E+02 -0.10303711375E+02  0.17844358169E+03  0.18232966825E+03  0.00000000000E+00 0. -1.
         22    1    3    3    0    0 -0.36969027711E+02  0.38203368597E+02 -0.26015833605E+02  0.59186400298E+02  0.00000000000E+00 0. -1.
         22    1    3    3    0    0  0.79119347573E+02  0.57402296798E+02 -0.16589472818E+03  0.19255117677E+03  0.00000000000E+00 0. -1.
</event>
<event>
 7    1  0.5970484E-006  0.1814796E+03  0.7818608E-02  0.1276382E+00
          2   -1    0    0  502    0  0.00000000000E+00  0.00000000000E+00  0.13003967664E+04  0.13003967664E+04  0.00000000000E+00 0. -1.
          1   -1    0    0  501    0 -0.00000000000E+00 -0.00000000000E+00 -0.36605587055E+03  0.36605587055E+03  0.00000000000E+00 0. -1.
         25    2    1    2    0    0  0.13204201576E+03  0.10504953265E+03 -0.88381098762E+02  0.22783005721E+03  0.12499927245E+03 0.  0.
          2    1    1    2  501    0 -0.11018830211E+03 -0.15790947737E+03 -0.16253808154E+03  0.25198312030E+03  0.00000000000E+00 0. -1.
          1    1    1    2  502    0 -0.21853713649E+02  0.52859944717E+02  0.11852600762E+04  0.11866394594E+04  0.00000000000E+00 0. -1.
         22    1    3    3    0    0  0.12516497959E+03  0.32610673357E+02 -0.25878509361E+02  0.13190688147E+03  0.00000000000E+00 0. -1.
         22    1    3    3    0    0  0.68770361685E+01  0.72438859295E+02 -0.62502589400E+02  0.95923175741E+02  0.00000000000E+00 0. -1.
</event>
<event>
 7    1  0.5970484E-006  0.2105822E+03  0.7818608E-02  0.1255423E+00
          2   -1    0    0  502    0  0.00000000000E+00  0.00000000000E+00  0.10303596105E+04  0.10303596105E+04  0.00000000000E+00 0. -1.
          1   -1    0    0  501    0 -0.00000000000E+00 -0.00000000000E+00 -0.20673389649E+03  0.20673389649E+03  0.00000000000E+00 0. -1.
         25    2    1    2    0    0  0.21682500992E+03 -0.12966577774E+03  0.31993794461E+03  0.42639362587E+03  0.12499974775E+03 0.  0.
          2    1    1    2  501    0 -0.60022954503E+02  0.71818480146E+01 -0.13168706107E+03  0.14489933078E+03  0.00000000000E+00 0. -1.
          1    1    1    2  502    0 -0.15680205541E+03  0.12248392973E+03  0.63537483046E+03  0.66580055032E+03  0.00000000000E+00 0. -1.
         22    1    3    3    0    0  0.14664832948E+02 -0.48554098063E+02  0.17450598771E+02  0.53638429895E+02  0.00000000000E+00 0.  1.
         22    1    3    3    0    0  0.20216017697E+03 -0.81111679680E+02  0.30248734583E+03  0.37275519597E+03  0.00000000000E+00 0.  1.
</event>
<event>
 7    1  0.5970484E-006  0.8212666E+02  0.7818608E-02  0.1395500E+00
          2   -1    0    0  502    0  0.00000000000E+00  0.00000000000E+00  0.13056578155E+03  0.13056578155E+03  0.00000000000E+00 0. -1.
          1   -1    0    0  501    0 -0.00000000000E+00 -0.00000000000E+00 -0.37851429017E+04  0.37851429017E+04  0.00000000000E+00 0. -1.
         25    2    1    2    0    0 -0.76669364883E+02 -0.99745563882E+02 -0.27510842515E+03  0.32731790019E+03  0.12499997268E+03 0.  0.
          2    1    1    2  501    0  0.46962269405E+02  0.66404897035E+02 -0.34786602044E+04  0.34796108809E+04  0.00000000000E+00 0. -1.
          1    1    1    2  502    0  0.29707095479E+02  0.33340666847E+02  0.99191509349E+02  0.10877990216E+03  0.00000000000E+00 0. -1.
         22    1    3    3    0    0 -0.11096647295E+02  0.29333122310E+01  0.11279998312E+02  0.16092801613E+02  0.00000000000E+00 0.  1.
         22    1    3    3    0    0 -0.65572717588E+02 -0.10267887611E+03 -0.28638842346E+03  0.31122509858E+03  0.00000000000E+00 0.  1.
</event>
<event>
 7    1  0.5970484E-006  0.3665204E+02  0.7818608E-02  0.1631092E+00
          2   -1    0    0  502    0  0.00000000000E+00  0.00000000000E+00  0.23454840291E+03  0.23454840291E+03  0.00000000000E+00 0. -1.
          1   -1    0    0  501    0 -0.00000000000E+00 -0.00000000000E+00 -0.39558779072E+03  0.39558779072E+03  0.00000000000E+00 0. -1.
         25    2    1    2    0    0  0.12094824641E+02  0.55009108131E+02  0.14432447254E+03  0.19906447131E+03  0.12499929441E+03 0.  0.
          2    1    1    2  501    0 -0.11084670525E+02 -0.34827468642E+02 -0.36565879748E+03  0.36748085483E+03  0.00000000000E+00 0. -1.
          1    1    1    2  502    0 -0.10101541160E+01 -0.20181639489E+02  0.60294937130E+02  0.63590867484E+02  0.00000000000E+00 0. -1.
         22    1    3    3    0    0 -0.17271567763E+02  0.78406278681E+02  0.43149042380E+02  0.91146538321E+02  0.00000000000E+00 0.  1.
         22    1    3    3    0    0  0.29366392404E+02 -0.23397170550E+02  0.10117543016E+03  0.10791793299E+03  0.00000000000E+00 0.  1.
</event>
<event>
 7    1  0.5970484E-006  0.1140592E+03  0.7818608E-02  0.1378389E+00
          2   -1    0    0  502    0  0.00000000000E+00  0.00000000000E+00  0.78492680038E+03  0.78492680038E+03  0.00000000000E+00 0. -1.
          1   -1    0    0  501    0 -0.00000000000E+00 -0.00000000000E+00 -0.95189133728E+03  0.95189133728E+03  0.00000000000E+00 0. -1.
         25    2    1    2    0    0  0.12105380751E+03  0.46632431814E+02 -0.57225473860E+03  0.59994026098E+03  0.12499689150E+03 0.  0.
          2    1    1    2  501    0 -0.10576302808E+03 -0.13032029126E+02 -0.35757704974E+03  0.37311794166E+03  0.00000000000E+00 0. -1.
          1    1    1    2  502    0 -0.15290779429E+02 -0.33600402688E+02  0.76286725145E+03  0.76375993501E+03  0.00000000000E+00 0. -1.
         22    1    3    3    0    0 -0.61814465047E+01 -0.26952802069E+01  0.39375198384E+01  0.78088974101E+01  0.00000000000E+00 0. -1.
         22    1    3    3    0    0  0.12723525402E+03  0.49327712021E+02 -0.57619225844E+03  0.59213136357E+03  0.00000000000E+00 0. -1.
</event>
<event>
 7    1  0.5970484E-006  0.9112701E+02  0.7818608E-02  0.1336837E+00
          2   -1    0    0  502    0  0.00000000000E+00  0.00000000000E+00  0.18651032670E+04  0.18651032670E+04  0.00000000000E+00 0. -1.
          1   -1    0    0  501    0 -0.00000000000E+00 -0.00000000000E+00 -0.63376631607E+02  0.63376631607E+02  0.00000000000E+00 0. -1.
         25    2    1    2    0    0  0.12388040693E+03  0.71423118555E+02  0.21471792938E+03  0.28666440941E+03  0.12500030936E+03 0.  0.
          2    1    1    2  501    0 -0.65509712900E+02 -0.34967348080E+01  0.15049503100E+02  0.67307036646E+02  0.00000000000E+00 0. -1.
          1    1    1    2  502    0 -0.58370694034E+02 -0.67926383747E+02  0.15719592029E+04  0.15745084525E+04  0.00000000000E+00 0. -1.
         22    1    3    3    0    0 -0.22048578084E+02  0.30173474051E+02  0.54268379360E+02  0.65891086880E+02  0.00000000000E+00 0. -1.
         22    1    3    3    0    0  0.14592898502E+03  0.41249644504E+02  0.16044955002E+03  0.22077332253E+03  0.00000000000E+00 0. -1.
</event>
<event>
 7    1  0.5970484E-006  0.1674277E+03  0.7818608E-02  0.1266357E+00
          2   -1    0    0  502    0  0.00000000000E+00  0.00000000000E+00  0.15841039948E+04  0.15841039948E+04  0.00000000000E+00 0. -1.
          1   -1    0    0  501    0 -0.00000000000E+00 -0.00000000000E+00 -0.34238853599E+03  0.34238853599E+03  0.00000000000E+00 0. -1.
         25    2    1    2    0    0 -0.24772810937E+02 -0.16482489902E+03  0.20268152947E+03  0.29066392985E+03  0.12499911292E+03 0.  0.
          2    1    1    2  501    0 -0.64822998051E+02  0.21501961817E+02 -0.28906188213E+03  0.29702041536E+03  0.00000000000E+00 0. -1.
          1    1    1    2  502    0  0.89595808988E+02  0.14332293720E+03  0.13280958115E+04  0.13388081856E+04  0.00000000000E+00 0. -1.
         22    1    3    3    0    0 -0.61267060726E+02 -0.29994724736E+02  0.75551941805E+02  0.10179112021E+03  0.00000000000E+00 0.  1.
         22    1    3    3    0    0  0.36494249789E+02 -0.13483017428E+03  0.12712958766E+03  0.18887280965E+03  0.00000000000E+00 0.  1.
</event>
<event>
 7    1  0.5970484E-006  0.6752223E+02  0.7818608E-02  0.1478853E+00
          2   -1    0    0  502    0  0.00000000000E+00  0.00000000000E+00  0.67388593968E+03  0.67388593968E+03  0.00000000000E+00 0. -1.
          1   -1    0    0  501    0 -0.00000000000E+00 -0.00000000000E+00 -0.16213940838E+04  0.16213940838E+04  0.00000000000E+00 0. -1.
         25    2    1    2    0    0 -0.28082619868E+02 -0.30038125333E+02 -0.15680449552E+03  0.20470317600E+03  0.12499927175E+03 0.  0.
          2    1    1    2  501    0 -0.27840950508E+02 -0.82768103277E+01 -0.14387256072E+04  0.14390187618E+04  0.00000000000E+00 0. -1.
          1    1    1    2  502    0  0.55923570376E+02  0.38314935660E+02  0.64802195864E+03  0.65155808560E+03  0.00000000000E+00 0. -1.
         22    1    3    3    0    0 -0.73330821679E+02 -0.38614644178E+02 -0.11955211972E+03  0.14546892961E+03  0.00000000000E+00 0.  1.
         22    1    3    3    0    0  0.45248201810E+02  0.85765188456E+01 -0.37252375798E+02  0.59234246388E+02  0.00000000000E+00 0.  1.
</event>
<event>
 7    1  0.5970484E-006  0.2355786E+02  0.7818608E-02  0.1697921E+00
          2   -1    0    0  502    0  0.00000000000E+00  0.00000000000E+00  0.19989523614E+04  0.19989523614E+04  0.00000000000E+00 0. -1.
          1   -1    0    0  501    0 -0.00000000000E+00 -0.00000000000E+00 -0.68953913069E+02  0.68953913069E+02  0.00000000000E+00 0. -1.
         25    2    1    2    0    0  0.40780996525E+02 -0.36270641068E+01  0.43076305700E+03  0.45039651188E+03  0.12499584539E+03 0.  0.
          2    1    1    2  501    0 -0.20279170216E+02 -0.77204658036E+01 -0.57055512066E+02  0.61042458945E+02  0.00000000000E+00 0. -1.
          1    1    1    2  502    0 -0.20501826309E+02  0.11347529910E+02  0.15562909034E+04  0.15564673037E+04  0.00000000000E+00 0. -1.
         22    1    3    3    0    0  0.25275434032E+02  0.53350214154E+02  0.11616861965E+03  0.13030825418E+03  0.00000000000E+00 0. -1.
         22    1    3    3    0    0  0.15505562492E+02 -0.56977278261E+02  0.31459443735E+03  0.32008825770E+03  0.00000000000E+00 0. -1.
</event>
<event>
 7    1  0.5970484E-006  0.2955601E+02  0.7818608E-02  0.1604530E+00
          2   -1    0    0  502    0  0.00000000000E+00  0.00000000000E+00  0.75358812151E+02  0.75358812151E+02  0.00000000000E+00 0. -1.
          1   -1    0    0  501    0 -0.00000000000E+00 -0.00000000000E+00 -0.10363663734E+04  0.10363663734E+04  0.00000000000E+00 0. -1.
         25    2    1    2    0    0  0.27752017180E+02 -0.57586584419E+01 -0.37271009611E+02  0.13348229620E+03  0.12500023455E+03 0.  0.
          2    1    1    2  501    0 -0.18044418447E+02 -0.23408470048E+02 -0.94201525374E+03  0.94247880389E+03  0.00000000000E+00 0. -1.
          1    1    1    2  502    0 -0.97075987331E+01  0.29167128490E+02  0.18278702109E+02  0.35764085453E+02  0.00000000000E+00 0. -1.
         22    1    3    3    0    0  0.72520147687E+02 -0.82221843562E+01 -0.48033594021E+02  0.87372777744E+02  0.00000000000E+00 0. -1.
         22    1    3    3    0    0 -0.44768130507E+02  0.24635259144E+01  0.10762584410E+02  0.46109518456E+02  0.00000000000E+00 0. -1.
</event>
<event>
 7    1  0.5970484E-006  0.9970703E+02  0.7818608E-02  0.1398263E+00
          2   -1    0    0  502    0  0.00000000000E+00  0.00000000000E+00  0.20971008203E+04  0.20971008203E+04  0.00000000000E+00 0. -1.
          1   -1    0    0  501    0 -0.00000000000E+00 -0.00000000000E+00 -0.31314205037E+03  0.31314205037E+03  0.00000000000E+00 0. -1.
         25    2    1    2    0    0  0.40814343076E+02  0.10271722288E+03  0.27743432242E+03  0.32374702852E+03  0.12500278694E+03 0.  0.
          2    1    1    2  501    0 -0.35816458575E+02 -0.34501124301E+01 -0.28748858369E+03  0.28973161328E+03  0.00000000000E+00 0. -1.
          1    1    1    2  502    0 -0.49978845008E+01 -0.99267110447E+02  0.17940130312E+04  0.17967642289E+04  0.00000000000E+00 0. -1.
         22    1    3    3    0    0  0.32158318463E+02 -0.94583966632E+00  0.55568911309E+01  0.32648600247E+02  0.00000000000E+00 0.  1.
         22    1    3    3    0    0  0.86560246129E+01  0.10366306254E+03  0.27187743129E+03  0.29109842828E+03  0.00000000000E+00 0.  1.
</event>
<event>
 7    1  0.5970484E-006  0.9250776E+02  0.7818608E-02  0.1328368E+00
          2   -1    0    0  502    0  0.00000000000E+00  0.00000000000E+00  0.18331376506E+04  0.18331376506E+04  0.00000000000E+00 0. -1.
          1   -1    0    0  501    0 -0.00000000000E+00 -0.00000000000E+00 -0.73045112698E+03  0.73045112698E+03  0.00000000000E+00 0. -1.
         25    2    1    2    0    0 -0.65361379220E+02  0.69816538881E+02  0.52781390342E+01  0.15747710700E+03  0.12499888592E+03 0.  0.
          2    1    1    2  501    0 -0.27329740782E+02 -0.64011193884E+02 -0.65126507266E+03  0.65497369606E+03  0.00000000000E+00 0. -1.
          1    1    1    2  502    0  0.92691120002E+02 -0.58053449969E+01  0.17486734572E+04  0.17511379745E+04  0.00000000000E+00 0. -1.
         22    1    3    3    0    0  0.23263730461E+02  0.30140713043E+00 -0.31346150071E+02  0.39036817564E+02  0.00000000000E+00 0.  1.
         22    1    3    3    0    0 -0.88625109681E+02  0.69515131751E+02  0.36624289106E+02  0.11844028943E+03  0.00000000000E+00 0.  1.
</event>
<event>
 7    1  0.5970484E-006  0.1513235E+03  0.7818608E-02  0.1311551E+00
          2   -1    0    0  502    0  0.00000000000E+00  0.00000000000E+00  0.16321387077E+04  0.16321387077E+04  0.00000000000E+00 0. -1.
          1   -1    0    0  501    0 -0.00000000000E+00 -0.00000000000E+00 -0.77850746226E+02  0.77850746226E+02  0.00000000000E+00 0. -1.
         25    2    1    2    0    0  0.13997579175E+03 -0.51364346394E+01  0.20801889522E+03  0.28020807027E+03  0.12500038654E+03 0.  0.
          2    1    1    2  501    0  0.34905495669E+01 -0.49324295938E+02 -0.21148343397E+02  0.53780317352E+02  0.00000000000E+00 0. -1.
          1    1    1    2  502    0 -0.14346634132E+03  0.54460730577E+02  0.13674174096E+04  0.13760010663E+04  0.00000000000E+00 0. -1.
         22    1    3    3    0    0  0.99279240901E+02  0.82838266697E+01  0.40917798161E+02  0.10769984060E+03  0.00000000000E+00 0. -1.
         22    1    3    3    0    0  0.40696550849E+02 -0.13420261309E+02  0.16710109706E+03  0.17250822967E+03  0.00000000000E+00 0. -1.
</event>
<event>
 7    1  0.5970484E-006  0.3912789E+03  0.7818608E-02  0.1148018E+00
          2   -1    0    0  502    0  0.00000000000E+00  0.00000000000E+00  0.13335982457E+04  0.13335982457E+04  0.00000000000E+00 0. -1.
          1   -1    0    0  501    0 -0.00000000000E+00 -0.00000000000E+00 -0.18709242830E+04  0.18709242830E+04  0.00000000000E+00 0. -1.
         25    2    1    2    0    0  0.29015447676E+03  0.17781490555E+03 -0.66865217329E+03  0.76061078121E+03  0.12500108249E+03 0.  0.
          2    1    1    2  501    0 -0.14358482333E+02  0.10334568091E+03 -0.11237027775E+04  0.11285364096E+04  0.00000000000E+00 0. -1.
          1    1    1    2  502    0 -0.27579599443E+03 -0.28116058647E+03  0.12550289134E+04  0.13153753378E+04  0.00000000000E+00 0. -1.
         22    1    3    3    0    0  0.29337687405E+03  0.18500991580E+03 -0.61231441255E+03  0.70372409294E+03  0.00000000000E+00 0.  1.
         22    1    3    3    0    0 -0.32223972869E+01 -0.71950102467E+01 -0.56337760737E+02  0.56886688264E+02  0.00000000000E+00 0.  1.
</event>
<event>
 7    1  0.5970484E-006  0.4585194E+02  0.7818608E-02  0.1514778E+00
          2   -1    0    0  502    0  0.00000000000E+00  0.00000000000E+00  0.13502074164E+04  0.13502074164E+04  0.00000000000E+00 0. -1.
          1   -1    0    0  501    0 -0.00000000000E+00 -0.00000000000E+00 -0.11262032252E+03  0.11262032252E+03  0.00000000000E+00 0. -1.
         25    2    1    2    0    0 -0.10818597858E+02  0.56279580838E+02  0.14201517349E+03  0.19767994969E+03  0.12499847890E+03 0.  0.
          2    1    1    2  501    0  0.29993970644E+02 -0.14646238598E+02 -0.81039197346E+02  0.87644178851E+02  0.00000000000E+00 0. -1.
          1    1    1    2  502    0 -0.19175372786E+02 -0.41633342240E+02  0.11766111178E+04  0.11775036104E+04  0.00000000000E+00 0. -1.
         22    1    3    3    0    0  0.13517949022E+02 -0.37058001133E+02  0.55615984006E+02  0.68184808210E+02  0.00000000000E+00 0. -1.
         22    1    3    3    0    0 -0.24336546880E+02  0.93337581971E+02  0.86399189484E+02  0.12949514148E+03  0.00000000000E+00 0. -1.
</event>
<event>
 7    1  0.5970484E-006  0.1106675E+03  0.7818608E-02  0.1320772E+00
          2   -1    0    0  502    0  0.00000000000E+00  0.00000000000E+00  0.29878703486E+04  0.29878703486E+04  0.00000000000E+00 0. -1.
          1   -1    0    0  501    0 -0.00000000000E+00 -0.00000000000E+00 -0.98336670300E+02  0.98336670300E+02  0.00000000000E+00 0. -1.
         25    2    1    2    0    0  0.27876048214E+02 -0.61072449927E+02  0.69547913325E+03  0.70980622113E+03  0.12500691408E+03 0.  0.
          2    1    1    2  501    0 -0.17417287984E+02 -0.59749026373E+02 -0.78744066841E+02  0.10036899988E+03  0.00000000000E+00 0. -1.
          1    1    1    2  502    0 -0.10458760230E+02  0.12082147630E+03  0.22727986119E+04  0.22760317979E+04  0.00000000000E+00 0. -1.
         22    1    3    3    0    0 -0.21007979499E+02 -0.77822668138E+02  0.53954058276E+03  0.54552886571E+03  0.00000000000E+00 0. -1.
         22    1    3    3    0    0  0.48884027713E+02  0.16750218211E+02  0.15593855049E+03  0.16427735542E+03  0.00000000000E+00 0. -1.
</event>
<event>
 7    1  0.5970484E-006  0.1477114E+03  0.7818608E-02  0.1305585E+00
          2   -1    0    0  502    0  0.00000000000E+00  0.00000000000E+00  0.15517634882E+04  0.15517634882E+04  0.00000000000E+00 0. -1.
          1   -1    0    0  501    0 -0.00000000000E+00 -0.00000000000E+00 -0.32270524802E+03  0.32270524802E+03  0.00000000000E+00 0. -1.
         25    2    1    2    0    0 -0.13750914305E+03  0.49032254698E+02 -0.11917696237E+02  0.19256399848E+03  0.12500374235E+03 0.  0.
          2    1    1    2  501    0 -0.10569387214E+02 -0.52426421716E+02 -0.21340324541E+03  0.22000269724E+03  0.00000000000E+00 0. -1.
          1    1    1    2  502    0  0.14807853027E+03  0.33941670183E+01  0.14543791818E+04  0.14619020405E+04  0.00000000000E+00 0. -1.
         22    1    3    3    0    0  0.22645522804E+02  0.22040797280E+01  0.88562849449E+01  0.24415393782E+02  0.00000000000E+00 0. -1.
         22    1    3    3    0    0 -0.16015466586E+03  0.46828174970E+02 -0.20773981182E+02  0.16814860469E+03  0.00000000000E+00 0. -1.
</event>
<event>
 7    1  0.5970484E-006  0.1438793E+03  0.7818608E-02  0.1210045E+00
          2   -1    0    0  502    0  0.00000000000E+00  0.00000000000E+00  0.12020396098E+03  0.12020396098E+03  0.00000000000E+00 0. -1.
          1   -1    0    0  501    0 -0.00000000000E+00 -0.00000000000E+00 -0.29750796337E+04  0.29750796337E+04  0.00000000000E+00 0. -1.
         25    2    1    2    0    0 -0.76857560829E+01  0.12021929827E+03 -0.32361147122E+03  0.36723009257E+03  0.12498722359E+03 0.  0.
          2    1    1    2  501    0 -0.12818695552E+03 -0.82273974189E+02 -0.25756607190E+04  0.25801606620E+04  0.00000000000E+00 0. -1.
          1    1    1    2  502    0  0.13587271161E+03 -0.37945324077E+02  0.44396517528E+02  0.14789284008E+03  0.00000000000E+00 0. -1.
         22    1    3    3    0    0 -0.42879558205E+02  0.34036299069E+02 -0.37507903395E+02  0.66362406401E+02  0.00000000000E+00 0.  1.
         22    1    3    3    0    0  0.35193802122E+02  0.86182999197E+02 -0.28610356782E+03  0.30086768617E+03  0.00000000000E+00 0.  1.
</event>
<event>
 7    1  0.5970484E-006  0.1013082E+03  0.7818608E-02  0.1356750E+00
          2   -1    0    0  502    0  0.00000000000E+00  0.00000000000E+00  0.65153189258E+03  0.65153189258E+03  0.00000000000E+00 0. -1.
          1   -1    0    0  501    0 -0.00000000000E+00 -0.00000000000E+00 -0.28263443555E+03  0.28263443555E+03  0.00000000000E+00 0. -1.
         25    2    1    2    0    0  0.37741250639E+02  0.80326706294E+02  0.33009167939E+03  0.36395335814E+03  0.12499899342E+03 0.  0.
          2    1    1    2  501    0  0.49022340057E+02 -0.84692871632E+01 -0.25277592959E+03  0.25762490025E+03  0.00000000000E+00 0. -1.
          1    1    1    2  502    0 -0.86763590697E+02 -0.71857419131E+02  0.29158170723E+03  0.31258806974E+03  0.00000000000E+00 0. -1.
         22    1    3    3    0    0  0.21457897196E+02 -0.32682463152E+02  0.81160388262E+02  0.90086588195E+02  0.00000000000E+00 0. -1.
         22    1    3    3    0    0  0.16283353443E+02  0.11300916945E+03  0.24893129113E+03  0.27386676995E+03  0.00000000000E+00 0. -1.
</event>
<event>
 7    1  0.5970484E-006  0.6321906E+02  0.7818608E-02  0.1440506E+00
          2   -1    0    0  502    0  0.00000000000E+00  0.00000000000E+00  0.28904259498E+03  0.28904259498E+03  0.00000000000E+00 0. -1.
          1   -1    0    0  501    0 -0.00000000000E+00 -0.00000000000E+00 -0.50437342711E+03  0.50437342711E+03  0.00000000000E+00 0. -1.
         25    2    1    2    0    0 -0.53517006278E+02 -0.81504811872E+02 -0.27447222615E+03  0.31696548826E+03  0.12500005401E+03 0.  0.
          2    1    1    2  501    0  0.34911188896E+02  0.21487270700E+02 -0.20289025134E+03  0.20699021233E+03  0.00000000000E+00 0. -1.
          1    1    1    2  502    0  0.18605817382E+02  0.60017541172E+02  0.26203164536E+03  0.26946032149E+03  0.00000000000E+00 0. -1.
         22    1    3    3    0    0  0.14118689213E+02 -0.58905487546E+02 -0.41763920161E+02  0.73575939514E+02  0.00000000000E+00 0. -1.
         22    1    3    3    0    0 -0.67635695491E+02 -0.22599324326E+02 -0.23270830599E+03  0.24338954875E+03  0.00000000000E+00 0. -1.
</event>
<event>
 7    1  0.5970484E-006  0.5437628E+02  0.7818608E-02  0.1459613E+00
          2   -1    0    0  502    0  0.00000000000E+00  0.00000000000E+00  0.17042237213E+04  0.17042237213E+04  0.00000000000E+00 0. -1.
          1   -1    0    0  501    0 -0.00000000000E+00 -0.00000000000E+00 -0.60523995728E+03  0.60523995728E+03  0.00000000000E+00 0. -1.
         25    2    1    2    0    0 -0.59487851993E+02 -0.12235092072E+02  0.42647092880E+02  0.14536907587E+03  0.12499956670E+03 0.  0.
          2    1    1    2  501    0  0.47174978350E+02 -0.27294243364E+02 -0.55227120755E+03  0.55495399898E+03  0.00000000000E+00 0. -1.
          1    1    1    2  502    0  0.12312873643E+02  0.39529335436E+02  0.16086078786E+04  0.16091406037E+04  0.00000000000E+00 0. -1.
         22    1    3    3    0    0  0.12354995859E+02 -0.53038608147E+02  0.28767397350E+02  0.61589796453E+02  0.00000000000E+00 0.  1.
         22    1    3    3    0    0 -0.71842847852E+02  0.40803516074E+02  0.13879695530E+02  0.83779279416E+02  0.00000000000E+00 0.  1.
</event>
<event>
 7    1  0.5970484E-006  0.4868945E+02  0.7818608E-02  0.1548937E+00
          2   -1    0    0  502    0  0.00000000000E+00  0.00000000000E+00  0.86624825293E+01  0.86624825293E+01  0.00000000000E+00 0. -1.
          1   -1    0    0  501    0 -0.00000000000E+00 -0.00000000000E+00 -0.18287212818E+04  0.18287212818E+04  0.00000000000E+00 0. -1.
         25    2    1    2    0    0  0.33120847944E+02  0.21576070676E+02 -0.73691379375E+03  0.74848487875E+03  0.12500062759E+03 0.  0.
          2    1    1    2  501    0  0.19657263668E+02 -0.15615837015E+02 -0.82321967830E+03  0.82360239262E+03  0.00000000000E+00 0. -1.
          1    1    1    2  502    0 -0.52778111612E+02 -0.59602336618E+01 -0.25992532724E+03  0.26529649299E+03  0.00000000000E+00 0. -1.
         22    1    3    3    0    0  0.42174406611E+02 -0.43505980939E+02 -0.45487282290E+03  0.45889076692E+03  0.00000000000E+00 0.  1.
         22    1    3    3    0    0 -0.90535586666E+01  0.65082051616E+02 -0.28204097085E+03  0.28959411183E+03  0.00000000000E+00 0.  1.
</event>
<event>
 7    1  0.5970484E-006  0.1236045E+03  0.7818608E-02  0.1354452E+00
          2   -1    0    0  502    0  0.00000000000E+00  0.00000000000E+00  0.14641398972E+04  0.14641398972E+04  0.00000000000E+00 0. -1.
          1   -1    0    0  501    0 -0.00000000000E+00 -0.00000000000E+00 -0.47320284797E+03  0.47320284797E+03  0.00000000000E+00 0. -1.
         25    2    1    2    0    0  0.69239344735E+02 -0.80111124343E+02  0.55111611834E+03  0.57494866738E+03  0.12500046050E+03 0.  0.
          2    1    1    2  501    0  0.40920135435E+02  0.73510379507E+01 -0.45549929616E+03  0.45739272409E+03  0.00000000000E+00 0. -1.
          1    1    1    2  502    0 -0.11015948017E+03  0.72760086392E+02  0.89532022707E+03  0.90500135372E+03  0.00000000000E+00 0. -1.
         22    1    3    3    0    0  0.19777864293E+02  0.33714864571E+02  0.15452321378E+03  0.15939033724E+03  0.00000000000E+00 0.  1.
         22    1    3    3    0    0  0.49461480442E+02 -0.11382598891E+03  0.39659290456E+03  0.41555833014E+03  0.00000000000E+00 0.  1.
</event>
<event>
 7    1  0.5970484E-006  0.2633824E+03  0.7818608E-02  0.1269508E+00
          2   -1    0    0  502    0  0.00000000000E+00  0.00000000000E+00  0.15439784262E+04  0.15439784262E+04  0.00000000000E+00 0. -1.
          1   -1    0    0  501    0 -0.00000000000E+00 -0.00000000000E+00 -0.11210872428E+04  0.11210872428E+04  0.00000000000E+00 0. -1.
         25    2    1    2    0    0  0.10268204590E+03 -0.20503821972E+03  0.14861310267E+03  0.30049129586E+03  0.12499956202E+03 0.  0.
          2    1    1    2  501    0 -0.13856798731E+03  0.22706649001E+03 -0.10278764192E+04  0.10617392388E+04  0.00000000000E+00 0. -1.
          1    1    1    2  502    0  0.35885941418E+02 -0.22028270288E+02  0.13021545000E+04  0.13028351343E+04  0.00000000000E+00 0. -1.
         22    1    3    3    0    0  0.10835325537E+03 -0.16294341986E+03  0.16399760679E+03  0.25531588486E+03  0.00000000000E+00 0. -1.
         22    1    3    3    0    0 -0.56712094745E+01 -0.42094799862E+02 -0.15384504120E+02  0.45175411003E+02  0.00000000000E+00 0. -1.
</event>
<event>
 7    1  0.5970484E-006  0.2011694E+03  0.7818608E-02  0.1293887E+00
          2   -1    0    0  502    0  0.00000000000E+00  0.00000000000E+00  0.41334563443E+03  0.41334563443E+03  0.00000000000E+00 0. -1.
          1   -1    0    0  501    0 -0.00000000000E+00 -0.00000000000E+00 -0.10441943452E+04  0.10441943452E+04  0.00000000000E+00 0. -1.
         25    2    1    2    0    0 -0.16215213597E+03  0.17141525897E+03  0.47027724344E+02  0.27113371093E+03  0.12500150456E+03 0.  0.
          2    1    1    2  501    0  0.12040629296E+03 -0.15834968695E+03 -0.91954221213E+03  0.94081357272E+03  0.00000000000E+00 0. -1.
          1    1    1    2  502    0  0.41745843005E+02 -0.13065572018E+02  0.24166577697E+03  0.24559269602E+03  0.00000000000E+00 0. -1.
         22    1    3    3    0    0 -0.94303827155E+02  0.11978552745E+03  0.88548134390E+02  0.17630245746E+03  0.00000000000E+00 0.  1.
         22    1    3    3    0    0 -0.67848308811E+02  0.51629731518E+02 -0.41520410046E+02  0.94831253474E+02  0.00000000000E+00 0.  1.
</event>
<event>
 7    1  0.5970484E-006  0.6550583E+02  0.7818608E-02  0.1414390E+00
          2   -1    0    0  502    0  0.00000000000E+00  0.00000000000E+00  0.93708371935E+03  0.93708371935E+03  0.00000000000E+00 0. -1.
          1   -1    0    0  501    0 -0.00000000000E+00 -0.00000000000E+00 -0.31528342590E+03  0.31528342590E+03  0.00000000000E+00 0. -1.
         25    2    1    2    0    0 -0.18716178872E+02 -0.65417001071E+02  0.28256519555E+03  0.31638416648E+03  0.12500468663E+03 0.  0.
          2    1    1    2  501    0 -0.29100411457E+02  0.58889258350E+02 -0.29382911842E+03  0.30108193158E+03  0.00000000000E+00 0. -1.
          1    1    1    2  502    0  0.47816590330E+02  0.65277427205E+01  0.63306421632E+03  0.63490104719E+03  0.00000000000E+00 0. -1.
         22    1    3    3    0    0 -0.26409022302E+02 -0.10155846165E+03  0.19769409898E+03  0.22381803852E+03  0.00000000000E+00 0.  1.
         22    1    3    3    0    0  0.76928434298E+01  0.36141460584E+02  0.84871096567E+02  0.92566127960E+02  0.00000000000E+00 0.  1.
</event>
<event>
 7    1  0.5970484E-006  0.2548438E+03  0.7818608E-02  0.1187047E+00
          2   -1    0    0  502    0  0.00000000000E+00  0.00000000000E+00  0.16563115269E+04  0.16563115269E+04  0.00000000000E+00 0. -1.
          1   -1    0    0  501    0 -0.00000000000E+00 -0.00000000000E+00 -0.63501877962E+03  0.63501877962E+03  0.00000000000E+00 0. -1.
         25    2    1    2    0    0 -0.92188905299E+02  0.33067065134E+03  0.34838962362E+03  0.50481763693E+03  0.12499457101E+03 0.  0.
          2    1    1    2  501    0  0.35087653543E+02 -0.96103522111E+02 -0.54010732484E+03  0.54971169966E+03  0.00000000000E+00 0. -1.
          1    1    1    2  502    0  0.57101251756E+02 -0.23456712923E+03  0.12130104485E+04  0.12368009699E+04  0.00000000000E+00 0. -1.
         22    1    3    3    0    0 -0.15615169416E+02  0.25698531071E+02  0.99060474301E+02  0.10352403385E+03  0.00000000000E+00 0. -1.
         22    1    3    3    0    0 -0.76573735883E+02  0.30497212027E+03  0.24932914932E+03  0.40129360308E+03  0.00000000000E+00 0. -1.
</event>
<event>
 7    1  0.5970484E-006  0.7326052E+02  0.7818608E-02  0.1402964E+00
          2   -1    0    0  502    0  0.00000000000E+00  0.00000000000E+00  0.53624297006E+03  0.53624297006E+03  0.00000000000E+00 0. -1.
          1   -1    0    0  501    0 -0.00000000000E+00 -0.00000000000E+00 -0.58918142390E+03  0.58918142390E+03  0.00000000000E+00 0. -1.
         25    2    1    2    0    0  0.59864977044E+02 -0.70400940710E+02 -0.10756088198E+02  0.15582348255E+03  0.12500062540E+03 0.  0.
          2    1    1    2  501    0 -0.12704522060E+02  0.71891548141E+02 -0.50204431777E+03  0.50732464614E+03  0.00000000000E+00 0. -1.
          1    1    1    2  502    0 -0.47160454984E+02 -0.14906074313E+01  0.45986195212E+03  0.46227626527E+03  0.00000000000E+00 0. -1.
         22    1    3    3    0    0  0.21521353499E+02 -0.10213885174E+03  0.21463000449E+01  0.10440364119E+03  0.00000000000E+00 0.  1.
         22    1    3    3    0    0  0.38343623546E+02  0.31737911026E+02 -0.12902388243E+02  0.51419841358E+02  0.00000000000E+00 0.  1.
</event>
<event>
 7    1  0.5970484E-006  0.4770777E+02  0.7818608E-02  0.1551145E+00
          2   -1    0    0  502    0  0.00000000000E+00  0.00000000000E+00  0.78092514292E+02  0.78092514292E+02  0.00000000000E+00 0. -1.
          1   -1    0    0  501    0 -0.00000000000E+00 -0.00000000000E+00 -0.20031023922E+04  0.20031023922E+04  0.00000000000E+00 0. -1.
         25    2    1    2    0    0 -0.52922213054E+02 -0.27558477475E+02 -0.28078397444E+02  0.14131546463E+03  0.12498573449E+03 0.  0.
          2    1    1    2  501    0  0.29633225547E+02  0.37342914080E+02 -0.19105749300E+04  0.19111695855E+04  0.00000000000E+00 0. -1.
          1    1    1    2  502    0  0.23288987507E+02 -0.97844366043E+01  0.13643449536E+02  0.28709856391E+02  0.00000000000E+00 0. -1.
         22    1    3    3    0    0 -0.63825017887E+02 -0.60115906252E+02 -0.49656185341E+02  0.10076354418E+03  0.00000000000E+00 0. -1.
         22    1    3    3    0    0  0.10902804833E+02  0.32557428777E+02  0.21577787897E+02  0.40551920452E+02  0.00000000000E+00 0. -1.
</event>
<event>
 7    1  0.5970484E-006  0.7162746E+02  0.7818608E-02  0.1413628E+00
          2   -1    0    0  502    0  0.00000000000E+00  0.00000000000E+00  0.11129997911E+04  0.11129997911E+04  0.00000000000E+00 0. -1.
          1   -1    0    0  501    0 -0.00000000000E+00 -0.00000000000E+00 -0.15276016344E+03  0.15276016344E+03  0.00000000000E+00 0. -1.
         25    2    1    2    0    0  0.20404330305E+02 -0.37247791831E+02  0.11641765232E+03  0.17601485673E+03  0.12499770128E+03 0.  0.
          2    1    1    2  501    0 -0.64794759296E+02  0.36472158734E+02 -0.11115802499E+03  0.13373363719E+03  0.00000000000E+00 0. -1.
          1    1    1    2  502    0  0.44390428991E+02  0.77563309737E+00  0.95498000035E+03  0.95601146063E+03  0.00000000000E+00 0. -1.
         22    1    3    3    0    0  0.37671816491E+02  0.13552671797E+02  0.11561855860E+03  0.12235396096E+03  0.00000000000E+00 0. -1.
         22    1    3    3    0    0 -0.17267486187E+02 -0.50800463628E+02  0.79909372431E+00  0.53660895769E+02  0.00000000000E+00 0. -1.
</event>
<event>
 7    1  0.5970484E-006  0.7288980E+02  0.7818608E-02  0.1448096E+00
          2   -1    0    0  502    0  0.00000000000E+00  0.00000000000E+00  0.31900371265E+04  0.31900371265E+04  0.00000000000E+00 0. -1.
          1   -1    0    0  501    0 -0.00000000000E+00 -0.00000000000E+00 -0.14028091067E+03  0.14028091067E+03  0.00000000000E+00 0. -1.
         25    2    1    2    0    0 -0.85112575030E+01 -0.97481386803E+02  0.13152634639E+04  0.13248089888E+04  0.12500325927E+03 0.  0.
          2    1    1    2  501    0 -0.12897995873E+02  0.71577346958E+02 -0.12558646542E+03  0.14512627326E+03  0.00000000000E+00 0. -1.
          1    1    1    2  502    0  0.21409253376E+02  0.25904039845E+02  0.18600792173E+04  0.18603827752E+04  0.00000000000E+00 0. -1.
         22    1    3    3    0    0 -0.27676592298E+02 -0.12282791217E+03  0.98332302671E+03  0.99135102997E+03  0.00000000000E+00 0. -1.
         22    1    3    3    0    0  0.19165334795E+02  0.25346525366E+02  0.33194043723E+03  0.33345795878E+03  0.00000000000E+00 0. -1.
</event>
<event>
 7    1  0.5970484E-006  0.6367936E+02  0.7818608E-02  0.1511712E+00
          2   -1    0    0  502    0  0.00000000000E+00  0.00000000000E+00  0.88399474695E+03  0.88399474695E+03  0.00000000000E+00 0. -1.
          1   -1    0    0  501    0 -0.00000000000E+00 -0.00000000000E+00 -0.42656145930E+02  0.42656145930E+02  0.00000000000E+00 0. -1.
         25    2    1    2    0    0 -0.63574033122E+01  0.68109835709E+02  0.44236812229E+03  0.46475138987E+03  0.12499972990E+03 0.  0.
          2    1    1    2  501    0  0.28250323628E+02 -0.57030555547E+02  0.14890537377E+01  0.63661466619E+02  0.00000000000E+00 0. -1.
          1    1    1    2  502    0 -0.21892920316E+02 -0.11079280162E+02  0.39748142500E+03  0.39823803639E+03  0.00000000000E+00 0. -1.
         22    1    3    3    0    0  0.43240909298E+02  0.79008148585E+02  0.24762189985E+03  0.26349320497E+03  0.00000000000E+00 0.  1.
         22    1    3    3    0    0 -0.49598312610E+02 -0.10898312876E+02  0.19474622244E+03  0.20125818490E+03  0.00000000000E+00 0.  1.
</event>
<event>
 7    1  0.5970484E-006  0.3706653E+02  0.7818608E-02  0.1575281E+00
          2   -1    0    0  502    0  0.00000000000E+00  0.00000000000E+00  0.77409775427E+02  0.77409775427E+02  0.00000000000E+00 0. -1.
          1   -1    0    0  501    0 -0.00000000000E+00 -0.00000000000E+00 -0.24068356058E+03  0.24068356058E+03  0.00000000000E+00 0. -1.
         25    2    1    2    0    0  0.60381884069E+02 -0.18380100882E+02 -0.14025795988E+03  0.19819381006E+03  0.12499876402E+03 0.  0.
          2    1    1    2  501    0 -0.27730296514E+02  0.32363174583E+01 -0.61296793704E+02  0.67355326544E+02  0.00000000000E+00 0. -1.
          1    1    1    2  502    0 -0.32651587555E+02  0.15143783423E+02  0.38280968430E+02  0.52544199396E+02  0.00000000000E+00 0. -1.
         22    1    3    3    0    0  0.34759137120E+02 -0.50297254042E+02 -0.10373541285E+02  0.62013077140E+02  0.00000000000E+00 0. -1.
         22    1    3    3    0    0  0.25622746949E+02  0.31917153161E+02 -0.12988441859E+03  0.13618073292E+03  0.00000000000E+00 0. -1.
</event>
<event>
 7    1  0.5970484E-006  0.1238994E+03  0.7818608E-02  0.1307480E+00
          2   -1    0    0  502    0  0.00000000000E+00  0.00000000000E+00  0.23028964397E+04  0.23028964397E+04  0.00000000000E+00 0. -1.
          1   -1    0    0  501    0 -0.00000000000E+00 -0.00000000000E+00 -0.12910267097E+04  0.12910267097E+04  0.00000000000E+00 0. -1.
         25    2    1    2    0    0  0.81693785235E+02  0.88739828981E+02  0.41760884925E+03  0.45229575112E+03  0.12500265483E+03 0.  0.
          2    1    1    2  501    0 -0.27882450689E+02 -0.12085647123E+03 -0.12701360288E+04  0.12761775932E+04  0.00000000000E+00 0. -1.
          1    1    1    2  502    0 -0.53811334546E+02  0.32116642252E+02  0.18643969096E+04  0.18654498050E+04  0.00000000000E+00 0. -1.
         22    1    3    3    0    0  0.67366555548E+02  0.73862192997E+02  0.13023147391E+03  0.16417707866E+03  0.00000000000E+00 0. -1.
         22    1    3    3    0    0  0.14327229688E+02  0.14877635984E+02  0.28737737533E+03  0.28811867245E+03  0.00000000000E+00 0. -1.
</event>
<event>
 7    1  0.5970484E-006  0.2070952E+03  0.7818608E-02  0.1149195E+00
          2   -1    0    0  502    0  0.00000000000E+00  0.00000000000E+00  0.27627767436E+04  0.27627767436E+04  0.00000000000E+00 0. -1.
          1   -1    0    0  501    0 -0.00000000000E+00 -0.00000000000E+00 -0.63768734078E+03  0.63768734078E+03  0.00000000000E+00 0. -1.
         25    2    1    2    0    0 -0.53745476584E+02  0.44891315075E+02  0.18020285590E+03  0.23022072628E+03  0.12499882844E+03 0.  0.
          2    1    1    2  501    0  0.16570949212E+03  0.12932828514E+03 -0.59030138906E+03  0.62661086094E+03  0.00000000000E+00 0. -1.
          1    1    1    2  502    0 -0.11196401554E+03 -0.17421960022E+03  0.25351879360E+04  0.25436324972E+04  0.00000000000E+00 0. -1.
         22    1    3    3    0    0 -0.75265208140E+02 -0.17176791139E+02  0.10571955598E+03  0.13090652476E+03  0.00000000000E+00 0. -1.
         22    1    3    3    0    0  0.21519731556E+02  0.62068106214E+02  0.74483299921E+02  0.99314201514E+02  0.00000000000E+00 0. -1.
</event>
<event>
 7    1  0.5970484E-006  0.3521319E+02  0.7818608E-02  0.1558609E+00
          2   -1    0    0  502    0  0.00000000000E+00  0.00000000000E+00  0.44738717849E+03  0.44738717849E+03  0.00000000000E+00 0. -1.
          1   -1    0    0  501    0 -0.00000000000E+00 -0.00000000000E+00 -0.20153004114E+04  0.20153004114E+04  0.00000000000E+00 0. -1.
         25    2    1    2    0    0  0.24991784926E+02 -0.31251831632E+02 -0.71344743263E+03  0.72541905561E+03  0.12499720324E+03 0.  0.
          2    1    1    2  501    0 -0.35592872736E+02  0.38974589528E+00 -0.12950191789E+04  0.12955082703E+04  0.00000000000E+00 0. -1.
          1    1    1    2  502    0  0.10601087810E+02  0.30862085736E+02  0.44055337867E+03  0.44176026401E+03  0.00000000000E+00 0. -1.
         22    1    3    3    0    0  0.18123170535E+02 -0.54609479095E+02 -0.68725247538E+03  0.68965687805E+03  0.00000000000E+00 0.  1.
         22    1    3    3    0    0  0.68686143905E+01  0.23357647463E+02 -0.26194957245E+02  0.35762177559E+02  0.00000000000E+00 0.  1.
</event>
<event>
 7    1  0.5970484E-006  0.6918229E+02  0.7818608E-02  0.1400222E+00
          2   -1    0    0  502    0  0.00000000000E+00  0.00000000000E+00  0.35355119665E+04  0.35355119665E+04  0.00000000000E+00 0. -1.
          1   -1    0    0  501    0 -0.00000000000E+00 -0.00000000000E+00 -0.77196591392E+01  0.77196591392E+01  0.00000000000E+00 0. -1.
         25    2    1    2    0    0  0.39686591342E+02  0.32039905860E+01  0.16817232527E+04  0.16868324908E+04  0.12500185012E+03 0.  0.
          2    1    1    2  501    0 -0.55536110853E+02 -0.51741065480E+02  0.29887754585E+03  0.30836534319E+03  0.00000000000E+00 0. -1.
          1    1    1    2  502    0  0.15849519510E+02  0.48537074894E+02  0.15471915089E+04  0.15480337917E+04  0.00000000000E+00 0. -1.
         22    1    3    3    0    0  0.16392249059E+02  0.11842482959E+01  0.24843173087E+02  0.29787439002E+02  0.00000000000E+00 0. -1.
         22    1    3    3    0    0  0.23294342283E+02  0.20197422901E+01  0.16568800796E+04  0.16570450518E+04  0.00000000000E+00 0. -1.
</event>
<event>
 7    1  0.5970484E-006  0.5005938E+02  0.7818608E-02  0.1448625E+00
          2   -1    0    0  502    0  0.00000000000E+00  0.00000000000E+00  0.10934953493E+04  0.10934953493E+04  0.00000000000E+00 0. -1.
          1   -1    0    0  501    0 -0.00000000000E+00 -0.00000000000E+00 -0.61540670608E+02  0.61540670608E+02  0.00000000000E+00 0. -1.
         25    2    1    2    0    0  0.11244548331E+02 -0.41425094711E+02  0.18120529616E+03  0.22427655145E+03  0.12498853482E+03 0.  0.
          2    1    1    2  501    0  0.37287047018E+02  0.36899771245E+02 -0.21830139331E+02  0.56819644283E+02  0.00000000000E+00 0. -1.
          1    1    1    2  502    0 -0.48531595349E+02  0.45253234655E+01  0.87257952187E+03  0.87393982417E+03  0.00000000000E+00 0. -1.
         22    1    3    3    0    0 -0.25799325662E+02  0.14131049768E+02 -0.17989327820E+01  0.29470797942E+02  0.00000000000E+00 0. -1.
         22    1    3    3    0    0  0.37043873993E+02 -0.55556144479E+02  0.18300422894E+03  0.19480575351E+03  0.00000000000E+00 0. -1.
</event>
<event>
 7    1  0.5970484E-006  0.6127227E+02  0.7818608E-02  0.1432043E+00
          2   -1    0    0  502    0  0.00000000000E+00  0.00000000000E+00  0.98282271503E+03  0.98282271503E+03  0.00000000000E+00 0. -1.
          1   -1    0    0  501    0 -0.00000000000E+00 -0.00000000000E+00 -0.31174133214E+03  0.31174133214E+03  0.00000000000E+00 0. -1.
         25    2    1    2    0    0  0.93215255045E+02 -0.48455233876E+02  0.19360190455E+03  0.25326581406E+03  0.12499952666E+03 0.  0.
          2    1    1    2  501    0 -0.50877141005E+02  0.32993327922E+02 -0.27796903711E+03  0.28450628948E+03  0.00000000000E+00 0. -1.
          1    1    1    2  502    0 -0.42338114040E+02  0.15461905954E+02  0.75544851545E+03  0.75679194362E+03  0.00000000000E+00 0. -1.
         22    1    3    3    0    0 -0.24694142456E+02  0.99132575495E+01  0.60603611307E+02  0.66188148866E+02  0.00000000000E+00 0. -1.
         22    1    3    3    0    0  0.11790939750E+03 -0.58368491425E+02  0.13299829324E+03  0.18707766520E+03  0.00000000000E+00 0. -1.
</event>
<event>
 7    1  0.5970484E-006  0.2124616E+03  0.7818608E-02  0.1147473E+00
          2   -1    0    0  502    0  0.00000000000E+00  0.00000000000E+00  0.47732994182E+03  0.47732994182E+03  0.00000000000E+00 0. -1.
          1   -1    0    0  501    0 -0.00000000000E+00 -0.00000000000E+00 -0.37784350882E+03  0.37784350882E+03  0.00000000000E+00 0. -1.
         25    2    1    2    0    0 -0.11891704852E+03 -0.94025186977E+02 -0.55597747477E+02  0.20419945802E+03  0.12499723564E+03 0.  0.
          2    1    1    2  501    0  0.31214309476E+03  0.85710396132E+02 -0.92640339503E+02  0.33669246518E+03  0.00000000000E+00 0. -1.
          1    1    1    2  502    0 -0.19322604623E+03  0.83147908451E+01  0.24772451998E+03  0.31428152744E+03  0.00000000000E+00 0. -1.
         22    1    3    3    0    0 -0.12630148439E+03 -0.61422330499E+02 -0.13171703651E+01  0.14045106828E+03  0.00000000000E+00 0. -1.
         22    1    3    3    0    0  0.73844358633E+01 -0.32602856478E+02 -0.54280577112E+02  0.63748389746E+02  0.00000000000E+00 0. -1.
</event>
<event>
 7    1  0.5970484E-006  0.6998896E+02  0.7818608E-02  0.1390901E+00
          2   -1    0    0  502    0  0.00000000000E+00  0.00000000000E+00  0.93253174142E+03  0.93253174142E+03  0.00000000000E+00 0. -1.
          1   -1    0    0  501    0 -0.00000000000E+00 -0.00000000000E+00 -0.32815811734E+03  0.32815811734E+03  0.00000000000E+00 0. -1.
         25    2    1    2    0    0  0.40221390090E+02 -0.38685029769E+02  0.27531145897E+02  0.13963097685E+03  0.12499821580E+03 0.  0.
          2    1    1    2  501    0  0.30352913624E+02  0.45100517028E+02 -0.26789445308E+03  0.27335470363E+03  0.00000000000E+00 0. -1.
          1    1    1    2  502    0 -0.70574303714E+02 -0.64154872586E+01  0.84473693127E+03  0.84770417828E+03  0.00000000000E+00 0. -1.
         22    1    3    3    0    0  0.17160004356E+02 -0.83714822531E+02  0.24730203281E+02  0.88961903168E+02  0.00000000000E+00 0. -1.
         22    1    3    3    0    0  0.23061385734E+02  0.45029792762E+02  0.28009426165E+01  0.50669073681E+02  0.00000000000E+00 0. -1.
</event>
<event>
 7    1  0.5970484E-006  0.7932333E+02  0.7818608E-02  0.1449534E+00
          2   -1    0    0  502    0  0.00000000000E+00  0.00000000000E+00  0.34183391147E+03  0.34183391147E+03  0.00000000000E+00 0. -1.
          1   -1    0    0  501    0 -0.00000000000E+00 -0.00000000000E+00 -0.42721368467E+03  0.42721368467E+03  0.00000000000E+00 0. -1.
         25    2    1    2    0    0 -0.24056631334E+02 -0.53565956142E+02 -0.10200242399E+03  0.17168328235E+03  0.12499048672E+03 0.  0.
          2    1    1    2  501    0  0.13167561132E+02  0.82114466808E+02 -0.28362494018E+03  0.29556602818E+03  0.00000000000E+00 0. -1.
          1    1    1    2  502    0  0.10889070202E+02 -0.28548510666E+02  0.30024759097E+03  0.30179828560E+03  0.00000000000E+00 0. -1.
         22    1    3    3    0    0  0.16054409181E+02  0.27105685413E+02  0.48977245874E+01  0.31881812088E+02  0.00000000000E+00 0.  1.
         22    1    3    3    0    0 -0.40111040515E+02 -0.80671641556E+02 -0.10690014858E+03  0.13980147027E+03  0.00000000000E+00 0.  1.
</event>
<event>
 7    1  0.5970484E-006  0.8116762E+02  0.7818608E-02  0.1383001E+00
          2   -1    0    0  502    0  0.00000000000E+00  0.00000000000E+00  0.19576772014E+04  0.19576772014E+04  0.00000000000E+00 0. -1.
          1   -1    0    0  501    0 -0.00000000000E+00 -0.00000000000E+00 -0.99335854545E+03  0.99335854545E+03  0.00000000000E+00 0. -1.
         25    2    1    2    0    0 -0.53123096517E+02 -0.95906626432E+02  0.44732455538E+03  0.47722094294E+03  0.12498170329E+03 0.  0.
          2    1    1    2  501    0  0.54620680451E+01  0.80917472032E+02 -0.97631119146E+03  0.97967393251E+03  0.00000000000E+00 0. -1.
          1    1    1    2  502    0  0.47661028472E+02  0.14989154400E+02  0.14933052920E+04  0.14941408714E+04  0.00000000000E+00 0. -1.
         22    1    3    3    0    0 -0.86455671196E+02 -0.94487191453E+02  0.39425893413E+03  0.41453892408E+03  0.00000000000E+00 0. -1.
         22    1    3    3    0    0  0.33332574678E+02 -0.14194349790E+01  0.53065621245E+02  0.62682018861E+02  0.00000000000E+00 0. -1.
</event>
<event>
 7    1  0.5970484E-006  0.7165749E+02  0.7818608E-02  0.1505380E+00
          2   -1    0    0  502    0  0.00000000000E+00  0.00000000000E+00  0.88400304687E+03  0.88400304687E+03  0.00000000000E+00 0. -1.
          1   -1    0    0  501    0 -0.00000000000E+00 -0.00000000000E+00 -0.31543659107E+03  0.31543659107E+03  0.00000000000E+00 0. -1.
         25    2    1    2    0    0 -0.37621502020E+02  0.41660848776E+02  0.23475998647E+03  0.27182232909E+03  0.12499649439E+03 0.  0.
          2    1    1    2  501    0  0.60263775310E+02 -0.39319425778E+02 -0.29233581001E+03  0.30106139851E+03  0.00000000000E+00 0. -1.
          1    1    1    2  502    0 -0.22642273290E+02 -0.23414229981E+01  0.62614227935E+03  0.62655591034E+03  0.00000000000E+00 0. -1.
         22    1    3    3    0    0 -0.45831326663E+02 -0.32434550068E+02  0.14279474330E+03  0.15343679238E+03  0.00000000000E+00 0. -1.
         22    1    3    3    0    0  0.82098246423E+01  0.74095398844E+02  0.91965243168E+02  0.11838553671E+03  0.00000000000E+00 0. -1.
</event>
<event>
 7    1  0.5970484E-006  0.7299695E+02  0.7818608E-02  0.1396362E+00
          2   -1    0    0  502    0  0.00000000000E+00  0.00000000000E+00  0.10025192418E+04  0.10025192418E+04  0.00000000000E+00 0. -1.
          1   -1    0    0  501    0 -0.00000000000E+00 -0.00000000000E+00 -0.99543947333E+03  0.99543947333E+03  0.00000000000E+00 0. -1.
         25    2    1    2    0    0 -0.45924784969E+01 -0.82776319931E+02  0.12068089688E+03  0.19251771707E+03  0.12500472998E+03 0.  0.
          2    1    1    2  501    0 -0.40276099087E+02  0.60947471904E+02 -0.95739251446E+03  0.96017560125E+03  0.00000000000E+00 0. -1.
          1    1    1    2  502    0  0.44868577584E+02  0.21828848027E+02  0.84379138609E+03  0.84526539684E+03  0.00000000000E+00 0. -1.
         22    1    3    3    0    0  0.45811520493E+02 -0.85191437486E+02  0.60970531939E+02  0.11434020376E+03  0.00000000000E+00 0. -1.
         22    1    3    3    0    0 -0.50403998990E+02  0.24151175547E+01  0.59710364939E+02  0.78177513315E+02  0.00000000000E+00 0. -1.
</event>
<event>
 7    1  0.5970484E-006  0.1384596E+03  0.7818608E-02  0.1306565E+00
          2   -1    0    0  502    0  0.00000000000E+00  0.00000000000E+00  0.12809109988E+03  0.12809109988E+03  0.00000000000E+00 0. -1.
          1   -1    0    0  501    0 -0.00000000000E+00 -0.00000000000E+00 -0.18514306354E+04  0.18514306354E+04  0.00000000000E+00 0. -1.
         25    2    1    2    0    0 -0.13193152505E+03  0.96733480109E+02 -0.32047161714E+03  0.38090705787E+03  0.12499934347E+03 0.  0.
          2    1    1    2  501    0  0.77629847575E+02 -0.11250924384E+03 -0.14891737124E+04  0.14954340737E+04  0.00000000000E+00 0. -1.
          1    1    1    2  502    0  0.54301677478E+02  0.15775763726E+02  0.86305794010E+02  0.10318060369E+03  0.00000000000E+00 0. -1.
         22    1    3    3    0    0 -0.14466935857E+02 -0.13201365820E+02  0.28289527859E+01  0.19788159754E+02  0.00000000000E+00 0.  1.
         22    1    3    3    0    0 -0.11746458920E+03  0.10993484593E+03 -0.32330056992E+03  0.36111889812E+03  0.00000000000E+00 0.  1.
</event>
<event>
 7    1  0.5970484E-006  0.4419355E+02  0.7818608E-02  0.1495841E+00
          2   -1    0    0  502    0  0.00000000000E+00  0.00000000000E+00  0.13849700742E+04  0.13849700742E+04  0.00000000000E+00 0. -1.
          1   -1    0    0  501    0 -0.00000000000E+00 -0.00000000000E+00 -0.21785661456E+03  0.21785661456E+03  0.00000000000E+00 0. -1.
         25    2    1    2    0    0  0.85537619836E+00 -0.46294992367E+02  0.73905555290E+02  0.15241621609E+03  0.12499885535E+03 0.  0.
          2    1    1    2  501    0 -0.35314248994E+02  0.27176602473E+02 -0.17551112112E+03  0.18107958897E+03  0.00000000000E+00 0. -1.
          1    1    1    2  502    0  0.34458872796E+02  0.19118389894E+02  0.12687190254E+04  0.12693308837E+04  0.00000000000E+00 0. -1.
         22    1    3    3    0    0  0.62009692192E+02 -0.26047680994E+02  0.49579476611E+02  0.83557214601E+02  0.00000000000E+00 0.  1.
         22    1    3    3    0    0 -0.61154315993E+02 -0.20247311374E+02  0.24326078680E+02  0.68859001491E+02  0.00000000000E+00 0.  1.
</event>
<event>
 7    1  0.5970484E-006  0.1016465E+03  0.7818608E-02  0.1400051E+00
          2   -1    0    0  502    0  0.00000000000E+00  0.00000000000E+00  0.89987939311E+03  0.89987939311E+03  0.00000000000E+00 0. -1.
          1   -1    0    0  501    0 -0.00000000000E+00 -0.00000000000E+00 -0.85838412272E+02  0.85838412272E+02  0.00000000000E+00 0. -1.
         25    2    1    2    0    0  0.78459376900E+02 -0.52767954597E+02  0.23521214335E+03  0.28264753019E+03  0.12499817232E+03 0.  0.
          2    1    1    2  501    0 -0.61703222674E+02  0.83267148500E+02 -0.18033251642E+02  0.10519460002E+03  0.00000000000E+00 0. -1.
          1    1    1    2  502    0 -0.16756154226E+02 -0.30499193903E+02  0.59686208913E+03  0.59787567518E+03  0.00000000000E+00 0. -1.
         22    1    3    3    0    0 -0.10800166744E+02 -0.53573449493E+02  0.14835050180E+03  0.15809689901E+03  0.00000000000E+00 0. -1.
         22    1    3    3    0    0  0.89259543644E+02  0.80549489589E+00  0.86861641555E+02  0.12455063118E+03  0.00000000000E+00 0. -1.
</event>
<event>
 7    1  0.5970484E-006  0.3595132E+02  0.7818608E-02  0.1582897E+00
          2   -1    0    0  502    0  0.00000000000E+00  0.00000000000E+00  0.44197223009E+03  0.44197223009E+03  0.00000000000E+00 0. -1.
          1   -1    0    0  501    0 -0.00000000000E+00 -0.00000000000E+00 -0.54495730504E+03  0.54495730504E+03  0.00000000000E+00 0. -1.
         25    2    1    2    0    0  0.41492744654E+02  0.45795573182E+02  0.57550435683E+02  0.15085303539E+03  0.12500281300E+03 0.  0.
          2    1    1    2  501    0 -0.18647395966E+02 -0.30558075860E+02 -0.49710313947E+03  0.49839046203E+03  0.00000000000E+00 0. -1.
          1    1    1    2  502    0 -0.22845348688E+02 -0.15237497322E+02  0.33656762883E+03  0.33768603770E+03  0.00000000000E+00 0. -1.
         22    1    3    3    0    0  0.55859342021E+02 -0.12685168256E+02 -0.12341948407E+02  0.58596102901E+02  0.00000000000E+00 0. -1.
         22    1    3    3    0    0 -0.14366597367E+02  0.58480741438E+02  0.69892384090E+02  0.92256932492E+02  0.00000000000E+00 0. -1.
</event>
<event>
 7    1  0.5970484E-006  0.1185502E+03  0.7818608E-02  0.1251866E+00
          2   -1    0    0  502    0  0.00000000000E+00  0.00000000000E+00  0.21127214362E+04  0.21127214362E+04  0.00000000000E+00 0. -1.
          1   -1    0    0  501    0 -0.00000000000E+00 -0.00000000000E+00 -0.55156054253E+03  0.55156054253E+03  0.00000000000E+00 0. -1.
         25    2    1    2    0    0 -0.96842513072E+02  0.20761994156E+03 -0.21867473082E+03  0.34048255582E+03  0.12500088179E+03 0.  0.
          2    1    1    2  501    0  0.48473013097E+02 -0.10012386408E+03 -0.25883343542E+03  0.28172534222E+03  0.00000000000E+00 0. -1.
          1    1    1    2  502    0  0.48369499975E+02 -0.10749607748E+03  0.20386690599E+04  0.20420740807E+04  0.00000000000E+00 0. -1.
         22    1    3    3    0    0 -0.94271048855E+02  0.21734380874E+03 -0.17206468654E+03  0.29279962125E+03  0.00000000000E+00 0.  1.
         22    1    3    3    0    0 -0.25714642167E+01 -0.97238671887E+01 -0.46610044273E+02  0.47682934562E+02  0.00000000000E+00 0.  1.
</event>
<event>
 7    1  0.5970484E-006  0.4137635E+02  0.7818608E-02  0.1558881E+00
          2   -1    0    0  502    0  0.00000000000E+00  0.00000000000E+00  0.97142617523E+03  0.97142617523E+03  0.00000000000E+00 0. -1.
          1   -1    0    0  501    0 -0.00000000000E+00 -0.00000000000E+00 -0.58132211262E+02  0.58132211262E+02  0.00000000000E+00 0. -1.
         25    2    1    2    0    0  0.23518335909E+02 -0.48598788652E+01  0.23935876363E+03  0.27109789773E+03  0.12499888751E+03 0.  0.
          2    1    1    2  501    0  0.14281710776E+02  0.23761885699E+02 -0.37020063804E+02  0.46250184851E+02  0.00000000000E+00 0. -1.
          1    1    1    2  502    0 -0.37800046685E+02 -0.18902006834E+02  0.71095526414E+03  0.71221030392E+03  0.00000000000E+00 0. -1.
         22    1    3    3    0    0  0.75893351941E+01  0.59609428449E+02  0.98751371581E+02  0.11559721172E+03  0.00000000000E+00 0. -1.
         22    1    3    3    0    0  0.15929000715E+02 -0.64469307314E+02  0.14060739205E+03  0.15550068601E+03  0.00000000000E+00 0. -1.
</event>
<event>
 7    1  0.5970484E-006  0.9600696E+02  0.7818608E-02  0.1326796E+00
          2   -1    0    0  502    0  0.00000000000E+00  0.00000000000E+00  0.70654473265E+03  0.70654473265E+03  0.00000000000E+00 0. -1.
          1   -1    0    0  501    0 -0.00000000000E+00 -0.00000000000E+00 -0.21014532275E+03  0.21014532275E+03  0.00000000000E+00 0. -1.
         25    2    1    2    0    0  0.12323065345E+03 -0.34140595510E+02  0.28526009188E+03  0.33667653048E+03  0.12500556765E+03 0.  0.
          2    1    1    2  501    0 -0.59630329004E+02 -0.32687444791E+02 -0.17250939618E+03  0.18542852249E+03  0.00000000000E+00 0. -1.
          1    1    1    2  502    0 -0.63600324450E+02  0.66828040301E+02  0.38364871419E+03  0.39458500243E+03  0.00000000000E+00 0. -1.
         22    1    3    3    0    0  0.72789379721E+02 -0.25357806618E+02  0.27348510906E+03  0.28413978432E+03  0.00000000000E+00 0. -1.
         22    1    3    3    0    0  0.50441273734E+02 -0.87827888913E+01  0.11774982824E+02  0.52536746161E+02  0.00000000000E+00 0. -1.
</event>
<event>
 7    1  0.5970484E-006  0.5891314E+02  0.7818608E-02  0.1431614E+00
          2   -1    0    0  502    0  0.00000000000E+00  0.00000000000E+00  0.12746051006E+04  0.12746051006E+04  0.00000000000E+00 0. -1.
          1   -1    0    0  501    0 -0.00000000000E+00 -0.00000000000E+00 -0.51725800833E+03  0.51725800833E+03  0.00000000000E+00 0. -1.
         25    2    1    2    0    0 -0.10277010989E+03 -0.24661818753E+02  0.30590472752E+03  0.34695118237E+03  0.12501007897E+03 0.  0.
          2    1    1    2  501    0  0.57183008372E+02  0.13101488773E+02 -0.49441641052E+03  0.49788465777E+03  0.00000000000E+00 0. -1.
          1    1    1    2  502    0  0.45587101515E+02  0.11560329980E+02  0.94585877530E+03  0.94702726881E+03  0.00000000000E+00 0. -1.
         22    1    3    3    0    0 -0.78417351969E+02  0.90630431788E+01  0.64361078410E+02  0.10185169736E+03  0.00000000000E+00 0.  1.
         22    1    3    3    0    0 -0.24352757918E+02 -0.33724861932E+02  0.24154364910E+03  0.24509948501E+03  0.00000000000E+00 0.  1.
</event>
<event>
 7    1  0.5970484E-006  0.9725223E+02  0.7818608E-02  0.1353018E+00
          2   -1    0    0  502    0  0.00000000000E+00  0.00000000000E+00  0.63281675295E+03  0.63281675295E+03  0.00000000000E+00 0. -1.
          1   -1    0    0  501    0 -0.00000000000E+00 -0.00000000000E+00 -0.20429864151E+03  0.20429864151E+03  0.00000000000E+00 0. -1.
         25    2    1    2    0    0  0.50352997102E+01  0.11882925683E+03 -0.96642195680E+02  0.19776273332E+03  0.12499855271E+03 0.  0.
          2    1    1    2  501    0 -0.44204350253E+02 -0.30114632107E+02 -0.39457866318E+02  0.66466825279E+02  0.00000000000E+00 0. -1.
          1    1    1    2  502    0  0.39169050543E+02 -0.88714624725E+02  0.56461817343E+03  0.57288583586E+03  0.00000000000E+00 0. -1.
         22    1    3    3    0    0 -0.30406265902E+02  0.10774975159E+03 -0.21580989711E+02  0.11401881025E+03  0.00000000000E+00 0. -1.
         22    1    3    3    0    0  0.35441565612E+02  0.11079505244E+02 -0.75061205970E+02  0.83743923070E+02  0.00000000000E+00 0. -1.
</event>
<event>
 7    1  0.5970484E-006  0.1337105E+03  0.7818608E-02  0.1268069E+00
          2   -1    0    0  502    0  0.00000000000E+00  0.00000000000E+00  0.10921229354E+04  0.10921229354E+04  0.00000000000E+00 0. -1.
          1   -1    0    0  501    0 -0.00000000000E+00 -0.00000000000E+00 -0.44370445509E+02  0.44370445509E+02  0.00000000000E+00 0. -1.
         25    2    1    2    0    0 -0.93291157861E+02  0.79063602260E+02  0.36838668940E+03  0.40778428080E+03  0.12499989363E+03 0.  0.
          2    1    1    2  501    0 -0.52583944812E+02 -0.65643166938E+02  0.97870341660E+02  0.12904534240E+03  0.00000000000E+00 0. -1.
          1    1    1    2  502    0  0.14587510267E+03 -0.13420435321E+02  0.58149545881E+03  0.59966375768E+03  0.00000000000E+00 0. -1.
         22    1    3    3    0    0 -0.37348976968E+02  0.66145941072E+02  0.33021357404E+03  0.33883806764E+03  0.00000000000E+00 0. -1.
         22    1    3    3    0    0 -0.55942180893E+02  0.12917661188E+02  0.38173115357E+02  0.68946213164E+02  0.00000000000E+00 0. -1.
</event>
<event>
 7    1  0.5970484E-006  0.1454461E+03  0.7818608E-02  0.1320856E+00
          2   -1    0    0  502    0  0.00000000000E+00  0.00000000000E+00  0.44059042879E+03  0.44059042879E+03  0.00000000000E+00 0. -1.
          1   -1    0    0  501    0 -0.00000000000E+00 -0.00000000000E+00 -0.12787373751E+04  0.12787373751E+04  0.00000000000E+00 0. -1.
         25    2    1    2    0    0 -0.13186285253E+03  0.11838112880E+03 -0.26638834609E+02  0.21849519355E+03  0.12501447341E+03 0.  0.
          2    1    1    2  501    0  0.12512256598E+03 -0.71544820807E+02 -0.11500263214E+04  0.11590232344E+04  0.00000000000E+00 0. -1.
          1    1    1    2  502    0  0.67402865552E+01 -0.46836307996E+02  0.33851820969E+03  0.34180937597E+03  0.00000000000E+00 0. -1.
         22    1    3    3    0    0 -0.11715160598E+03  0.87273964916E+02 -0.70940089724E+02  0.16239993863E+03  0.00000000000E+00 0.  1.
         22    1    3    3    0    0 -0.14711246550E+02  0.31107163888E+02  0.44301255115E+02  0.56095254924E+02  0.00000000000E+00 0.  1.
</event>
<event>
 7    1  0.5970484E-006  0.7960481E+02  0.7818608E-02  0.1366092E+00
          2   -1    0    0  502    0  0.00000000000E+00  0.00000000000E+00  0.14239146931E+04  0.14239146931E+04  0.00000000000E+00 0. -1.
          1   -1    0    0  501    0 -0.00000000000E+00 -0.00000000000E+00 -0.57418288700E+03  0.57418288700E+03  0.00000000000E+00 0. -1.
         25    2    1    2    0    0  0.66044994511E+02 -0.53675732981E+02 -0.11095142811E+02  0.15163263691E+03  0.12500531497E+03 0.  0.
          2    1    1    2  501    0  0.13718780052E+02  0.56911762834E+02 -0.48989780989E+03  0.49338323624E+03  0.00000000000E+00 0. -1.
          1    1    1    2  502    0 -0.79763774563E+02 -0.32360298535E+01  0.13507247588E+04  0.13530817069E+04  0.00000000000E+00 0. -1.
         22    1    3    3    0    0 -0.28599942311E+02  0.16010494580E+02 -0.93633588589E+01  0.34087609568E+02  0.00000000000E+00 0.  1.
         22    1    3    3    0    0  0.94644936823E+02 -0.69686227561E+02 -0.17317839520E+01  0.11754502734E+03  0.00000000000E+00 0.  1.
</event>
<event>
 7    1  0.5970484E-006  0.1461521E+03  0.7818608E-02  0.1359264E+00
          2   -1    0    0  502    0  0.00000000000E+00  0.00000000000E+00  0.11552725403E+04  0.11552725403E+04  0.00000000000E+00 0. -1.
          1   -1    0    0  501    0 -0.00000000000E+00 -0.00000000000E+00 -0.32818198211E+03  0.32818198211E+03  0.00000000000E+00 0. -1.
         25    2    1    2    0    0  0.11759219692E+03 -0.11435504268E+03 -0.15161674510E+03  0.25596392672E+03  0.12499957531E+03 0.  0.
          2    1    1    2  501    0 -0.33433297555E+02 -0.46943387477E+01 -0.11718070824E+03  0.12194728609E+03  0.00000000000E+00 0. -1.
          1    1    1    2  502    0 -0.84158899361E+02  0.11904938143E+03  0.10958880115E+04  0.11055433096E+04  0.00000000000E+00 0. -1.
         22    1    3    3    0    0  0.68355903926E+02  0.10420993694E+02 -0.72704684601E+02  0.10033492848E+03  0.00000000000E+00 0. -1.
         22    1    3    3    0    0  0.49236292989E+02 -0.12477603637E+03 -0.78912060497E+02  0.15562899824E+03  0.00000000000E+00 0. -1.
</event>
<event>
 7    1  0.5970484E-006  0.1631763E+03  0.7818608E-02  0.1315241E+00
          2   -1    0    0  502    0  0.00000000000E+00  0.00000000000E+00  0.19626672086E+04  0.19626672086E+04  0.00000000000E+00 0. -1.
          1   -1    0    0  501    0 -0.00000000000E+00 -0.00000000000E+00 -0.64820448638E+03  0.64820448638E+03  0.00000000000E+00 0. -1.
         25    2    1    2    0    0 -0.10763265305E+03  0.77335792907E+02  0.36863898171E+03  0.41119575837E+03  0.12498655926E+03 0.  0.
          2    1    1    2  501    0 -0.13272701645E+02  0.42321224756E+02 -0.62153392965E+03  0.62311449700E+03  0.00000000000E+00 0. -1.
          1    1    1    2  502    0  0.12090535470E+03 -0.11965701766E+03  0.15673576702E+04  0.15765614396E+04  0.00000000000E+00 0. -1.
         22    1    3    3    0    0 -0.11429077935E+03  0.43829141724E+02  0.16910169912E+03  0.20875526474E+03  0.00000000000E+00 0.  1.
         22    1    3    3    0    0  0.66581263028E+01  0.33506651183E+02  0.19953728258E+03  0.20244049363E+03  0.00000000000E+00 0.  1.
</event>
<event>
 7    1  0.5970484E-006  0.9830552E+02  0.7818608E-02  0.1356579E+00
          2   -1    0    0  502    0  0.00000000000E+00  0.00000000000E+00  0.13022034515E+03  0.13022034515E+03  0.00000000000E+00 0. -1.
          1   -1    0    0  501    0 -0.00000000000E+00 -0.00000000000E+00 -0.51292503705E+03  0.51292503705E+03  0.00000000000E+00 0. -1.
         25    2    1    2    0    0  0.65796541317E+02  0.41928825855E+02 -0.19579243398E+03  0.24504643028E+03  0.12500345795E+03 0.  0.
          2    1    1    2  501    0 -0.10858076518E+03 -0.13546709759E+02 -0.27509514001E+03  0.29605849417E+03  0.00000000000E+00 0. -1.
          1    1    1    2  502    0  0.42784223867E+02 -0.28382116096E+02  0.88182882086E+02  0.10204045776E+03  0.00000000000E+00 0. -1.
         22    1    3    3    0    0  0.97727669552E+02  0.97825228535E+01 -0.10623730727E+03  0.14468158351E+03  0.00000000000E+00 0. -1.
         22    1    3    3    0    0 -0.31931128235E+02  0.32146303001E+02 -0.89555126709E+02  0.10036484677E+03  0.00000000000E+00 0. -1.
</event>
<event>
 7    1  0.5970484E-006  0.3378626E+02  0.7818608E-02  0.1629815E+00
          2   -1    0    0  502    0  0.00000000000E+00  0.00000000000E+00  0.74460516844E+03  0.74460516844E+03  0.00000000000E+00 0. -1.
          1   -1    0    0  501    0 -0.00000000000E+00 -0.00000000000E+00 -0.67217586464E+02  0.67217586464E+02  0.00000000000E+00 0. -1.
         25    2    1    2    0    0  0.91059128457E+01  0.45529286631E+02  0.89815919027E+02  0.16077086911E+03  0.12499815781E+03 0.  0.
          2    1    1    2  501    0 -0.20139642336E+02 -0.26399895246E+02 -0.22801174903E+02  0.40279687678E+02  0.00000000000E+00 0. -1.
          1    1    1    2  502    0  0.11033729490E+02 -0.19129391385E+02  0.61037283785E+03  0.61077219811E+03  0.00000000000E+00 0. -1.
         22    1    3    3    0    0  0.55450728656E+01  0.66707106138E+02 -0.15098011210E+01  0.66954203318E+02  0.00000000000E+00 0. -1.
         22    1    3    3    0    0  0.35608399801E+01 -0.21177819507E+02  0.91325720148E+02  0.93816665795E+02  0.00000000000E+00 0. -1.
</event>
<event>
 7    1  0.5970484E-006  0.1185467E+03  0.7818608E-02  0.1279196E+00
          2   -1    0    0  502    0  0.00000000000E+00  0.00000000000E+00  0.81326132987E+03  0.81326132987E+03  0.00000000000E+00 0. -1.
          1   -1    0    0  501    0 -0.00000000000E+00 -0.00000000000E+00 -0.10631413549E+04  0.10631413549E+04  0.00000000000E+00 0. -1.
         25    2    1    2    0    0 -0.17333076591E+03 -0.39451276924E+02  0.28626016816E+03  0.35940192624E+03  0.12499961220E+03 0.  0.
          2    1    1    2  501    0  0.64418838434E+02  0.55825781244E+02 -0.10185843161E+04  0.10221449572E+04  0.00000000000E+00 0. -1.
          1    1    1    2  502    0  0.10891192748E+03 -0.16374504320E+02  0.48244412291E+03  0.49485580129E+03  0.00000000000E+00 0. -1.
         22    1    3    3    0    0 -0.57935914147E+02  0.33505014914E+02  0.16004477465E+03  0.17347474186E+03  0.00000000000E+00 0.  1.
         22    1    3    3    0    0 -0.11539485177E+03 -0.72956291837E+02  0.12621539351E+03  0.18592718438E+03  0.00000000000E+00 0.  1.
</event>
<event>
 7    1  0.5970484E-006  0.1018903E+03  0.7818608E-02  0.1429003E+00
          2   -1    0    0  502    0  0.00000000000E+00  0.00000000000E+00  0.11480103920E+04  0.11480103920E+04  0.00000000000E+00 0. -1.
          1   -1    0    0  501    0 -0.00000000000E+00 -0.00000000000E+00 -0.10804986452E+03  0.10804986452E+03  0.00000000000E+00 0. -1.
         25    2    1    2    0    0  0.53292503241E+02  0.11626037422E+03  0.45180544977E+03  0.48591097081E+03  0.12499896639E+03 0.  0.
          2    1    1    2  501    0 -0.39139783583E+02 -0.92406572810E+02 -0.62943604856E+02  0.11846009771E+03  0.00000000000E+00 0. -1.
          1    1    1    2  502    0 -0.14152719658E+02 -0.23853801415E+02  0.65109868254E+03  0.65168918797E+03  0.00000000000E+00 0. -1.
         22    1    3    3    0    0  0.14765760142E+02  0.99912115855E+02  0.14764132259E+03  0.17888101829E+03  0.00000000000E+00 0.  1.
         22    1    3    3    0    0  0.38526743099E+02  0.16348258369E+02  0.30416412718E+03  0.30702995252E+03  0.00000000000E+00 0.  1.
</event>
<event>
 7    1  0.5970484E-006  0.4706139E+02  0.7818608E-02  0.1481386E+00
          2   -1    0    0  502    0  0.00000000000E+00  0.00000000000E+00  0.10327845915E+04  0.10327845915E+04  0.00000000000E+00 0. -1.
          1   -1    0    0  501    0 -0.00000000000E+00 -0.00000000000E+00 -0.86739705263E+02  0.86739705263E+02  0.00000000000E+00 0. -1.
         25    2    1    2    0    0  0.28883326526E+01  0.17326271987E+02  0.79496137847E+03  0.80492047086E+03  0.12499931593E+03 0.  0.
          2    1    1    2  501    0 -0.43816015871E+02 -0.18062919915E+02 -0.72877652900E+02  0.86932529095E+02  0.00000000000E+00 0. -1.
          1    1    1    2  502    0  0.40927683218E+02  0.73664792788E+00  0.22396116071E+03  0.22767129685E+03  0.00000000000E+00 0. -1.
         22    1    3    3    0    0  0.26128614870E+02  0.11655912139E+02  0.37926525067E+02  0.47507747857E+02  0.00000000000E+00 0.  1.
         22    1    3    3    0    0 -0.23240282217E+02  0.56703598473E+01  0.75703485340E+03  0.75741272300E+03  0.00000000000E+00 0.  1.
</event>
<event>
 7    1  0.5970484E-006  0.3120202E+03  0.7818608E-02  0.1284976E+00
          2   -1    0    0  502    0  0.00000000000E+00  0.00000000000E+00  0.10473511406E+04  0.10473511406E+04  0.00000000000E+00 0. -1.
          1   -1    0    0  501    0 -0.00000000000E+00 -0.00000000000E+00 -0.15880377298E+04  0.15880377298E+04  0.00000000000E+00 0. -1.
         25    2    1    2    0    0 -0.80690584315E+02  0.30923904145E+03  0.28502104350E+03  0.44609632286E+03  0.12500071551E+03 0.  0.
          2    1    1    2  501    0  0.30365183168E+02 -0.42350108731E+01 -0.14722922646E+04  0.14726114532E+04  0.00000000000E+00 0. -1.
          1    1    1    2  502    0  0.50325401147E+02 -0.30500403058E+03  0.64658463195E+03  0.71668109432E+03  0.00000000000E+00 0. -1.
         22    1    3    3    0    0 -0.35554127400E+02  0.99449007816E+02  0.17635407126E+03  0.20556011184E+03  0.00000000000E+00 0. -1.
         22    1    3    3    0    0 -0.45136456916E+02  0.20979003364E+03  0.10866697224E+03  0.24053621102E+03  0.00000000000E+00 0. -1.
</event>
<event>
 7    1  0.5970484E-006  0.1252366E+03  0.7818608E-02  0.1296583E+00
          2   -1    0    0  502    0  0.00000000000E+00  0.00000000000E+00  0.71653150294E+02  0.71653150294E+02  0.00000000000E+00 0. -1.
          1   -1    0    0  501    0 -0.00000000000E+00 -0.00000000000E+00 -0.20042853767E+04  0.20042853767E+04  0.00000000000E+00 0. -1.
         25    2    1    2    0    0 -0.15081166901E+03  0.17834668024E+02 -0.40782530090E+03  0.45277705186E+03  0.12499339080E+03 0.  0.
          2    1    1    2  501    0  0.47868948887E+02  0.49035654178E+02 -0.14953526844E+04  0.14969220362E+04  0.00000000000E+00 0. -1.
          1    1    1    2  502    0  0.10294272013E+03 -0.66870322202E+02 -0.29454241052E+02  0.12623943890E+03  0.00000000000E+00 0. -1.
         22    1    3    3    0    0 -0.45899247120E+02  0.45574881091E+01 -0.29326509078E+03  0.29687021585E+03  0.00000000000E+00 0.  1.
         22    1    3    3    0    0 -0.10491242189E+03  0.13277179915E+02 -0.11456021012E+03  0.15590683602E+03  0.00000000000E+00 0.  1.
</event>
<event>
 7    1  0.5970484E-006  0.1005588E+03  0.7818608E-02  0.1372105E+00
          2   -1    0    0  502    0  0.00000000000E+00  0.00000000000E+00  0.47955447938E+03  0.47955447938E+03  0.00000000000E+00 0. -1.
          1   -1    0    0  501    0 -0.00000000000E+00 -0.00000000000E+00 -0.63766106857E+03  0.63766106857E+03  0.00000000000E+00 0. -1.
         25    2    1    2    0    0 -0.59522224839E+01  0.85356411667E+02  0.11043093871E+03  0.18745938907E+03  0.12499953745E+03 0.  0.
          2    1    1    2  501    0  0.49960529584E+02 -0.88038073796E+02 -0.59337136578E+03  0.60194379695E+03  0.00000000000E+00 0. -1.
          1    1    1    2  502    0 -0.44008307100E+02  0.26816621293E+01  0.32483383788E+03  0.32781236193E+03  0.00000000000E+00 0. -1.
         22    1    3    3    0    0 -0.99346334894E+01  0.69976407737E+02  0.13833778184E+03  0.15534714824E+03  0.00000000000E+00 0. -1.
         22    1    3    3    0    0  0.39824110055E+01  0.15380003930E+02 -0.27906843124E+02  0.32112240835E+02  0.00000000000E+00 0. -1.
</event>
<event>
 7    1  0.5970484E-006  0.1107859E+03  0.7818608E-02  0.1437355E+00
          2   -1    0    0  502    0  0.00000000000E+00  0.00000000000E+00  0.89060718219E+02  0.89060718219E+02  0.00000000000E+00 0. -1.
          1   -1    0    0  501    0 -0.00000000000E+00 -0.00000000000E+00 -0.12365268949E+04  0.12365268949E+04  0.00000000000E+00 0. -1.
         25    2    1    2    0    0 -0.24834709562E+02  0.12077819732E+03 -0.27693465526E+03  0.32790546625E+03  0.12500022306E+03 0.  0.
          2    1    1    2  501    0 -0.14512480984E+02 -0.19053725819E+02 -0.88704650541E+03  0.88736979852E+03  0.00000000000E+00 0. -1.
          1    1    1    2  502    0  0.39347190547E+02 -0.10172447150E+03  0.16514983973E+02  0.11031234836E+03  0.00000000000E+00 0. -1.
         22    1    3    3    0    0  0.20775035329E+02 -0.11478197874E+02 -0.85159553078E+01  0.25216514711E+02  0.00000000000E+00 0. -1.
         22    1    3    3    0    0 -0.45609744892E+02  0.13225639519E+03 -0.26841869995E+03  0.30268895154E+03  0.00000000000E+00 0. -1.
</event>
<event>
 7    1  0.5970484E-006  0.1584046E+03  0.7818608E-02  0.1278288E+00
          2   -1    0    0  502    0  0.00000000000E+00  0.00000000000E+00  0.10435250328E+04  0.10435250328E+04  0.00000000000E+00 0. -1.
          1   -1    0    0  501    0 -0.00000000000E+00 -0.00000000000E+00 -0.23063956725E+03  0.23063956725E+03  0.00000000000E+00 0. -1.
         25    2    1    2    0    0  0.37499630419E+02 -0.10688527945E+03  0.24207442062E+03  0.29504675561E+03  0.12498750989E+03 0.  0.
          2    1    1    2  501    0  0.20116868473E+01 -0.64317416135E+02 -0.18879278236E+03  0.19945799451E+03  0.00000000000E+00 0. -1.
          1    1    1    2  502    0 -0.39511317267E+02  0.17120269559E+03  0.75960382729E+03  0.77965984994E+03  0.00000000000E+00 0. -1.
         22    1    3    3    0    0  0.58783918682E+02 -0.93995266844E+02  0.24602689258E+03  0.26985160951E+03  0.00000000000E+00 0.  1.
         22    1    3    3    0    0 -0.21284288263E+02 -0.12890012610E+02 -0.39524719602E+01  0.25195146091E+02  0.00000000000E+00 0.  1.
</event>
<event>
 7    1  0.5970484E-006  0.3708151E+02  0.7818608E-02  0.1628978E+00
          2   -1    0    0  502    0  0.00000000000E+00  0.00000000000E+00  0.92043817372E+03  0.92043817372E+03  0.00000000000E+00 0. -1.
          1   -1    0    0  501    0 -0.00000000000E+00 -0.00000000000E+00 -0.49015078997E+03  0.49015078997E+03  0.00000000000E+00 0. -1.
         25    2    1    2    0    0  0.69757996838E+01  0.16037207315E+02 -0.40782274819E+02  0.13264732033E+03  0.12500505531E+03 0.  0.
          2    1    1    2  501    0  0.13761657096E+02  0.14812793388E+02 -0.40278729118E+03  0.40329443833E+03  0.00000000000E+00 0. -1.
          1    1    1    2  502    0 -0.20737456780E+02 -0.30850000703E+02  0.87385694974E+03  0.87464720503E+03  0.00000000000E+00 0. -1.
         22    1    3    3    0    0  0.16753600195E+01 -0.39249017066E+02 -0.61828759827E+02  0.73253584988E+02  0.00000000000E+00 0. -1.
         22    1    3    3    0    0  0.53004396643E+01  0.55286224381E+02  0.21046485008E+02  0.59393735344E+02  0.00000000000E+00 0. -1.
</event>
<event>
 7    1  0.5970484E-006  0.1236376E+03  0.7818608E-02  0.1274509E+00
          2   -1    0    0  502    0  0.00000000000E+00  0.00000000000E+00  0.93458729829E+03  0.93458729829E+03  0.00000000000E+00 0. -1.
          1   -1    0    0  501    0 -0.00000000000E+00 -0.00000000000E+00 -0.73804290860E+02  0.73804290860E+02  0.00000000000E+00 0. -1.
         25    2    1    2    0    0 -0.20566708751E+02 -0.13846464602E+03  0.14064522710E+03  0.23452255749E+03  0.12499720940E+03 0.  0.
          2    1    1    2  501    0  0.80405785456E+02  0.29013222018E+02  0.66137619633E+02  0.10807886989E+03  0.00000000000E+00 0. -1.
          1    1    1    2  502    0 -0.59839076705E+02  0.10945142401E+03  0.65400016070E+03  0.66579016177E+03  0.00000000000E+00 0. -1.
         22    1    3    3    0    0  0.11085930904E+02 -0.13698190293E+03  0.64031668802E+02  0.15161462397E+03  0.00000000000E+00 0.  1.
         22    1    3    3    0    0 -0.31652639656E+02 -0.14827430972E+01  0.76613558300E+02  0.82907933515E+02  0.00000000000E+00 0.  1.
</event>
<event>
 7    1  0.5970484E-006  0.1373231E+03  0.7818608E-02  0.1375750E+00
          2   -1    0    0  502    0  0.00000000000E+00  0.00000000000E+00  0.27318693435E+03  0.27318693435E+03  0.00000000000E+00 0. -1.
          1   -1    0    0  501    0 -0.00000000000E+00 -0.00000000000E+00 -0.65963287708E+03  0.65963287708E+03  0.00000000000E+00 0. -1.
         25    2    1    2    0    0  0.10207938288E+03  0.90194368729E+02 -0.22880022196E+03  0.29415898777E+03  0.12499897581E+03 0.  0.
          2    1    1    2  501    0 -0.80516196088E+02 -0.11292603095E+03 -0.38496830781E+03  0.40918913025E+03  0.00000000000E+00 0. -1.
          1    1    1    2  502    0 -0.21563186791E+02  0.22731662216E+02  0.22732258706E+03  0.22947169341E+03  0.00000000000E+00 0. -1.
         22    1    3    3    0    0  0.55259438728E+02 -0.16591583953E+02 -0.33546848304E+02  0.66740372023E+02  0.00000000000E+00 0.  1.
         22    1    3    3    0    0  0.46819944152E+02  0.10678595268E+03 -0.19525337366E+03  0.22741861574E+03  0.00000000000E+00 0.  1.
</event>
<event>
 7    1  0.5970484E-006  0.1348898E+03  0.7818608E-02  0.1348739E+00
          2   -1    0    0  502    0  0.00000000000E+00  0.00000000000E+00  0.79552167906E+03  0.79552167906E+03  0.00000000000E+00 0. -1.
          1   -1    0    0  501    0 -0.00000000000E+00 -0.00000000000E+00 -0.21816980448E+03  0.21816980448E+03  0.00000000000E+00 0. -1.
         25    2    1    2    0    0  0.57654026046E+02 -0.90023294853E+02  0.50184195623E+02  0.17196385362E+03  0.12499973250E+03 0.  0.
          2    1    1    2  501    0 -0.60696600062E+02  0.12990237302E+03 -0.12385977481E+03  0.18947281491E+03  0.00000000000E+00 0. -1.
          1    1    1    2  502    0  0.30425740162E+01 -0.39879078163E+02  0.65102745377E+03  0.65225481500E+03  0.00000000000E+00 0. -1.
         22    1    3    3    0    0 -0.35464799748E+02 -0.53011197467E+02  0.26039456639E+02  0.68891163295E+02  0.00000000000E+00 0.  1.
         22    1    3    3    0    0  0.93118825794E+02 -0.37012097386E+02  0.24144738984E+02  0.10307269032E+03  0.00000000000E+00 0.  1.
</event>
<event>
 7    1  0.5970484E-006  0.3378002E+02  0.7818608E-02  0.1585744E+00
          2   -1    0    0  502    0  0.00000000000E+00  0.00000000000E+00  0.19725380952E+02  0.19725380952E+02  0.00000000000E+00 0. -1.
          1   -1    0    0  501    0 -0.00000000000E+00 -0.00000000000E+00 -0.70471888923E+03  0.70471888923E+03  0.00000000000E+00 0. -1.
         25    2    1    2    0    0  0.29441172931E+02  0.59267537711E+01 -0.48744794018E+03  0.50411539029E+03  0.12499969304E+03 0.  0.
          2    1    1    2  501    0 -0.31774992257E+01 -0.28543223777E+02 -0.17847143918E+03  0.18076743824E+03  0.00000000000E+00 0. -1.
          1    1    1    2  502    0 -0.26263673705E+02  0.22616470006E+02 -0.19074128914E+02  0.39561441655E+02  0.00000000000E+00 0. -1.
         22    1    3    3    0    0 -0.41608930323E+02 -0.17303712849E+02 -0.28015818766E+03  0.28375928474E+03  0.00000000000E+00 0. -1.
         22    1    3    3    0    0  0.71050103255E+02  0.23230466620E+02 -0.20728975252E+03  0.22035610555E+03  0.00000000000E+00 0. -1.
</event>
<event>
 7    1  0.5970484E-006  0.9716093E+02  0.7818608E-02  0.1385353E+00
          2   -1    0    0  502    0  0.00000000000E+00  0.00000000000E+00  0.31844807141E+03  0.31844807141E+03  0.00000000000E+00 0. -1.
          1   -1    0    0  501    0 -0.00000000000E+00 -0.00000000000E+00 -0.86469748829E+02  0.86469748829E+02  0.00000000000E+00 0. -1.
         25    2    1    2    0    0  0.28950726760E+02 -0.12478723403E+03  0.82600438777E+02  0.19712426284E+03  0.12500057662E+03 0.  0.
          2    1    1    2  501    0 -0.21366492535E+02  0.34934079871E+02  0.10611525066E+02  0.42302735182E+02  0.00000000000E+00 0. -1.
          1    1    1    2  502    0 -0.75842342248E+01  0.89853154161E+02  0.13876635874E+03  0.16549082222E+03  0.00000000000E+00 0. -1.
         22    1    3    3    0    0 -0.46856353231E+02 -0.27382279479E+02  0.36330963374E+02  0.65308850605E+02  0.00000000000E+00 0. -1.
         22    1    3    3    0    0  0.75807079991E+02 -0.97404954553E+02  0.46269475403E+02  0.13181541223E+03  0.00000000000E+00 0. -1.
</event>
<event>
 7    1  0.5970484E-006  0.1202667E+03  0.7818608E-02  0.1406029E+00
          2   -1    0    0  502    0  0.00000000000E+00  0.00000000000E+00  0.58950368395E+03  0.58950368395E+03  0.00000000000E+00 0. -1.
          1   -1    0    0  501    0 -0.00000000000E+00 -0.00000000000E+00 -0.13866879349E+04  0.13866879349E+04  0.00000000000E+00 0. -1.
         25    2    1    2    0    0  0.10259747671E+03 -0.94355700606E+02 -0.73124700059E+03  0.75483555598E+03  0.12500120094E+03 0.  0.
          2    1    1    2  501    0 -0.25045641229E+01  0.27945521418E+02 -0.63709053894E+03  0.63770806786E+03  0.00000000000E+00 0. -1.
          1    1    1    2  502    0 -0.10009291259E+03  0.66410179188E+02  0.57115328857E+03  0.58364799502E+03  0.00000000000E+00 0. -1.
         22    1    3    3    0    0  0.24092162877E+02 -0.84469371742E+02 -0.21019770029E+03  0.22781259904E+03  0.00000000000E+00 0. -1.
         22    1    3    3    0    0  0.78505313838E+02 -0.98863288641E+01 -0.52104930031E+03  0.52702295695E+03  0.00000000000E+00 0. -1.
</event>
<event>
 7    1  0.1181160E-005  0.4661313E+02  0.7818608E-02  0.1547084E+00
          2   -1    0    0  502    0  0.00000000000E+00  0.00000000000E+00  0.16648145946E+04  0.16648145946E+04  0.00000000000E+00 0. -1.
          1   -1    0    0  501    0 -0.00000000000E+00 -0.00000000000E+00 -0.14021889816E+04  0.14021889816E+04  0.00000000000E+00 0. -1.
         25    2    1    2    0    0 -0.30800821304E+02  0.36466095944E+02 -0.64136060220E+03  0.65516782089E+03  0.12499193866E+03 0.  0.
          2    1    1    2  501    0 -0.13738219561E+02 -0.22705287573E+02 -0.75336340381E+03  0.75383067526E+03  0.00000000000E+00 0. -1.
          1    1    1    2  502    0  0.44539040864E+02 -0.13760808371E+02  0.16573496190E+04  0.16580050801E+04  0.00000000000E+00 0. -1.
         22    1    3    3    0    0  0.12405981685E+02  0.68441063955E+02 -0.22933998263E+03  0.23965582666E+03  0.00000000000E+00 0. -1.
         22    1    3    3    0    0 -0.43206802989E+02 -0.31974968012E+02 -0.41202061957E+03  0.41551199423E+03  0.00000000000E+00 0. -1.
</event>
<event>
 7    1  0.1611877E-005  0.1057386E+03  0.7818608E-02  0.1338754E+00
          2   -1    0    0  502    0  0.00000000000E+00  0.00000000000E+00  0.17071445119E+04  0.17071445119E+04  0.00000000000E+00 0. -1.
          1   -1    0    0  501    0 -0.00000000000E+00 -0.00000000000E+00 -0.82615437135E+03  0.82615437135E+03  0.00000000000E+00 0. -1.
         25    2    1    2    0    0  0.51078445985E+02  0.17567519310E+00 -0.26698010517E+03  0.29918449282E+03  0.12499578264E+03 0.  0.
          2    1    1    2  501    0  0.54352442112E+02 -0.11727532306E+02 -0.53997999041E+03  0.54283525403E+03  0.00000000000E+00 0. -1.
          1    1    1    2  502    0 -0.10543088810E+03  0.11551857112E+02  0.16879502361E+04  0.16912791364E+04  0.00000000000E+00 0. -1.
         22    1    3    3    0    0  0.57423323943E+02  0.32355621786E+02 -0.58463380554E+02  0.88103866316E+02  0.00000000000E+00 0.  1.
         22    1    3    3    0    0 -0.63448779584E+01 -0.32179946593E+02 -0.20851672462E+03  0.21108062650E+03  0.00000000000E+00 0.  1.
</event>
<event>
 7    1  0.5970484E-006  0.7096053E+02  0.7818608E-02  0.1383564E+00
          2   -1    0    0  502    0  0.00000000000E+00  0.00000000000E+00  0.43825404132E+03  0.43825404132E+03  0.00000000000E+00 0. -1.
          1   -1    0    0  501    0 -0.00000000000E+00 -0.00000000000E+00 -0.62799164869E+03  0.62799164869E+03  0.00000000000E+00 0. -1.
         25    2    1    2    0    0 -0.54727782523E+01 -0.11650002925E+03  0.26572063031E+03  0.31596984577E+03  0.12500912746E+03 0.  0.
          2    1    1    2  501    0  0.30247787232E+00  0.56887756597E+02 -0.59538268770E+03  0.59809435138E+03  0.00000000000E+00 0. -1.
          1    1    1    2  502    0  0.51703003800E+01  0.59612272649E+02  0.13992445002E+03  0.15218149286E+03  0.00000000000E+00 0. -1.
         22    1    3    3    0    0  0.54830769442E+02 -0.25152909795E+02  0.77161013490E+02  0.97943372168E+02  0.00000000000E+00 0. -1.
         22    1    3    3    0    0 -0.60303547695E+02 -0.91347119451E+02  0.18855961682E+03  0.21802647360E+03  0.00000000000E+00 0. -1.
</event>
<event>
 7    1  0.5970484E-006  0.8242323E+02  0.7818608E-02  0.1328338E+00
          2   -1    0    0  502    0  0.00000000000E+00  0.00000000000E+00  0.15164225791E+04  0.15164225791E+04  0.00000000000E+00 0. -1.
          1   -1    0    0  501    0 -0.00000000000E+00 -0.00000000000E+00 -0.19940935583E+03  0.19940935583E+03  0.00000000000E+00 0. -1.
         25    2    1    2    0    0  0.38583756233E+02  0.93169128526E+01  0.69884320360E+02  0.14861407291E+03  0.12500725309E+03 0.  0.
          2    1    1    2  501    0 -0.43511748712E+02  0.72958869321E+02 -0.14746905763E+03  0.17018634448E+03  0.00000000000E+00 0. -1.
          1    1    1    2  502    0  0.49279924788E+01 -0.82275782174E+02  0.13945979606E+04  0.13970315176E+04  0.00000000000E+00 0. -1.
         22    1    3    3    0    0  0.84135516690E+02  0.10146600400E+02  0.37238617854E+02  0.92565940432E+02  0.00000000000E+00 0.  1.
         22    1    3    3    0    0 -0.45551760457E+02 -0.82968754768E+00  0.32645702506E+02  0.56048132478E+02  0.00000000000E+00 0.  1.
</event>
<event>
 7    1  0.5970484E-006  0.2669028E+03  0.7818608E-02  0.1177857E+00
          2   -1    0    0  502    0  0.00000000000E+00  0.00000000000E+00  0.77295835584E+03  0.77295835584E+03  0.00000000000E+00 0. -1.
          1   -1    0    0  501    0 -0.00000000000E+00 -0.00000000000E+00 -0.10445078852E+04  0.10445078852E+04  0.00000000000E+00 0. -1.
         25    2    1    2    0    0 -0.81451218387E+02 -0.19914001714E+03 -0.25215732529E+03  0.35426009042E+03  0.12500339019E+03 0.  0.
          2    1    1    2  501    0 -0.10821410907E+03  0.33993529741E+01 -0.71133018869E+03  0.71952240156E+03  0.00000000000E+00 0. -1.
          1    1    1    2  502    0  0.18966532746E+03  0.19574066417E+03  0.69193798463E+03  0.74368374906E+03  0.00000000000E+00 0. -1.
         22    1    3    3    0    0 -0.33343359411E+02  0.38107719285E+01 -0.10774748103E+02  0.35247649513E+02  0.00000000000E+00 0. -1.
         22    1    3    3    0    0 -0.48107858976E+02 -0.20295078907E+03 -0.24138257719E+03  0.31901244090E+03  0.00000000000E+00 0. -1.
</event>
<event>
 7    1  0.5970484E-006  0.1254894E+03  0.7818608E-02  0.1287387E+00
          2   -1    0    0  502    0  0.00000000000E+00  0.00000000000E+00  0.45010271301E+04  0.45010271301E+04  0.00000000000E+00 0. -1.
          1   -1    0    0  501    0 -0.00000000000E+00 -0.00000000000E+00 -0.36082369629E+03  0.36082369629E+03  0.00000000000E+00 0. -1.
         25    2    1    2    0    0 -0.45207827904E+02 -0.32768129679E+02  0.23664390014E+03  0.27339155153E+03  0.12500042779E+03 0.  0.
          2    1    1    2  501    0  0.89449088794E+02  0.92732906862E+02 -0.32999141099E+03  0.35425254104E+03  0.00000000000E+00 0. -1.
          1    1    1    2  502    0 -0.44241260890E+02 -0.59964777183E+02  0.42335509447E+04  0.42342067338E+04  0.00000000000E+00 0. -1.
         22    1    3    3    0    0 -0.75995482302E+02 -0.38955449120E+02  0.22366197970E+03  0.23941077986E+03  0.00000000000E+00 0. -1.
         22    1    3    3    0    0  0.30787654398E+02  0.61873194407E+01  0.12981920436E+02  0.33980771671E+02  0.00000000000E+00 0. -1.
</event>
<event>
 7    1  0.5970484E-006  0.6920179E+02  0.7818608E-02  0.1453852E+00
          2   -1    0    0  502    0  0.00000000000E+00  0.00000000000E+00  0.25525707416E+04  0.25525707416E+04  0.00000000000E+00 0. -1.
          1   -1    0    0  501    0 -0.00000000000E+00 -0.00000000000E+00 -0.22260972625E+03  0.22260972625E+03  0.00000000000E+00 0. -1.
         25    2    1    2    0    0 -0.27251971207E+01  0.37815619573E+02  0.17961583827E+03  0.22209067778E+03  0.12499988806E+03 0.  0.
          2    1    1    2  501    0  0.12709794961E+02  0.31459155481E+02 -0.19941830978E+03  0.20228415565E+03  0.00000000000E+00 0. -1.
          1    1    1    2  502    0 -0.99845978402E+01 -0.69274775053E+02  0.23497634869E+04  0.23508056345E+04  0.00000000000E+00 0. -1.
         22    1    3    3    0    0 -0.16449591942E+00 -0.14564293188E+01 -0.19281500118E+02  0.19337127296E+02  0.00000000000E+00 0.  1.
         22    1    3    3    0    0 -0.25607012013E+01  0.39272048892E+02  0.19889733839E+03  0.20275355048E+03  0.00000000000E+00 0.  1.
</event>
<event>
 7    1  0.5970484E-006  0.1398915E+03  0.7818608E-02  0.1299443E+00
          2   -1    0    0  502    0  0.00000000000E+00  0.00000000000E+00  0.97041542020E+03  0.97041542020E+03  0.00000000000E+00 0. -1.
          1   -1    0    0  501    0 -0.00000000000E+00 -0.00000000000E+00 -0.89462079944E+03  0.89462079944E+03  0.00000000000E+00 0. -1.
         25    2    1    2    0    0 -0.11129416227E+03 -0.13776895781E+03 -0.20422164276E+03  0.29782284101E+03  0.12500115585E+03 0.  0.
          2    1    1    2  501    0  0.53104103055E+02  0.12421809651E+03 -0.63552498113E+03  0.64972469778E+03  0.00000000000E+00 0. -1.
          1    1    1    2  502    0  0.58190059216E+02  0.13550861303E+02  0.91554124465E+03  0.91748868085E+03  0.00000000000E+00 0. -1.
         22    1    3    3    0    0 -0.32732919704E+02  0.14729755595E+02 -0.72440054768E+01  0.36618101365E+02  0.00000000000E+00 0.  1.
         22    1    3    3    0    0 -0.78561242567E+02 -0.15249871341E+03 -0.19697763728E+03  0.26120473965E+03  0.00000000000E+00 0.  1.
</event>
<event>
 7    1  0.5970484E-006  0.4079506E+02  0.7818608E-02  0.1546309E+00
          2   -1    0    0  502    0  0.00000000000E+00  0.00000000000E+00  0.48967879195E+03  0.48967879195E+03  0.00000000000E+00 0. -1.
          1   -1    0    0  501    0 -0.00000000000E+00 -0.00000000000E+00 -0.14312606427E+04  0.14312606427E+04  0.00000000000E+00 0. -1.
         25    2    1    2    0    0  0.58540095831E+02  0.30514944847E+02 -0.22393053244E+03  0.26481828092E+03  0.12500293545E+03 0.  0.
          2    1    1    2  501    0 -0.18288769010E+02 -0.24377120975E+02 -0.11858068311E+04  0.11861983661E+04  0.00000000000E+00 0. -1.
          1    1    1    2  502    0 -0.40251326821E+02 -0.61378238722E+01  0.46815551277E+03  0.46992278763E+03  0.00000000000E+00 0. -1.
         22    1    3    3    0    0  0.63278286505E+02  0.48468399497E+01 -0.22951344230E+03  0.23812612960E+03  0.00000000000E+00 0.  1.
         22    1    3    3    0    0 -0.47381906734E+01  0.25668104898E+02  0.55829098583E+01  0.26692151325E+02  0.00000000000E+00 0.  1.
</event>
<event>
 7    1  0.5970484E-006  0.4800990E+02  0.7818608E-02  0.1495535E+00
          2   -1    0    0  502    0  0.00000000000E+00  0.00000000000E+00  0.18240325778E+04  0.18240325778E+04  0.00000000000E+00 0. -1.
          1   -1    0    0  501    0 -0.00000000000E+00 -0.00000000000E+00 -0.24021654869E+02  0.24021654869E+02  0.00000000000E+00 0. -1.
         25    2    1    2    0    0 -0.36954451761E+02  0.53170137379E+02  0.14793201552E+04  0.14860031908E+04  0.12499866664E+03 0.  0.
          2    1    1    2  501    0  0.44530076703E+02 -0.17617001251E+02  0.95967369332E+01  0.48840391317E+02  0.00000000000E+00 0. -1.
          1    1    1    2  502    0 -0.75756249416E+01 -0.35553136128E+02  0.31109403086E+03  0.31321065055E+03  0.00000000000E+00 0. -1.
         22    1    3    3    0    0 -0.24878715512E+02 -0.31371108514E+02  0.84654193265E+03  0.84748825400E+03  0.00000000000E+00 0.  1.
         22    1    3    3    0    0 -0.12075736249E+02  0.84541245893E+02  0.63277822252E+03  0.63851493684E+03  0.00000000000E+00 0.  1.
</event>
<event>
 7    1  0.5970484E-006  0.6769521E+02  0.7818608E-02  0.1433123E+00
          2   -1    0    0  502    0  0.00000000000E+00  0.00000000000E+00  0.99315219741E+03  0.99315219741E+03  0.00000000000E+00 0. -1.
          1   -1    0    0  501    0 -0.00000000000E+00 -0.00000000000E+00 -0.15667013019E+04  0.15667013019E+04  0.00000000000E+00 0. -1.
         25    2    1    2    0    0 -0.27231698665E+02  0.56094922195E+02  0.30861918393E+03  0.33876126284E+03  0.12500074721E+03 0.  0.
          2    1    1    2  501    0 -0.33670211614E+02 -0.22443957302E+02 -0.15495574638E+04  0.15500857228E+04  0.00000000000E+00 0. -1.
          1    1    1    2  502    0  0.60901910279E+02 -0.33650964893E+02  0.66738917533E+03  0.67100651373E+03  0.00000000000E+00 0. -1.
         22    1    3    3    0    0 -0.43897491562E+02 -0.23252519877E+02  0.63756511041E+02  0.80824267062E+02  0.00000000000E+00 0.  1.
         22    1    3    3    0    0  0.16665792897E+02  0.79347442072E+02  0.24486267289E+03  0.25793699578E+03  0.00000000000E+00 0.  1.
</event>
<event>
 7    1  0.5970484E-006  0.1070561E+03  0.7818608E-02  0.1319927E+00
          2   -1    0    0  502    0  0.00000000000E+00  0.00000000000E+00  0.20538850320E+04  0.20538850320E+04  0.00000000000E+00 0. -1.
          1   -1    0    0  501    0 -0.00000000000E+00 -0.00000000000E+00 -0.29449413657E+03  0.29449413657E+03  0.00000000000E+00 0. -1.
         25    2    1    2    0    0 -0.51768618322E+02 -0.12600097650E+03 -0.28597689854E+02  0.18708082352E+03  0.12500068297E+03 0.  0.
          2    1    1    2  501    0  0.61788030628E+02  0.19600920929E+02 -0.17953266785E+03  0.19087675515E+03  0.00000000000E+00 0. -1.
          1    1    1    2  502    0 -0.10019412306E+02  0.10640005557E+03  0.19675212531E+04  0.19704215899E+04  0.00000000000E+00 0. -1.
         22    1    3    3    0    0  0.65512712619E+01  0.22788011094E+02 -0.11517325715E+02  0.26360223754E+02  0.00000000000E+00 0.  1.
         22    1    3    3    0    0 -0.58319889584E+02 -0.14878898759E+03 -0.17080364139E+02  0.16072059976E+03  0.00000000000E+00 0.  1.
</event>
<event>
 7    1  0.7749516E-006  0.8231955E+02  0.7818608E-02  0.1362457E+00
          2   -1    0    0  502    0  0.00000000000E+00  0.00000000000E+00  0.12359044270E+04  0.12359044270E+04  0.00000000000E+00 0. -1.
          1   -1    0    0  501    0 -0.00000000000E+00 -0.00000000000E+00 -0.26653842920E+04  0.26653842920E+04  0.00000000000E+00 0. -1.
         25    2    1    2    0    0  0.40958786955E+02 -0.37947015445E+02 -0.66649455416E+03  0.68041044167E+03  0.12500312075E+03 0.  0.
          2    1    1    2  501    0 -0.87699921041E+02  0.30096384166E+01 -0.19902717333E+04  0.19922052872E+04  0.00000000000E+00 0. -1.
          1    1    1    2  502    0  0.46741134086E+02  0.34937377029E+02  0.12272864224E+04  0.12286729901E+04  0.00000000000E+00 0. -1.
         22    1    3    3    0    0 -0.43037327156E+02 -0.28770104408E+02 -0.22199157107E+03  0.22794777486E+03  0.00000000000E+00 0.  1.
         22    1    3    3    0    0  0.83996114112E+02 -0.91769110371E+01 -0.44450298309E+03  0.45246266681E+03  0.00000000000E+00 0.  1.
</event>
<event>
 7    1  0.5970484E-006  0.4544846E+02  0.7818608E-02  0.1499979E+00
          2   -1    0    0  502    0  0.00000000000E+00  0.00000000000E+00  0.12610536385E+04  0.12610536385E+04  0.00000000000E+00 0. -1.
          1   -1    0    0  501    0 -0.00000000000E+00 -0.00000000000E+00 -0.19236705553E+02  0.19236705553E+02  0.00000000000E+00 0. -1.
         25    2    1    2    0    0 -0.31836425102E+02  0.56199300744E+01  0.29127035650E+03  0.31860553397E+03  0.12500369645E+03 0.  0.
          2    1    1    2  501    0  0.46827908485E+02  0.28471127704E+02  0.14091079160E+03  0.15119295392E+03  0.00000000000E+00 0. -1.
          1    1    1    2  502    0 -0.14991483383E+02 -0.34091057779E+02  0.80963578488E+03  0.81049185619E+03  0.00000000000E+00 0. -1.
         22    1    3    3    0    0 -0.17156280173E+02 -0.22727842421E+02  0.28456409491E+03  0.28598534382E+03  0.00000000000E+00 0. -1.
         22    1    3    3    0    0 -0.14680144929E+02  0.28347772496E+02  0.67062615851E+01  0.32620190144E+02  0.00000000000E+00 0. -1.
</event>
<event>
 7    1  0.5970484E-006  0.1082299E+03  0.7818608E-02  0.1323330E+00
          2   -1    0    0  502    0  0.00000000000E+00  0.00000000000E+00  0.22570611844E+04  0.22570611844E+04  0.00000000000E+00 0. -1.
          1   -1    0    0  501    0 -0.00000000000E+00 -0.00000000000E+00 -0.27627686053E+04  0.27627686053E+04  0.00000000000E+00 0. -1.
         25    2    1    2    0    0  0.23817065697E+02 -0.78437388218E+02  0.95787616364E+03  0.96946906611E+03  0.12499539511E+03 0.  0.
          2    1    1    2  501    0  0.33324006941E+02  0.10301940243E+03 -0.27551602589E+04  0.27572869889E+04  0.00000000000E+00 0. -1.
          1    1    1    2  502    0 -0.57141072638E+02 -0.24582014213E+02  0.12915766744E+04  0.12930737348E+04  0.00000000000E+00 0. -1.
         22    1    3    3    0    0 -0.31224446631E+01 -0.74493651318E+02  0.24548635668E+03  0.25655916484E+03  0.00000000000E+00 0.  1.
         22    1    3    3    0    0  0.26939510360E+02 -0.39437369007E+01  0.71238980695E+03  0.71290990127E+03  0.00000000000E+00 0.  1.
</event>
<event>
 7    1  0.5970484E-006  0.5956476E+02  0.7818608E-02  0.1437803E+00
          2   -1    0    0  502    0  0.00000000000E+00  0.00000000000E+00  0.20833233520E+03  0.20833233520E+03  0.00000000000E+00 0. -1.
          1   -1    0    0  501    0 -0.00000000000E+00 -0.00000000000E+00 -0.19726078920E+03  0.19726078920E+03  0.00000000000E+00 0. -1.
         25    2    1    2    0    0  0.37966785089E+02  0.90585976809E+02  0.50744665885E+02  0.16687548717E+03  0.12500044455E+03 0.  0.
          2    1    1    2  501    0 -0.11861744907E+02 -0.42784010011E+02 -0.12770298865E+03  0.13520068718E+03  0.00000000000E+00 0. -1.
          1    1    1    2  502    0 -0.26105040182E+02 -0.47801966798E+02  0.88029868768E+02  0.10351695005E+03  0.00000000000E+00 0. -1.
         22    1    3    3    0    0  0.55953273230E+02 -0.59992083278E+01 -0.53749358784E-01  0.56273991992E+02  0.00000000000E+00 0.  1.
         22    1    3    3    0    0 -0.17986488142E+02  0.96585185137E+02  0.50798415244E+02  0.11060149517E+03  0.00000000000E+00 0.  1.
</event>
<event>
 7    1  0.5970484E-006  0.3560011E+02  0.7818608E-02  0.1605081E+00
          2   -1    0    0  502    0  0.00000000000E+00  0.00000000000E+00  0.53052715448E+02  0.53052715448E+02  0.00000000000E+00 0. -1.
          1   -1    0    0  501    0 -0.00000000000E+00 -0.00000000000E+00 -0.65682781846E+03  0.65682781846E+03  0.00000000000E+00 0. -1.
         25    2    1    2    0    0 -0.11187438515E+02 -0.19695419922E+02 -0.15374857601E+03  0.19944015893E+03  0.12499873609E+03 0.  0.
          2    1    1    2  501    0  0.34141334592E+02  0.11900113465E+02 -0.47456898202E+03  0.47594428468E+03  0.00000000000E+00 0. -1.
          1    1    1    2  502    0 -0.22953896077E+02  0.77953064566E+01  0.24542455008E+02  0.34496090296E+02  0.00000000000E+00 0. -1.
         22    1    3    3    0    0 -0.66945891145E+02 -0.18954150279E+02 -0.10125543833E+03  0.12285632236E+03  0.00000000000E+00 0. -1.
         22    1    3    3    0    0  0.55758452630E+02 -0.74126964319E+00 -0.52493137679E+02  0.76583836570E+02  0.00000000000E+00 0. -1.
</event>
<event>
 7    1  0.5970484E-006  0.7011199E+02  0.7818608E-02  0.1393933E+00
          2   -1    0    0  502    0  0.00000000000E+00  0.00000000000E+00  0.23904233452E+03  0.23904233452E+03  0.00000000000E+00 0. -1.
          1   -1    0    0  501    0 -0.00000000000E+00 -0.00000000000E+00 -0.12235430198E+04  0.12235430198E+04  0.00000000000E+00 0. -1.
         25    2    1    2    0    0  0.88397777812E+02 -0.82244701154E+02 -0.54372904448E+03  0.57082814700E+03  0.12500056644E+03 0.  0.
          2    1    1    2  501    0 -0.45179128800E+02  0.27645117630E+02 -0.65980177066E+03  0.66192430291E+03  0.00000000000E+00 0. -1.
          1    1    1    2  502    0 -0.43218649012E+02  0.54599583524E+02  0.21903012988E+03  0.22983290439E+03  0.00000000000E+00 0. -1.
         22    1    3    3    0    0  0.45004474009E+02 -0.94519635326E+02 -0.48817981947E+03  0.49927837955E+03  0.00000000000E+00 0. -1.
         22    1    3    3    0    0  0.43393303804E+02  0.12274934172E+02 -0.55549225002E+02  0.71549767451E+02  0.00000000000E+00 0. -1.
</event>
<event>
 7    1  0.5970484E-006  0.8221964E+02  0.7818608E-02  0.1413424E+00
          2   -1    0    0  502    0  0.00000000000E+00  0.00000000000E+00  0.45340107235E+03  0.45340107235E+03  0.00000000000E+00 0. -1.
          1   -1    0    0  501    0 -0.00000000000E+00 -0.00000000000E+00 -0.80110869054E+03  0.80110869054E+03  0.00000000000E+00 0. -1.
         25    2    1    2    0    0 -0.52860469257E+02  0.10008340361E+03 -0.29734223660E+01  0.16866271302E+03  0.12500941018E+03 0.  0.
          2    1    1    2  501    0  0.20481433258E+02 -0.78815944893E+02 -0.71195072253E+03  0.71659282273E+03  0.00000000000E+00 0. -1.
          1    1    1    2  502    0  0.32379035999E+02 -0.21267458720E+02  0.36721652670E+03  0.36925422714E+03  0.00000000000E+00 0. -1.
         22    1    3    3    0    0  0.41007942442E+02  0.25061061052E+02  0.44734453063E+01  0.48267171424E+02  0.00000000000E+00 0. -1.
         22    1    3    3    0    0 -0.93868411699E+02  0.75022342560E+02 -0.74468676723E+01  0.12039554160E+03  0.00000000000E+00 0. -1.
</event>
<event>
 7    1  0.5970484E-006  0.1272290E+03  0.7818608E-02  0.1259453E+00
          2   -1    0    0  502    0  0.00000000000E+00  0.00000000000E+00  0.10704598635E+04  0.10704598635E+04  0.00000000000E+00 0. -1.
          1   -1    0    0  501    0 -0.00000000000E+00 -0.00000000000E+00 -0.62773723980E+03  0.62773723980E+03  0.00000000000E+00 0. -1.
         25    2    1    2    0    0 -0.96783679870E+02  0.54994937425E+02  0.62714091865E+00  0.16737965328E+03  0.12499612472E+03 0.  0.
          2    1    1    2  501    0  0.12659687329E+03  0.36420570803E+02 -0.53399440042E+03  0.55000295088E+03  0.00000000000E+00 0. -1.
          1    1    1    2  502    0 -0.29813193424E+02 -0.91415508227E+02  0.97608988319E+03  0.98081449913E+03  0.00000000000E+00 0. -1.
         22    1    3    3    0    0 -0.26805971108E+02  0.32006854593E+02  0.59776755187E+02  0.72912682632E+02  0.00000000000E+00 0.  1.
         22    1    3    3    0    0 -0.69977708762E+02  0.22988082832E+02 -0.59149614268E+02  0.94466970651E+02  0.00000000000E+00 0.  1.
</event>
<event>
 7    1  0.5970484E-006  0.8036911E+02  0.7818608E-02  0.1388693E+00
          2   -1    0    0  502    0  0.00000000000E+00  0.00000000000E+00  0.31599989521E+04  0.31599989521E+04  0.00000000000E+00 0. -1.
          1   -1    0    0  501    0 -0.00000000000E+00 -0.00000000000E+00 -0.11104736852E+04  0.11104736852E+04  0.00000000000E+00 0. -1.
         25    2    1    2    0    0 -0.40700784540E+02 -0.64571916614E+02  0.40464849146E+03  0.43033928067E+03  0.12500163429E+03 0.  0.
          2    1    1    2  501    0  0.45278952722E+02 -0.16493908857E+02 -0.10964979966E+04  0.10975564173E+04  0.00000000000E+00 0. -1.
          1    1    1    2  502    0 -0.45781681818E+01  0.81065825470E+02  0.27413747720E+04  0.27425769393E+04  0.00000000000E+00 0. -1.
         22    1    3    3    0    0 -0.37159749208E+02 -0.95653174187E+02  0.21626483276E+03  0.23937596910E+03  0.00000000000E+00 0. -1.
         22    1    3    3    0    0 -0.35410353323E+01  0.31081257573E+02  0.18838365870E+03  0.19096331158E+03  0.00000000000E+00 0. -1.
</event>
<event>
 7    1  0.5970484E-006  0.1205325E+03  0.7818608E-02  0.1335191E+00
          2   -1    0    0  502    0  0.00000000000E+00  0.00000000000E+00  0.22473697778E+04  0.22473697778E+04  0.00000000000E+00 0. -1.
          1   -1    0    0  501    0 -0.00000000000E+00 -0.00000000000E+00 -0.35753736823E+03  0.35753736823E+03  0.00000000000E+00 0. -1.
         25    2    1    2    0    0 -0.61179172227E+02  0.87032461390E+02  0.13300624549E+03  0.21126872038E+03  0.12500508158E+03 0.  0.
          2    1    1    2  501    0  0.23079972235E+02 -0.11989678927E+03 -0.30638301571E+03  0.32981582362E+03  0.00000000000E+00 0. -1.
          1    1    1    2  502    0  0.38099199992E+02  0.32864327878E+02  0.20632091798E+04  0.20638226021E+04  0.00000000000E+00 0. -1.
         22    1    3    3    0    0 -0.69927198569E+02 -0.64750277509E+01  0.57593366071E+02  0.90822546207E+02  0.00000000000E+00 0. -1.
         22    1    3    3    0    0  0.87480263419E+01  0.93507489141E+02  0.75412879420E+02  0.12044617417E+03  0.00000000000E+00 0. -1.
</event>
<event>
 7    1  0.5970484E-006  0.6859055E+02  0.7818608E-02  0.1450777E+00
          2   -1    0    0  502    0  0.00000000000E+00  0.00000000000E+00  0.44614279302E+03  0.44614279302E+03  0.00000000000E+00 0. -1.
          1   -1    0    0  501    0 -0.00000000000E+00 -0.00000000000E+00 -0.15108664855E+04  0.15108664855E+04  0.00000000000E+00 0. -1.
         25    2    1    2    0    0 -0.22472583960E+02 -0.10003573216E+03 -0.14279395830E+03  0.21570217720E+03  0.12500059994E+03 0.  0.
          2    1    1    2  501    0  0.11364994776E+02  0.66830651585E+02 -0.13300054842E+04  0.13317319877E+04  0.00000000000E+00 0. -1.
          1    1    1    2  502    0  0.11107589184E+02  0.33205080576E+02  0.40807575003E+03  0.40957511359E+03  0.00000000000E+00 0. -1.
         22    1    3    3    0    0  0.52254491279E+02 -0.41303869513E+02 -0.57258096189E+02  0.87835249614E+02  0.00000000000E+00 0. -1.
         22    1    3    3    0    0 -0.74727075239E+02 -0.58731862648E+02 -0.85535862110E+02  0.12786692759E+03  0.00000000000E+00 0. -1.
</event>
<event>
 7    1  0.5970484E-006  0.6177927E+02  0.7818608E-02  0.1422029E+00
          2   -1    0    0  502    0  0.00000000000E+00  0.00000000000E+00  0.13984736769E+04  0.13984736769E+04  0.00000000000E+00 0. -1.
          1   -1    0    0  501    0 -0.00000000000E+00 -0.00000000000E+00 -0.15251469352E+03  0.15251469352E+03  0.00000000000E+00 0. -1.
         25    2    1    2    0    0 -0.58385024125E+02 -0.21300605268E+02 -0.19905644497E+02  0.14106253900E+03  0.12505949943E+03 0.  0.
          2    1    1    2  501    0  0.59492999410E+02 -0.26930891520E+02 -0.56698193602E+02  0.86483380222E+02  0.00000000000E+00 0. -1.
          1    1    1    2  502    0 -0.11079752844E+01  0.48231496789E+02  0.13225628215E+04  0.13234424512E+04  0.00000000000E+00 0. -1.
         22    1    3    3    0    0 -0.15664272497E+02 -0.31218328429E+02  0.48522547904E+02  0.59786211770E+02  0.00000000000E+00 0. -1.
         22    1    3    3    0    0 -0.42720751629E+02  0.99177231603E+01 -0.68428192401E+02  0.81276327228E+02  0.00000000000E+00 0. -1.
</event>
<event>
 7    1  0.5970484E-006  0.8799317E+02  0.7818608E-02  0.1413791E+00
          2   -1    0    0  502    0  0.00000000000E+00  0.00000000000E+00  0.89539174968E+03  0.89539174968E+03  0.00000000000E+00 0. -1.
          1   -1    0    0  501    0 -0.00000000000E+00 -0.00000000000E+00 -0.12641230686E+03  0.12641230686E+03  0.00000000000E+00 0. -1.
         25    2    1    2    0    0 -0.62143661273E+02 -0.38809756783E+01  0.50799369779E+01  0.13973389658E+03  0.12499143764E+03 0.  0.
          2    1    1    2  501    0 -0.20240924094E+02 -0.29884635980E+02 -0.50912048926E+02  0.62408518663E+02  0.00000000000E+00 0. -1.
          1    1    1    2  502    0  0.82384585367E+02  0.33765611658E+02  0.81481155477E+03  0.81966164131E+03  0.00000000000E+00 0. -1.
         22    1    3    3    0    0  0.14175052728E+01 -0.45144149594E+02 -0.32014369770E+02  0.55361750654E+02  0.00000000000E+00 0. -1.
         22    1    3    3    0    0 -0.63561166546E+02  0.41263173916E+02  0.37094306748E+02  0.84372145922E+02  0.00000000000E+00 0. -1.
</event>
<event>
 7    1  0.5970484E-006  0.5738380E+02  0.7818608E-02  0.1448794E+00
          2   -1    0    0  502    0  0.00000000000E+00  0.00000000000E+00  0.33470690149E+03  0.33470690149E+03  0.00000000000E+00 0. -1.
          1   -1    0    0  501    0 -0.00000000000E+00 -0.00000000000E+00 -0.27371610557E+03  0.27371610557E+03  0.00000000000E+00 0. -1.
         25    2    1    2    0    0  0.48718267942E+02 -0.48233377822E+02 -0.79615547866E+02  0.16328783600E+03  0.12499741420E+03 0.  0.
          2    1    1    2  501    0  0.83581179465E+01  0.41636970782E+02 -0.14639953527E+03  0.15243463976E+03  0.00000000000E+00 0. -1.
          1    1    1    2  502    0 -0.57076385889E+02  0.65964070400E+01  0.28700587905E+03  0.29270053130E+03  0.00000000000E+00 0. -1.
         22    1    3    3    0    0 -0.14205779299E+02  0.31614203932E+02 -0.43009503894E+02  0.55236577383E+02  0.00000000000E+00 0. -1.
         22    1    3    3    0    0  0.62924047241E+02 -0.79847581755E+02 -0.36606043972E+02  0.10805125862E+03  0.00000000000E+00 0. -1.
</event>
<event>
 7    1  0.5970484E-006  0.1653609E+03  0.7818608E-02  0.1372600E+00
          2   -1    0    0  502    0  0.00000000000E+00  0.00000000000E+00  0.16577611647E+04  0.16577611647E+04  0.00000000000E+00 0. -1.
          1   -1    0    0  501    0 -0.00000000000E+00 -0.00000000000E+00 -0.46605997697E+03  0.46605997697E+03  0.00000000000E+00 0. -1.
         25    2    1    2    0    0  0.39021146476E+02  0.18029257701E+03 -0.54205539350E+02  0.22932697123E+03  0.12499822416E+03 0.  0.
          2    1    1    2  501    0  0.12324899147E+02 -0.23688063323E+02 -0.31941056781E+03  0.32052478580E+03  0.00000000000E+00 0. -1.
          1    1    1    2  502    0 -0.51346045622E+02 -0.15660451368E+03  0.15653172949E+04  0.15739693847E+04  0.00000000000E+00 0. -1.
         22    1    3    3    0    0  0.40562120370E+02  0.50479098982E+02 -0.73634583734E+02  0.98058538458E+02  0.00000000000E+00 0. -1.
         22    1    3    3    0    0 -0.15409738941E+01  0.12981347803E+03  0.19429044384E+02  0.13126843278E+03  0.00000000000E+00 0. -1.
</event>
<event>
 7    1  0.5970484E-006  0.1212273E+03  0.7818608E-02  0.1371048E+00
          2   -1    0    0  502    0  0.00000000000E+00  0.00000000000E+00  0.27245553414E+02  0.27245553414E+02  0.00000000000E+00 0. -1.
          1   -1    0    0  501    0 -0.00000000000E+00 -0.00000000000E+00 -0.15826615916E+04  0.15826615916E+04  0.00000000000E+00 0. -1.
         25    2    1    2    0    0  0.13936224532E+03  0.11489316879E+01 -0.64957317372E+03  0.67601316545E+03  0.12500134555E+03 0.  0.
          2    1    1    2  501    0 -0.11390846019E+03  0.25557587737E+02 -0.88260493928E+03  0.89029197819E+03  0.00000000000E+00 0. -1.
          1    1    1    2  502    0 -0.25453785138E+02 -0.26706519425E+02 -0.23237925229E+02  0.43602001406E+02  0.00000000000E+00 0. -1.
         22    1    3    3    0    0  0.81621377011E+02  0.24255114689E+02 -0.14918282871E+03  0.17177274567E+03  0.00000000000E+00 0. -1.
         22    1    3    3    0    0  0.57740868314E+02 -0.23106183001E+02 -0.50039034500E+03  0.50424041978E+03  0.00000000000E+00 0. -1.
</event>
<event>
 7    1  0.5970484E-006  0.1780381E+03  0.7818608E-02  0.1301712E+00
          2   -1    0    0  502    0  0.00000000000E+00  0.00000000000E+00  0.25096495339E+03  0.25096495339E+03  0.00000000000E+00 0. -1.
          1   -1    0    0  501    0 -0.00000000000E+00 -0.00000000000E+00 -0.13599476949E+04  0.13599476949E+04  0.00000000000E+00 0. -1.
         25    2    1    2    0    0  0.93198443351E+02 -0.19444402714E+03 -0.31430247692E+02  0.25121314744E+03  0.12500302173E+03 0.  0.
          2    1    1    2  501    0 -0.94381721936E+02  0.14848447146E+03 -0.12083321174E+04  0.12210741393E+04  0.00000000000E+00 0. -1.
          1    1    1    2  502    0  0.11832785845E+01  0.45959555687E+02  0.13077962362E+03  0.13862536153E+03  0.00000000000E+00 0. -1.
         22    1    3    3    0    0  0.63902867235E+02 -0.20687857983E+03 -0.34442814638E+02  0.21924559451E+03  0.00000000000E+00 0.  1.
         22    1    3    3    0    0  0.29295576116E+02  0.12434552687E+02  0.30125669454E+01  0.31967552927E+02  0.00000000000E+00 0.  1.
</event>
<event>
 7    1  0.5970484E-006  0.1118624E+03  0.7818608E-02  0.1259822E+00
          2   -1    0    0  502    0  0.00000000000E+00  0.00000000000E+00  0.32400471884E+03  0.32400471884E+03  0.00000000000E+00 0. -1.
          1   -1    0    0  501    0 -0.00000000000E+00 -0.00000000000E+00 -0.78246816158E+03  0.78246816158E+03  0.00000000000E+00 0. -1.
         25    2    1    2    0    0  0.13537071323E+02  0.12456088192E+03 -0.11889227596E+03  0.21320998657E+03  0.12499783793E+03 0.  0.
          2    1    1    2  501    0  0.85782346070E+02 -0.73093795280E+02 -0.59964947940E+03  0.61014818852E+03  0.00000000000E+00 0. -1.
          1    1    1    2  502    0 -0.99319417393E+02 -0.51467086642E+02  0.26007831262E+03  0.28311470533E+03  0.00000000000E+00 0. -1.
         22    1    3    3    0    0  0.32838759035E+02  0.96923892696E+02 -0.14001669928E+03  0.17342808639E+03  0.00000000000E+00 0. -1.
         22    1    3    3    0    0 -0.19301687712E+02  0.27636989226E+02  0.21124423320E+02  0.39781900189E+02  0.00000000000E+00 0. -1.
</event>
<event>
 7    1  0.5970484E-006  0.8889385E+02  0.7818608E-02  0.1306174E+00
          2   -1    0    0  502    0  0.00000000000E+00  0.00000000000E+00  0.23534563107E+04  0.23534563107E+04  0.00000000000E+00 0. -1.
          1   -1    0    0  501    0 -0.00000000000E+00 -0.00000000000E+00 -0.14253050154E+03  0.14253050154E+03  0.00000000000E+00 0. -1.
         25    2    1    2    0    0  0.15903895900E+01 -0.22652629374E+00  0.12031975138E+04  0.12096745205E+04  0.12500243030E+03 0.  0.
          2    1    1    2  501    0 -0.84195958750E+02  0.31678780970E+02 -0.12286052930E+03  0.15227348519E+03  0.00000000000E+00 0. -1.
          1    1    1    2  502    0  0.82605569160E+02 -0.31452254676E+02  0.11305888247E+04  0.11340388066E+04  0.00000000000E+00 0. -1.
         22    1    3    3    0    0  0.42999263465E+02 -0.65167893028E+01  0.10486687796E+04  0.10495702047E+04  0.00000000000E+00 0.  1.
         22    1    3    3    0    0 -0.41408873875E+02  0.62902630090E+01  0.15452873420E+03  0.16010431580E+03  0.00000000000E+00 0.  1.
</event>
<event>
 7    1  0.5970484E-006  0.1368620E+03  0.7818608E-02  0.1276156E+00
          2   -1    0    0  502    0  0.00000000000E+00  0.00000000000E+00  0.77428891338E+03  0.77428891338E+03  0.00000000000E+00 0. -1.
          1   -1    0    0  501    0 -0.00000000000E+00 -0.00000000000E+00 -0.58016103017E+03  0.58016103017E+03  0.00000000000E+00 0. -1.
         25    2    1    2    0    0  0.18305214743E+03 -0.99602347077E+02 -0.21983857926E+02  0.24400185311E+03  0.12499959236E+03 0.  0.
          2    1    1    2  501    0 -0.70682570907E+02  0.27956292724E+02 -0.43716144699E+03  0.44372030703E+03  0.00000000000E+00 0. -1.
          1    1    1    2  502    0 -0.11236957653E+03  0.71646054353E+02  0.65327318813E+03  0.66672778341E+03  0.00000000000E+00 0. -1.
         22    1    3    3    0    0  0.15435230226E+02  0.63894409646E+01 -0.41490846510E+02  0.44727638347E+02  0.00000000000E+00 0.  1.
         22    1    3    3    0    0  0.16761691721E+03 -0.10599178804E+03  0.19506988584E+02  0.19927421476E+03  0.00000000000E+00 0.  1.
</event>
<event>
 7    1  0.5970484E-006  0.9339449E+02  0.7818608E-02  0.1334706E+00
          2   -1    0    0  502    0  0.00000000000E+00  0.00000000000E+00  0.81691608382E+03  0.81691608382E+03  0.00000000000E+00 0. -1.
          1   -1    0    0  501    0 -0.00000000000E+00 -0.00000000000E+00 -0.63861692153E+03  0.63861692153E+03  0.00000000000E+00 0. -1.
         25    2    1    2    0    0  0.23343776191E+02  0.20256193622E+02 -0.10312963522E+03  0.16497314853E+03  0.12500069124E+03 0.  0.
          2    1    1    2  501    0  0.30924035858E+02  0.57412063649E+02 -0.49958339205E+03  0.50382140354E+03  0.00000000000E+00 0. -1.
          1    1    1    2  502    0 -0.54267812050E+02 -0.77668257271E+02  0.78101218957E+03  0.78673845328E+03  0.00000000000E+00 0. -1.
         22    1    3    3    0    0 -0.18653489684E+02  0.63740000087E+01 -0.11697528047E+03  0.11862460451E+03  0.00000000000E+00 0. -1.
         22    1    3    3    0    0  0.41997265876E+02  0.13882193613E+02  0.13845645253E+02  0.46348544023E+02  0.00000000000E+00 0. -1.
</event>
<event>
 7    1  0.5970484E-006  0.1241852E+03  0.7818608E-02  0.1241293E+00
          2   -1    0    0  502    0  0.00000000000E+00  0.00000000000E+00  0.59565307890E+03  0.59565307890E+03  0.00000000000E+00 0. -1.
          1   -1    0    0  501    0 -0.00000000000E+00 -0.00000000000E+00 -0.12785069201E+04  0.12785069201E+04  0.00000000000E+00 0. -1.
         25    2    1    2    0    0 -0.65888381365E+02  0.24881303220E+02 -0.11851945433E+03  0.18610521750E+03  0.12501173095E+03 0.  0.
          2    1    1    2  501    0  0.56762644095E+02  0.10355488437E+03 -0.11156602830E+04  0.11218928108E+04  0.00000000000E+00 0. -1.
          1    1    1    2  502    0  0.91257372701E+01 -0.12843618759E+03  0.55132589612E+03  0.56616197072E+03  0.00000000000E+00 0. -1.
         22    1    3    3    0    0 -0.99601287068E+02  0.37949338905E+02 -0.79955526423E+02  0.13324209138E+03  0.00000000000E+00 0.  1.
         22    1    3    3    0    0  0.33712905703E+02 -0.13068035685E+02 -0.38563927905E+02  0.52863126119E+02  0.00000000000E+00 0.  1.
</event>
<event>
 7    1  0.5970484E-006  0.1734565E+03  0.7818608E-02  0.1280861E+00
          2   -1    0    0  502    0  0.00000000000E+00  0.00000000000E+00  0.93663556553E+03  0.93663556553E+03  0.00000000000E+00 0. -1.
          1   -1    0    0  501    0 -0.00000000000E+00 -0.00000000000E+00 -0.14541423139E+04  0.14541423139E+04  0.00000000000E+00 0. -1.
         25    2    1    2    0    0 -0.94843421699E+02 -0.15629502731E+03 -0.85935328723E+03  0.88743198717E+03  0.12499619752E+03 0.  0.
          2    1    1    2  501    0  0.55910544720E+02 -0.12733491903E+02 -0.57114866896E+03  0.57401997603E+03  0.00000000000E+00 0. -1.
          1    1    1    2  502    0  0.38932876980E+02  0.16902851921E+03  0.91299520778E+03  0.92932591627E+03  0.00000000000E+00 0. -1.
         22    1    3    3    0    0  0.25880029483E+02 -0.92084533200E+01 -0.17392050789E+03  0.17607644534E+03  0.00000000000E+00 0.  1.
         22    1    3    3    0    0 -0.12072345118E+03 -0.14708657399E+03 -0.68543277933E+03  0.71135554183E+03  0.00000000000E+00 0.  1.
</event>
<event>
 7    1  0.5970484E-006  0.1171345E+03  0.7818608E-02  0.1383471E+00
          2   -1    0    0  502    0  0.00000000000E+00  0.00000000000E+00  0.76035505534E+03  0.76035505534E+03  0.00000000000E+00 0. -1.
          1   -1    0    0  501    0 -0.00000000000E+00 -0.00000000000E+00 -0.18128424227E+03  0.18128424227E+03  0.00000000000E+00 0. -1.
         25    2    1    2    0    0  0.88983436467E+02 -0.33692158977E+02 -0.88701978001E+02  0.18037282124E+03  0.12495239172E+03 0.  0.
          2    1    1    2  501    0  0.28236222726E+02  0.19805031917E+02 -0.34712282483E+02  0.48933282316E+02  0.00000000000E+00 0. -1.
          1    1    1    2  502    0 -0.11721965919E+03  0.13887127060E+02  0.70248507355E+03  0.71233319406E+03  0.00000000000E+00 0. -1.
         22    1    3    3    0    0 -0.12290962173E+02  0.23232564177E+02  0.98077869435E+01  0.28053742604E+02  0.00000000000E+00 0.  1.
         22    1    3    3    0    0  0.10127439864E+03 -0.56924723153E+02 -0.98509764945E+02  0.15231907863E+03  0.00000000000E+00 0.  1.
</event>
<event>
 7    1  0.5970484E-006  0.3821723E+02  0.7818608E-02  0.1569494E+00
          2   -1    0    0  502    0  0.00000000000E+00  0.00000000000E+00  0.46476230088E+02  0.46476230088E+02  0.00000000000E+00 0. -1.
          1   -1    0    0  501    0 -0.00000000000E+00 -0.00000000000E+00 -0.11463783358E+04  0.11463783358E+04  0.00000000000E+00 0. -1.
         25    2    1    2    0    0 -0.29523160049E+02 -0.44615680814E+02 -0.29146136907E+03  0.32161666868E+03  0.12500150384E+03 0.  0.
          2    1    1    2  501    0  0.34008779043E+02  0.16903403312E+02 -0.83304413451E+03  0.83390937885E+03  0.00000000000E+00 0. -1.
          1    1    1    2  502    0 -0.44856189938E+01  0.27712277502E+02  0.24603397816E+02  0.37328518404E+02  0.00000000000E+00 0. -1.
         22    1    3    3    0    0 -0.42982959235E+02 -0.83981615525E+02 -0.20499332671E+03  0.22566060916E+03  0.00000000000E+00 0. -1.
         22    1    3    3    0    0  0.13459799186E+02  0.39365934710E+02 -0.86468042361E+02  0.95956059525E+02  0.00000000000E+00 0. -1.
</event>
<event>
 7    1  0.5970484E-006  0.3108702E+02  0.7818608E-02  0.1607026E+00
          2   -1    0    0  502    0  0.00000000000E+00  0.00000000000E+00  0.35200671356E+03  0.35200671356E+03  0.00000000000E+00 0. -1.
          1   -1    0    0  501    0 -0.00000000000E+00 -0.00000000000E+00 -0.37509970334E+02  0.37509970334E+02  0.00000000000E+00 0. -1.
         25    2    1    2    0    0  0.43023839294E+02 -0.95129566598E+01  0.15143949438E+03  0.20124677974E+03  0.12499919523E+03 0.  0.
          2    1    1    2  501    0 -0.15219736635E+02  0.22832532365E+02  0.58353811247E+01  0.28053815967E+02  0.00000000000E+00 0. -1.
          1    1    1    2  502    0 -0.27804102659E+02 -0.13319575706E+02  0.15722186772E+03  0.16021608818E+03  0.00000000000E+00 0. -1.
         22    1    3    3    0    0 -0.39446927700E+02 -0.14883045990E+02  0.21693856089E+02  0.47415066750E+02  0.00000000000E+00 0.  1.
         22    1    3    3    0    0  0.82470766994E+02  0.53700893303E+01  0.12974563829E+03  0.15383171299E+03  0.00000000000E+00 0.  1.
</event>
<event>
 7    1  0.5970484E-006  0.1479257E+03  0.7818608E-02  0.1297480E+00
          2   -1    0    0  502    0  0.00000000000E+00  0.00000000000E+00  0.77776369346E+03  0.77776369346E+03  0.00000000000E+00 0. -1.
          1   -1    0    0  501    0 -0.00000000000E+00 -0.00000000000E+00 -0.21563264160E+03  0.21563264160E+03  0.00000000000E+00 0. -1.
         25    2    1    2    0    0  0.11185948067E+03  0.60950329443E+01  0.14477100354E+03  0.22166040317E+03  0.12499999210E+03 0.  0.
          2    1    1    2  501    0 -0.14643334708E+03 -0.52084364017E+02 -0.14134225525E+03  0.21007888811E+03  0.00000000000E+00 0. -1.
          1    1    1    2  502    0  0.34573866406E+02  0.45989331072E+02  0.55870230357E+03  0.56165704378E+03  0.00000000000E+00 0. -1.
         22    1    3    3    0    0  0.71107423941E+01  0.48534426308E+02  0.19089777776E+02  0.52636230963E+02  0.00000000000E+00 0. -1.
         22    1    3    3    0    0  0.10474873828E+03 -0.42439393364E+02  0.12568122577E+03  0.16902417221E+03  0.00000000000E+00 0. -1.
</event>
<event>
 7    1  0.5970484E-006  0.5964478E+02  0.7818608E-02  0.1411686E+00
          2   -1    0    0  502    0  0.00000000000E+00  0.00000000000E+00  0.91557224232E+03  0.91557224232E+03  0.00000000000E+00 0. -1.
          1   -1    0    0  501    0 -0.00000000000E+00 -0.00000000000E+00 -0.19209855662E+03  0.19209855662E+03  0.00000000000E+00 0. -1.
         25    2    1    2    0    0 -0.92817750374E+02 -0.57714846315E+02  0.34784576918E+03  0.38544477230E+03  0.12499942034E+03 0.  0.
          2    1    1    2  501    0  0.42304748061E+02  0.33765493323E+02 -0.16760284085E+03  0.17612641059E+03  0.00000000000E+00 0. -1.
          1    1    1    2  502    0  0.50513002313E+02  0.23949352991E+02  0.54323075737E+03  0.54609961606E+03  0.00000000000E+00 0. -1.
         22    1    3    3    0    0 -0.81601324002E+02 -0.78348644802E+01  0.86612057920E+02  0.11925522948E+03  0.00000000000E+00 0.  1.
         22    1    3    3    0    0 -0.11216426372E+02 -0.49879981834E+02  0.26123371126E+03  0.26618954282E+03  0.00000000000E+00 0.  1.
</event>
<event>
 7    1  0.5970484E-006  0.4775268E+02  0.7818608E-02  0.1466182E+00
          2   -1    0    0  502    0  0.00000000000E+00  0.00000000000E+00  0.28049133200E+04  0.28049133200E+04  0.00000000000E+00 0. -1.
          1   -1    0    0  501    0 -0.00000000000E+00 -0.00000000000E+00 -0.47986636298E+03  0.47986636298E+03  0.00000000000E+00 0. -1.
         25    2    1    2    0    0  0.33950628312E+02 -0.12493131635E+02  0.37528193144E+02  0.13543287795E+03  0.12499990260E+03 0.  0.
          2    1    1    2  501    0 -0.28163054512E+02 -0.35042999572E+02 -0.42952985741E+03  0.43187621822E+03  0.00000000000E+00 0. -1.
          1    1    1    2  502    0 -0.57875737994E+01  0.47536131207E+02  0.27170486213E+04  0.27174705868E+04  0.00000000000E+00 0. -1.
         22    1    3    3    0    0 -0.43329324206E+02 -0.96158775226E+00 -0.93175215653E+01  0.44330251469E+02  0.00000000000E+00 0. -1.
         22    1    3    3    0    0  0.77279952518E+02 -0.11531543882E+02  0.46845714709E+02  0.91102626483E+02  0.00000000000E+00 0. -1.
</event>
<event>
 7    1  0.5970484E-006  0.1740413E+03  0.7818608E-02  0.1284709E+00
          2   -1    0    0  502    0  0.00000000000E+00  0.00000000000E+00  0.23381473090E+03  0.23381473090E+03  0.00000000000E+00 0. -1.
          1   -1    0    0  501    0 -0.00000000000E+00 -0.00000000000E+00 -0.67815950788E+03  0.67815950788E+03  0.00000000000E+00 0. -1.
         25    2    1    2    0    0  0.42455627510E+02 -0.13406298830E+03 -0.15159310255E+03  0.24162482167E+03  0.12500688208E+03 0.  0.
          2    1    1    2  501    0 -0.26071956240E+02  0.18667491497E+03 -0.45847332346E+03  0.49570662604E+03  0.00000000000E+00 0. -1.
          1    1    1    2  502    0 -0.16383671269E+02 -0.52611926672E+02  0.16572164904E+03  0.17464279107E+03  0.00000000000E+00 0. -1.
         22    1    3    3    0    0  0.13903937312E+02 -0.89299976045E+02 -0.10635504502E+02  0.90999555771E+02  0.00000000000E+00 0.  1.
         22    1    3    3    0    0  0.28551690198E+02 -0.44763012252E+02 -0.14095759805E+03  0.15062526590E+03  0.00000000000E+00 0.  1.
</event>
<event>
 7    1  0.5970484E-006  0.1381256E+03  0.7818608E-02  0.1224267E+00
          2   -1    0    0  502    0  0.00000000000E+00  0.00000000000E+00  0.11136662368E+04  0.11136662368E+04  0.00000000000E+00 0. -1.
          1   -1    0    0  501    0 -0.00000000000E+00 -0.00000000000E+00 -0.86855772554E+02  0.86855772554E+02  0.00000000000E+00 0. -1.
         25    2    1    2    0    0 -0.52599438642E+02 -0.47142491644E+02  0.50048427682E+03  0.52067119219E+03  0.12499945429E+03 0.  0.
          2    1    1    2  501    0  0.15061736402E+03 -0.32787748046E+02  0.17027121383E+02  0.15508239625E+03  0.00000000000E+00 0. -1.
          1    1    1    2  502    0 -0.98017925374E+02  0.79930239690E+02  0.50929906608E+03  0.52476842094E+03  0.00000000000E+00 0. -1.
         22    1    3    3    0    0 -0.30729187232E+01  0.99734498343E+01  0.36790361937E+03  0.36805160735E+03  0.00000000000E+00 0.  1.
         22    1    3    3    0    0 -0.49526519918E+02 -0.57115941478E+02  0.13258065745E+03  0.15261958484E+03  0.00000000000E+00 0.  1.
</event>
<event>
 7    1  0.5970484E-006  0.1414084E+03  0.7818608E-02  0.1259758E+00
          2   -1    0    0  502    0  0.00000000000E+00  0.00000000000E+00  0.52501036270E+03  0.52501036270E+03  0.00000000000E+00 0. -1.
          1   -1    0    0  501    0 -0.00000000000E+00 -0.00000000000E+00 -0.26323678692E+04  0.26323678692E+04  0.00000000000E+00 0. -1.
         25    2    1    2    0    0  0.21148346554E+03  0.10569638262E+02 -0.56047837034E+03  0.61204482629E+03  0.12500356924E+03 0.  0.
          2    1    1    2  501    0 -0.74877131467E+02 -0.42812660703E+02 -0.20353090903E+04  0.20371358820E+04  0.00000000000E+00 0. -1.
          1    1    1    2  502    0 -0.13660633407E+03  0.32243022441E+02  0.48842995408E+03  0.50819752365E+03  0.00000000000E+00 0. -1.
         22    1    3    3    0    0  0.95264833615E+02 -0.29371636086E+02 -0.38578220616E+03  0.39845450446E+03  0.00000000000E+00 0.  1.
         22    1    3    3    0    0  0.11621863193E+03  0.39941274348E+02 -0.17469616417E+03  0.21359032183E+03  0.00000000000E+00 0.  1.
</event>
<event>
 7    1  0.5970484E-006  0.2367589E+03  0.7818608E-02  0.1287148E+00
          2   -1    0    0  502    0  0.00000000000E+00  0.00000000000E+00  0.11384680703E+04  0.11384680703E+04  0.00000000000E+00 0. -1.
          1   -1    0    0  501    0 -0.00000000000E+00 -0.00000000000E+00 -0.81777524082E+02  0.81777524082E+02  0.00000000000E+00 0. -1.
         25    2    1    2    0    0  0.17665119446E+03 -0.16565932175E+03  0.50087940920E+03  0.57022285381E+03  0.12500106022E+03 0.  0.
          2    1    1    2  501    0 -0.14291737454E+03  0.18637390013E+03  0.25523424493E+03  0.34685029390E+03  0.00000000000E+00 0. -1.
          1    1    1    2  502    0 -0.33733819925E+02 -0.20714578376E+02  0.30057689210E+03  0.30317244669E+03  0.00000000000E+00 0. -1.
         22    1    3    3    0    0  0.11264477289E+03 -0.10351297329E+03  0.42961542069E+03  0.45604077690E+03  0.00000000000E+00 0.  1.
         22    1    3    3    0    0  0.64006421572E+02 -0.62146348459E+02  0.71263988510E+02  0.11418207691E+03  0.00000000000E+00 0.  1.
</event>
<event>
 7    1  0.5970484E-006  0.5157675E+02  0.7818608E-02  0.1521226E+00
          2   -1    0    0  502    0  0.00000000000E+00  0.00000000000E+00  0.21480055907E+04  0.21480055907E+04  0.00000000000E+00 0. -1.
          1   -1    0    0  501    0 -0.00000000000E+00 -0.00000000000E+00 -0.16363453159E+03  0.16363453159E+03  0.00000000000E+00 0. -1.
         25    2    1    2    0    0 -0.73217520566E+02 -0.12986044422E+02  0.31597897147E+03  0.34784648948E+03  0.12500010864E+03 0.  0.
          2    1    1    2  501    0  0.51078177245E+02 -0.48312312535E+01 -0.14313046470E+03  0.15204818615E+03  0.00000000000E+00 0. -1.
          1    1    1    2  502    0  0.22139343321E+02  0.17817275676E+02  0.18115225523E+04  0.18117454466E+04  0.00000000000E+00 0. -1.
         22    1    3    3    0    0 -0.72948330761E+02  0.24465392133E+02  0.29510377539E+03  0.30496926505E+03  0.00000000000E+00 0. -1.
         22    1    3    3    0    0 -0.26918980471E+00 -0.37451436555E+02  0.20875196080E+02  0.42877224427E+02  0.00000000000E+00 0. -1.
</event>
<event>
 7    1  0.5970484E-006  0.8938703E+02  0.7818608E-02  0.1385915E+00
          2   -1    0    0  502    0  0.00000000000E+00  0.00000000000E+00  0.35359884159E+03  0.35359884159E+03  0.00000000000E+00 0. -1.
          1   -1    0    0  501    0 -0.00000000000E+00 -0.00000000000E+00 -0.17861178760E+04  0.17861178760E+04  0.00000000000E+00 0. -1.
         25    2    1    2    0    0 -0.12823555237E+03 -0.11095025749E+02 -0.61074286055E+02  0.18953141113E+03  0.12499852359E+03 0.  0.
          2    1    1    2  501    0  0.41031465281E+02  0.16726468594E+02 -0.16539142210E+04  0.16545076628E+04  0.00000000000E+00 0. -1.
          1    1    1    2  502    0  0.87204087089E+02 -0.56314428452E+01  0.28246947266E+03  0.29567764362E+03  0.00000000000E+00 0. -1.
         22    1    3    3    0    0  0.24844531802E+01  0.24330646282E+02  0.20078996176E+02  0.31643624058E+02  0.00000000000E+00 0. -1.
         22    1    3    3    0    0 -0.13072000555E+03 -0.35425672031E+02 -0.81153282231E+02  0.15788778707E+03  0.00000000000E+00 0. -1.
</event>
<event>
 7    1  0.5970484E-006  0.1291517E+03  0.7818608E-02  0.1249362E+00
          2   -1    0    0  502    0  0.00000000000E+00  0.00000000000E+00  0.13900305175E+04  0.13900305175E+04  0.00000000000E+00 0. -1.
          1   -1    0    0  501    0 -0.00000000000E+00 -0.00000000000E+00 -0.85207970068E+03  0.85207970068E+03  0.00000000000E+00 0. -1.
         25    2    1    2    0    0 -0.21969495498E+03  0.18449382044E+02 -0.23646800511E+03  0.34661388072E+03  0.12497124438E+03 0.  0.
          2    1    1    2  501    0  0.11859287956E+03  0.87339603310E+01 -0.55214640403E+03  0.56480634259E+03  0.00000000000E+00 0. -1.
          1    1    1    2  502    0  0.10110207542E+03 -0.27183342375E+02  0.13265652260E+04  0.13306899949E+04  0.00000000000E+00 0. -1.
         22    1    3    3    0    0 -0.17040381244E+02 -0.22869490118E+02 -0.86666233042E+02  0.91238282101E+02  0.00000000000E+00 0. -1.
         22    1    3    3    0    0 -0.20265457373E+03  0.41318872162E+02 -0.14980177207E+03  0.25537559862E+03  0.00000000000E+00 0. -1.
</event>
<event>
 7    1  0.5970484E-006  0.1080316E+03  0.7818608E-02  0.1316965E+00
          2   -1    0    0  502    0  0.00000000000E+00  0.00000000000E+00  0.91949112020E+03  0.91949112020E+03  0.00000000000E+00 0. -1.
          1   -1    0    0  501    0 -0.00000000000E+00 -0.00000000000E+00 -0.24129833795E+03  0.24129833795E+03  0.00000000000E+00 0. -1.
         25    2    1    2    0    0  0.17188078598E+03  0.94906628358E+01 -0.54901776330E+02  0.21970841161E+03  0.12499801526E+03 0.  0.
          2    1    1    2  501    0 -0.65957379132E+02  0.93202904148E+00 -0.89748752653E+02  0.11138259803E+03  0.00000000000E+00 0. -1.
          1    1    1    2  502    0 -0.10592340684E+03 -0.10422691877E+02  0.82284331124E+03  0.82969844851E+03  0.00000000000E+00 0. -1.
         22    1    3    3    0    0  0.17847274880E+02  0.16818970944E+02  0.33838317217E+02  0.41790366310E+02  0.00000000000E+00 0.  1.
         22    1    3    3    0    0  0.15403351109E+03 -0.73283081085E+01 -0.88740093547E+02  0.17791804530E+03  0.00000000000E+00 0.  1.
</event>
<event>
 7    1  0.5970484E-006  0.9761799E+02  0.7818608E-02  0.1303578E+00
          2   -1    0    0  502    0  0.00000000000E+00  0.00000000000E+00  0.89781987256E+03  0.89781987256E+03  0.00000000000E+00 0. -1.
          1   -1    0    0  501    0 -0.00000000000E+00 -0.00000000000E+00 -0.25272515045E+03  0.25272515045E+03  0.00000000000E+00 0. -1.
         25    2    1    2    0    0 -0.15774296173E+02  0.17042167540E+03  0.53074815989E+02  0.21848377541E+03  0.12500339258E+03 0.  0.
          2    1    1    2  501    0 -0.16175350071E+02 -0.80822550154E+02 -0.15684209136E+03  0.17718173773E+03  0.00000000000E+00 0. -1.
          1    1    1    2  502    0  0.31949646244E+02 -0.89599125245E+02  0.74886199748E+03  0.75487950987E+03  0.00000000000E+00 0. -1.
         22    1    3    3    0    0  0.21899181425E+01  0.21618400263E+02 -0.37512873012E+02  0.43351662172E+02  0.00000000000E+00 0. -1.
         22    1    3    3    0    0 -0.17964214316E+02  0.14880327514E+03  0.90587689002E+02  0.17513211323E+03  0.00000000000E+00 0. -1.
</event>
<event>
 7    1  0.5970484E-006  0.7757553E+02  0.7818608E-02  0.1443390E+00
          2   -1    0    0  502    0  0.00000000000E+00  0.00000000000E+00  0.15128311868E+04  0.15128311868E+04  0.00000000000E+00 0. -1.
          1   -1    0    0  501    0 -0.00000000000E+00 -0.00000000000E+00 -0.81441785258E+03  0.81441785258E+03  0.00000000000E+00 0. -1.
         25    2    1    2    0    0  0.52271729305E+02  0.21263147144E+02  0.13494604246E+03  0.19240443368E+03  0.12499830645E+03 0.  0.
          2    1    1    2  501    0  0.26268134310E+02 -0.19470276485E+02 -0.78420406377E+03  0.78488541850E+03  0.00000000000E+00 0. -1.
          1    1    1    2  502    0 -0.78539863615E+02 -0.17928706587E+01  0.13476713556E+04  0.13499591872E+04  0.00000000000E+00 0. -1.
         22    1    3    3    0    0  0.67807131932E+02  0.24243541320E+02  0.15257738972E+03  0.16871697096E+03  0.00000000000E+00 0. -1.
         22    1    3    3    0    0 -0.15535402626E+02 -0.29803941761E+01 -0.17631347259E+02  0.23687462726E+02  0.00000000000E+00 0. -1.
</event>
<event>
 7    1  0.5970484E-006  0.7081508E+02  0.7818608E-02  0.1502539E+00
          2   -1    0    0  502    0  0.00000000000E+00  0.00000000000E+00  0.88436648352E+03  0.88436648352E+03  0.00000000000E+00 0. -1.
          1   -1    0    0  501    0 -0.00000000000E+00 -0.00000000000E+00 -0.30476325773E+02  0.30476325773E+02  0.00000000000E+00 0. -1.
         25    2    1    2    0    0 -0.84239151011E+02  0.17989880911E+02  0.57497134248E+03  0.59467583273E+03  0.12500972358E+03 0.  0.
          2    1    1    2  501    0  0.19030650359E+02 -0.13762236668E+02 -0.88309176096E+01  0.25090833327E+02  0.00000000000E+00 0. -1.
          1    1    1    2  502    0  0.65208500652E+02 -0.42276442425E+01  0.28774973288E+03  0.29507614324E+03  0.00000000000E+00 0. -1.
         22    1    3    3    0    0 -0.57452902345E+02  0.68728599265E+02  0.41944244801E+03  0.42890141470E+03  0.00000000000E+00 0. -1.
         22    1    3    3    0    0 -0.26786248667E+02 -0.50738718355E+02  0.15552889447E+03  0.16577441803E+03  0.00000000000E+00 0. -1.
</event>
<event>
 7    1  0.5970484E-006  0.2557774E+03  0.7818608E-02  0.1353924E+00
          2   -1    0    0  502    0  0.00000000000E+00  0.00000000000E+00  0.83683398862E+03  0.83683398862E+03  0.00000000000E+00 0. -1.
          1   -1    0    0  501    0 -0.00000000000E+00 -0.00000000000E+00 -0.40774634242E+03  0.40774634242E+03  0.00000000000E+00 0. -1.
         25    2    1    2    0    0 -0.26022402206E+03  0.13928591039E+02  0.55218330703E+03  0.62324811885E+03  0.12498506222E+03 0.  0.
          2    1    1    2  501    0  0.25540635259E+03  0.56692771576E+01 -0.32782390784E+03  0.41561166995E+03  0.00000000000E+00 0. -1.
          1    1    1    2  502    0  0.48176694693E+01 -0.19597868197E+02  0.20472824701E+03  0.20572054225E+03  0.00000000000E+00 0. -1.
         22    1    3    3    0    0 -0.22779623193E+03 -0.34039504079E+02  0.45886027552E+03  0.51342240268E+03  0.00000000000E+00 0.  1.
         22    1    3    3    0    0 -0.32427790131E+02  0.47968095119E+02  0.93323031506E+02  0.10982571617E+03  0.00000000000E+00 0.  1.
</event>
<event>
 7    1  0.5970484E-006  0.6225797E+02  0.7818608E-02  0.1431391E+00
          2   -1    0    0  502    0  0.00000000000E+00  0.00000000000E+00  0.18572055428E+04  0.18572055428E+04  0.00000000000E+00 0. -1.
          1   -1    0    0  501    0 -0.00000000000E+00 -0.00000000000E+00 -0.52958164007E+03  0.52958164007E+03  0.00000000000E+00 0. -1.
         25    2    1    2    0    0 -0.76164883791E+02 -0.73303606531E+02  0.36726988867E+02  0.16775761861E+03  0.12497695242E+03 0.  0.
          2    1    1    2  501    0  0.41583049760E+02  0.45172737475E+02 -0.46175085395E+03  0.46581496043E+03  0.00000000000E+00 0. -1.
          1    1    1    2  502    0  0.34581834031E+02  0.28130869056E+02  0.17526477678E+04  0.17532146038E+04  0.00000000000E+00 0. -1.
         22    1    3    3    0    0 -0.80803329225E+02 -0.56300075688E+02 -0.26609636762E+02  0.10201445635E+03  0.00000000000E+00 0. -1.
         22    1    3    3    0    0  0.46384454338E+01 -0.17003530843E+02  0.63336625629E+02  0.65743162255E+02  0.00000000000E+00 0. -1.
</event>
<event>
 7    1  0.5970484E-006  0.5185422E+02  0.7818608E-02  0.1492129E+00
          2   -1    0    0  502    0  0.00000000000E+00  0.00000000000E+00  0.17251651556E+02  0.17251651556E+02  0.00000000000E+00 0. -1.
          1   -1    0    0  501    0 -0.00000000000E+00 -0.00000000000E+00 -0.11775433063E+04  0.11775433063E+04  0.00000000000E+00 0. -1.
         25    2    1    2    0    0 -0.19743760907E+02  0.30044520559E+02 -0.34094976742E+03  0.36490618677E+03  0.12496916389E+03 0.  0.
          2    1    1    2  501    0 -0.55462327682E+01 -0.53452312557E+02 -0.75491117338E+03  0.75682150479E+03  0.00000000000E+00 0. -1.
          1    1    1    2  502    0  0.25289993676E+02  0.23407791998E+02 -0.64430713974E+02  0.73067266334E+02  0.00000000000E+00 0. -1.
         22    1    3    3    0    0  0.40030999568E+02  0.48353413604E+02 -0.21965304424E+03  0.22844691588E+03  0.00000000000E+00 0. -1.
         22    1    3    3    0    0 -0.59774760476E+02 -0.18308893045E+02 -0.12129672318E+03  0.13645927088E+03  0.00000000000E+00 0. -1.
</event>
<event>
 7    1  0.5970484E-006  0.4918540E+02  0.7818608E-02  0.1513565E+00
          2   -1    0    0  502    0  0.00000000000E+00  0.00000000000E+00  0.27670933024E+04  0.27670933024E+04  0.00000000000E+00 0. -1.
          1   -1    0    0  501    0 -0.00000000000E+00 -0.00000000000E+00 -0.23542531567E+02  0.23542531567E+02  0.00000000000E+00 0. -1.
         25    2    1    2    0    0 -0.34381534455E+02 -0.51444626028E+02  0.58280774413E+03  0.59926505054E+03  0.12500037890E+03 0.  0.
          2    1    1    2  501    0 -0.96370990460E+01  0.29855356792E+02  0.13291016781E+01  0.31400358572E+02  0.00000000000E+00 0. -1.
          1    1    1    2  502    0  0.44018633501E+02  0.21589269237E+02  0.21594139251E+04  0.21599704249E+04  0.00000000000E+00 0. -1.
         22    1    3    3    0    0 -0.10427828184E+02  0.12354907446E+02  0.44724334856E+03  0.44753546918E+03  0.00000000000E+00 0.  1.
         22    1    3    3    0    0 -0.23953706272E+02 -0.63799533475E+02  0.13556439556E+03  0.15172958136E+03  0.00000000000E+00 0.  1.
</event>
<event>
 7    1  0.5970484E-006  0.4759744E+02  0.7818608E-02  0.1470582E+00
          2   -1    0    0  502    0  0.00000000000E+00  0.00000000000E+00  0.16740157067E+04  0.16740157067E+04  0.00000000000E+00 0. -1.
          1   -1    0    0  501    0 -0.00000000000E+00 -0.00000000000E+00 -0.12891983272E+03  0.12891983272E+03  0.00000000000E+00 0. -1.
         25    2    1    2    0    0  0.56697101900E+02 -0.36555110417E+02  0.98034916987E+03  0.99058781113E+03  0.12501551600E+03 0.  0.
          2    1    1    2  501    0 -0.42974593128E+02 -0.79375634913E+01 -0.11912745187E+03  0.12689038717E+03  0.00000000000E+00 0. -1.
          1    1    1    2  502    0 -0.13722508772E+02  0.44492673908E+02  0.68387415599E+03  0.68545734113E+03  0.00000000000E+00 0. -1.
         22    1    3    3    0    0  0.28820525339E+02 -0.12837708770E+02  0.47515686118E+02  0.57036566119E+02  0.00000000000E+00 0.  1.
         22    1    3    3    0    0  0.27876576561E+02 -0.23717401647E+02  0.93283348375E+03  0.93355124502E+03  0.00000000000E+00 0.  1.
</event>
<event>
 7    1  0.5970484E-006  0.9540113E+02  0.7818608E-02  0.1379822E+00
          2   -1    0    0  502    0  0.00000000000E+00  0.00000000000E+00  0.21284462265E+04  0.21284462265E+04  0.00000000000E+00 0. -1.
          1   -1    0    0  501    0 -0.00000000000E+00 -0.00000000000E+00 -0.52631800869E+02  0.52631800869E+02  0.00000000000E+00 0. -1.
         25    2    1    2    0    0  0.22856922309E+02 -0.62534315725E+02  0.11983505979E+03  0.18552331781E+03  0.12500192141E+03 0.  0.
          2    1    1    2  501    0 -0.27332159827E+02 -0.33997670640E+02  0.69989260189E+01  0.44180012848E+02  0.00000000000E+00 0. -1.
          1    1    1    2  502    0  0.44752375177E+01  0.96531986366E+02  0.19489804398E+04  0.19513746967E+04  0.00000000000E+00 0. -1.
         22    1    3    3    0    0  0.60569424148E+02 -0.33347147606E+02  0.11923467847E+03  0.13783176682E+03  0.00000000000E+00 0. -1.
         22    1    3    3    0    0 -0.37712501839E+02 -0.29187168120E+02  0.60038131311E+00  0.47691550987E+02  0.00000000000E+00 0. -1.
</event>
<event>
 7    1  0.5970484E-006  0.6885762E+02  0.7818608E-02  0.1436717E+00
          2   -1    0    0  502    0  0.00000000000E+00  0.00000000000E+00  0.92998865773E+03  0.92998865773E+03  0.00000000000E+00 0. -1.
          1   -1    0    0  501    0 -0.00000000000E+00 -0.00000000000E+00 -0.34666608028E+03  0.34666608028E+03  0.00000000000E+00 0. -1.
         25    2    1    2    0    0  0.12696762288E+02 -0.87260093107E+02  0.17542304295E+03  0.23275228106E+03  0.12499939488E+03 0.  0.
          2    1    1    2  501    0 -0.37484556506E+02  0.57514180806E+02 -0.31377125806E+03  0.32119367266E+03  0.00000000000E+00 0. -1.
          1    1    1    2  502    0  0.24787794219E+02  0.29745912301E+02  0.72167079257E+03  0.72270878429E+03  0.00000000000E+00 0. -1.
         22    1    3    3    0    0  0.60566174368E+02 -0.20618397315E+02  0.43406544752E+02  0.77314344806E+02  0.00000000000E+00 0.  1.
         22    1    3    3    0    0 -0.47869412081E+02 -0.66641695791E+02  0.13201649820E+03  0.15543793626E+03  0.00000000000E+00 0.  1.
</event>
<event>
 7    1  0.5970484E-006  0.8390893E+02  0.7818608E-02  0.1376816E+00
          2   -1    0    0  502    0  0.00000000000E+00  0.00000000000E+00  0.14736564894E+04  0.14736564894E+04  0.00000000000E+00 0. -1.
          1   -1    0    0  501    0 -0.00000000000E+00 -0.00000000000E+00 -0.34104462092E+03  0.34104462092E+03  0.00000000000E+00 0. -1.
         25    2    1    2    0    0 -0.94252656167E+02  0.27722792407E+02 -0.57061089715E+02  0.16891940735E+03  0.12500272719E+03 0.  0.
          2    1    1    2  501    0  0.56450062112E+02 -0.61704477078E+02 -0.21991374745E+03  0.23527878850E+03  0.00000000000E+00 0. -1.
          1    1    1    2  502    0  0.37802594055E+02  0.33981684671E+02  0.14095867057E+04  0.14105029145E+04  0.00000000000E+00 0. -1.
         22    1    3    3    0    0 -0.32333788762E+02 -0.27207737831E+02  0.27636159130E+02  0.50492496324E+02  0.00000000000E+00 0.  1.
         22    1    3    3    0    0 -0.61918867406E+02  0.54930530238E+02 -0.84697248845E+02  0.11842691103E+03  0.00000000000E+00 0.  1.
</event>
<event>
 7    1  0.5970484E-006  0.3060647E+02  0.7818608E-02  0.1656113E+00
          2   -1    0    0  502    0  0.00000000000E+00  0.00000000000E+00  0.33985298081E+03  0.33985298081E+03  0.00000000000E+00 0. -1.
          1   -1    0    0  501    0 -0.00000000000E+00 -0.00000000000E+00 -0.34247485499E+02  0.34247485499E+02  0.00000000000E+00 0. -1.
         25    2    1    2    0    0  0.28292279737E+01 -0.23235382738E+02  0.27815720378E+03  0.30586446334E+03  0.12503500460E+03 0.  0.
          2    1    1    2  501    0  0.17898148365E+02 -0.10957424138E+02  0.16733460370E+02  0.26840595272E+02  0.00000000000E+00 0. -1.
          1    1    1    2  502    0 -0.20727376338E+02  0.34192806875E+02  0.10714831159E+02  0.41395407700E+02  0.00000000000E+00 0. -1.
         22    1    3    3    0    0  0.19839211389E+02  0.41015708956E+02  0.47486368314E+02  0.65809101691E+02  0.00000000000E+00 0. -1.
         22    1    3    3    0    0 -0.17009983416E+02 -0.64251091694E+02  0.23067083547E+03  0.24005536165E+03  0.00000000000E+00 0. -1.
</event>
<event>
 7    1  0.5970484E-006  0.4090985E+02  0.7818608E-02  0.1524614E+00
          2   -1    0    0  502    0  0.00000000000E+00  0.00000000000E+00  0.66454392267E+03  0.66454392267E+03  0.00000000000E+00 0. -1.
          1   -1    0    0  501    0 -0.00000000000E+00 -0.00000000000E+00 -0.23080474140E+03  0.23080474140E+03  0.00000000000E+00 0. -1.
         25    2    1    2    0    0  0.42884404396E+02 -0.46354818757E+02  0.70074222910E+02  0.15663885880E+03  0.12504996604E+03 0.  0.
          2    1    1    2  501    0 -0.34406339686E+02  0.65745620677E+01 -0.18512740102E+03  0.18841224930E+03  0.00000000000E+00 0. -1.
          1    1    1    2  502    0 -0.84780647107E+01  0.39780256689E+02  0.54879235938E+03  0.55029755598E+03  0.00000000000E+00 0. -1.
         22    1    3    3    0    0  0.38070417852E+02  0.22317085030E+02  0.75642124465E+02  0.87573626128E+02  0.00000000000E+00 0.  1.
         22    1    3    3    0    0  0.48139865449E+01 -0.68671903787E+02 -0.55679015548E+01  0.69065232671E+02  0.00000000000E+00 0.  1.
</event>
<event>
 7    1  0.5970484E-006  0.1456161E+03  0.7818608E-02  0.1252509E+00
          2   -1    0    0  502    0  0.00000000000E+00  0.00000000000E+00  0.29614352746E+03  0.29614352746E+03  0.00000000000E+00 0. -1.
          1   -1    0    0  501    0 -0.00000000000E+00 -0.00000000000E+00 -0.18913352448E+04  0.18913352448E+04  0.00000000000E+00 0. -1.
         25    2    1    2    0    0  0.97982474300E+02  0.68905968832E+02 -0.44759339607E+03  0.47990927189E+03  0.12499785291E+03 0.  0.
          2    1    1    2  501    0 -0.53874169001E+02  0.72076842046E+02 -0.14065609110E+04  0.14094364454E+04  0.00000000000E+00 0. -1.
          1    1    1    2  502    0 -0.44108305299E+02 -0.14098281088E+03  0.25896258976E+03  0.29813305495E+03  0.00000000000E+00 0. -1.
         22    1    3    3    0    0  0.38099456325E+02  0.77934943623E+02 -0.12798710104E+03  0.15461604717E+03  0.00000000000E+00 0.  1.
         22    1    3    3    0    0  0.59883017975E+02 -0.90289747919E+01 -0.31960629503E+03  0.32529322472E+03  0.00000000000E+00 0.  1.
</event>
<event>
 7    1  0.6788605E-006  0.1090621E+03  0.7818608E-02  0.1307612E+00
          2   -1    0    0  502    0  0.00000000000E+00  0.00000000000E+00  0.19189704782E+04  0.19189704782E+04  0.00000000000E+00 0. -1.
          1   -1    0    0  501    0 -0.00000000000E+00 -0.00000000000E+00 -0.81264973627E+03  0.81264973627E+03  0.00000000000E+00 0. -1.
         25    2    1    2    0    0  0.66316110912E+02  0.18576008699E+01 -0.77511144713E+02  0.16134848784E+03  0.12499631886E+03 0.  0.
          2    1    1    2  501    0 -0.96854998191E+02  0.62357161087E+02 -0.68775472593E+03  0.69733483296E+03  0.00000000000E+00 0. -1.
          1    1    1    2  502    0  0.30538887279E+02 -0.64214761957E+02  0.18715866125E+04  0.18729368936E+04  0.00000000000E+00 0. -1.
         22    1    3    3    0    0  0.84677880069E+02 -0.68799518782E+01 -0.39720167805E+01  0.85049715039E+02  0.00000000000E+00 0.  1.
         22    1    3    3    0    0 -0.18361769157E+02  0.87375527481E+01 -0.73539127932E+02  0.76298772806E+02  0.00000000000E+00 0.  1.
</event>
<event>
 7    1  0.5970484E-006  0.5335215E+02  0.7818608E-02  0.1445529E+00
          2   -1    0    0  502    0  0.00000000000E+00  0.00000000000E+00  0.88960963338E+03  0.88960963338E+03  0.00000000000E+00 0. -1.
          1   -1    0    0  501    0 -0.00000000000E+00 -0.00000000000E+00 -0.16102385747E+03  0.16102385747E+03  0.00000000000E+00 0. -1.
         25    2    1    2    0    0  0.51868470005E+02  0.22701206604E+02  0.37928852547E+03  0.40334860268E+03  0.12499850710E+03 0.  0.
          2    1    1    2  501    0 -0.35803319970E+02  0.30128801992E+02 -0.14374013948E+03  0.15116497653E+03  0.00000000000E+00 0. -1.
          1    1    1    2  502    0 -0.16065150035E+02 -0.52830008596E+02  0.49303738993E+03  0.49611991164E+03  0.00000000000E+00 0. -1.
         22    1    3    3    0    0 -0.22142730103E+01  0.36084364336E+02  0.31982818465E+03  0.32186495934E+03  0.00000000000E+00 0. -1.
         22    1    3    3    0    0  0.54082743015E+02 -0.13383157731E+02  0.59460340816E+02  0.81483643345E+02  0.00000000000E+00 0. -1.
</event>
<event>
 7    1  0.5970484E-006  0.8713905E+02  0.7818608E-02  0.1366280E+00
          2   -1    0    0  502    0  0.00000000000E+00  0.00000000000E+00  0.97904998421E+03  0.97904998421E+03  0.00000000000E+00 0. -1.
          1   -1    0    0  501    0 -0.00000000000E+00 -0.00000000000E+00 -0.73416976656E+03  0.73416976656E+03  0.00000000000E+00 0. -1.
         25    2    1    2    0    0  0.19344922250E+02 -0.35001329714E+02 -0.11512467555E+03  0.17457793871E+03  0.12499778665E+03 0.  0.
          2    1    1    2  501    0 -0.53383444638E+02  0.76141920946E+02 -0.58489161910E+03  0.59223778195E+03  0.00000000000E+00 0. -1.
          1    1    1    2  502    0  0.34038522388E+02 -0.41140591232E+02  0.94489651229E+03  0.94640403010E+03  0.00000000000E+00 0. -1.
         22    1    3    3    0    0  0.61154028087E+02 -0.39130654992E+02 -0.27928476226E+02  0.77788322361E+02  0.00000000000E+00 0.  1.
         22    1    3    3    0    0 -0.41809105837E+02  0.41293252782E+01 -0.87196199320E+02  0.96789616354E+02  0.00000000000E+00 0.  1.
</event>
<event>
 7    1  0.5970484E-006  0.1771527E+03  0.7818608E-02  0.1304157E+00
          2   -1    0    0  502    0  0.00000000000E+00  0.00000000000E+00  0.46551918186E+03  0.46551918186E+03  0.00000000000E+00 0. -1.
          1   -1    0    0  501    0 -0.00000000000E+00 -0.00000000000E+00 -0.76492738417E+03  0.76492738417E+03  0.00000000000E+00 0. -1.
         25    2    1    2    0    0 -0.10706517308E+03  0.95991120565E+02 -0.13425617490E+03  0.23307088662E+03  0.12498028316E+03 0.  0.
          2    1    1    2  501    0 -0.66934232012E+01  0.44680819255E+02 -0.56064815065E+03  0.56246557792E+03  0.00000000000E+00 0. -1.
          1    1    1    2  502    0  0.11375859628E+03 -0.14067193982E+03  0.39549612324E+03  0.43491010149E+03  0.00000000000E+00 0. -1.
         22    1    3    3    0    0 -0.91416685520E+01  0.53769738638E+00 -0.88348030108E+02  0.88821358053E+02  0.00000000000E+00 0.  1.
         22    1    3    3    0    0 -0.97923504523E+02  0.95453423178E+02 -0.45908144792E+02  0.14424952857E+03  0.00000000000E+00 0.  1.
</event>
<event>
 7    1  0.5970484E-006  0.7120786E+02  0.7818608E-02  0.1503632E+00
          2   -1    0    0  502    0  0.00000000000E+00  0.00000000000E+00  0.89486853771E+03  0.89486853771E+03  0.00000000000E+00 0. -1.
          1   -1    0    0  501    0 -0.00000000000E+00 -0.00000000000E+00 -0.10872766375E+03  0.10872766375E+03  0.00000000000E+00 0. -1.
         25    2    1    2    0    0  0.18116794194E+02 -0.88246320179E+02  0.26898482906E+03  0.30998979057E+03  0.12500080294E+03 0.  0.
          2    1    1    2  501    0  0.47665716772E+01  0.22686472741E+02 -0.84670791953E+02  0.87786896864E+02  0.00000000000E+00 0. -1.
          1    1    1    2  502    0 -0.22883365872E+02  0.65559847438E+02  0.60182683684E+03  0.60581951402E+03  0.00000000000E+00 0. -1.
         22    1    3    3    0    0 -0.32954602459E+02 -0.82976359701E+02  0.22611393045E+03  0.24310201898E+03  0.00000000000E+00 0.  1.
         22    1    3    3    0    0  0.51071396653E+02 -0.52699604776E+01  0.42870898619E+02  0.66887771587E+02  0.00000000000E+00 0.  1.
</event>
<event>
 7    1  0.5970484E-006  0.1155998E+03  0.7818608E-02  0.1398389E+00
          2   -1    0    0  502    0  0.00000000000E+00  0.00000000000E+00  0.91841522243E+02  0.91841522243E+02  0.00000000000E+00 0. -1.
          1   -1    0    0  501    0 -0.00000000000E+00 -0.00000000000E+00 -0.12635215668E+04  0.12635215668E+04  0.00000000000E+00 0. -1.
         25    2    1    2    0    0 -0.64832201510E+01  0.12590293109E+03 -0.64937892378E+03  0.67321003378E+03  0.12500073091E+03 0.  0.
          2    1    1    2  501    0  0.28229969428E+02 -0.12819559242E+02 -0.56009636268E+03  0.56095383746E+03  0.00000000000E+00 0. -1.
          1    1    1    2  502    0 -0.21746749277E+02 -0.11308337185E+03  0.37795241884E+02  0.12119921783E+03  0.00000000000E+00 0. -1.
         22    1    3    3    0    0 -0.21244784405E+02  0.49768784291E+02 -0.51671991841E+03  0.51954571198E+03  0.00000000000E+00 0. -1.
         22    1    3    3    0    0  0.14761564254E+02  0.76134146798E+02 -0.13265900537E+03  0.15366432180E+03  0.00000000000E+00 0. -1.
</event>
<event>
 7    1  0.5970484E-006  0.1144266E+03  0.7818608E-02  0.1395138E+00
          2   -1    0    0  502    0  0.00000000000E+00  0.00000000000E+00  0.39827149318E+04  0.39827149318E+04  0.00000000000E+00 0. -1.
          1   -1    0    0  501    0 -0.00000000000E+00 -0.00000000000E+00 -0.37478637053E+02  0.37478637053E+02  0.00000000000E+00 0. -1.
         25    2    1    2    0    0 -0.71496646309E+02 -0.44667350907E+02  0.20117237783E+03  0.25140047887E+03  0.12499973001E+03 0.  0.
          2    1    1    2  501    0 -0.30943622661E+02 -0.86981140026E+01  0.11045014320E+02  0.33987605269E+02  0.00000000000E+00 0. -1.
          1    1    1    2  502    0  0.10244026897E+03  0.53365464910E+02  0.37330189026E+04  0.37348054847E+04  0.00000000000E+00 0. -1.
         22    1    3    3    0    0 -0.92137607900E+02 -0.19713193097E+02  0.72979617965E+02  0.11918042377E+03  0.00000000000E+00 0.  1.
         22    1    3    3    0    0  0.20640961591E+02 -0.24954157810E+02  0.12819275987E+03  0.13222005510E+03  0.00000000000E+00 0.  1.
</event>
<event>
 7    1  0.5970484E-006  0.9000418E+02  0.7818608E-02  0.1348140E+00
          2   -1    0    0  502    0  0.00000000000E+00  0.00000000000E+00  0.14289241531E+04  0.14289241531E+04  0.00000000000E+00 0. -1.
          1   -1    0    0  501    0 -0.00000000000E+00 -0.00000000000E+00 -0.11398105444E+04  0.11398105444E+04  0.00000000000E+00 0. -1.
         25    2    1    2    0    0  0.12372505519E+03 -0.39436164908E+02  0.26977296474E+03  0.32444816350E+03  0.12500423156E+03 0.  0.
          2    1    1    2  501    0 -0.67025157821E+02  0.59807173157E+02 -0.11098552056E+04  0.11134845518E+04  0.00000000000E+00 0. -1.
          1    1    1    2  502    0 -0.56699897365E+02 -0.20371008249E+02  0.11291958495E+04  0.11308019822E+04  0.00000000000E+00 0. -1.
         22    1    3    3    0    0  0.99832850351E+02 -0.45956766906E-01  0.76534862995E+02  0.12579421837E+03  0.00000000000E+00 0.  1.
         22    1    3    3    0    0  0.23892204834E+02 -0.39390208141E+02  0.19323810175E+03  0.19865394513E+03  0.00000000000E+00 0.  1.
</event>
<event>
 7    1  0.5970484E-006  0.1098372E+03  0.7818608E-02  0.1279604E+00
          2   -1    0    0  502    0  0.00000000000E+00  0.00000000000E+00  0.61071205868E+03  0.61071205868E+03  0.00000000000E+00 0. -1.
          1   -1    0    0  501    0 -0.00000000000E+00 -0.00000000000E+00 -0.13578620984E+04  0.13578620984E+04  0.00000000000E+00 0. -1.
         25    2    1    2    0    0  0.52529814196E+01 -0.73207415863E+02  0.28346120528E+03  0.31837393717E+03  0.12499915766E+03 0.  0.
          2    1    1    2  501    0 -0.55351213738E+02 -0.73042133769E+02 -0.13194308147E+04  0.13226097629E+04  0.00000000000E+00 0. -1.
          1    1    1    2  502    0  0.50098232319E+02  0.14624954963E+03  0.28881956972E+03  0.32759045698E+03  0.00000000000E+00 0. -1.
         22    1    3    3    0    0 -0.12366105494E+02  0.32455044289E+02  0.10084219223E+03  0.10665551180E+03  0.00000000000E+00 0.  1.
         22    1    3    3    0    0  0.17619086913E+02 -0.10566246015E+03  0.18261901306E+03  0.21171842536E+03  0.00000000000E+00 0.  1.
</event>
<event>
 7    1  0.5970484E-006  0.3079851E+03  0.7818608E-02  0.1234217E+00
          2   -1    0    0  502    0  0.00000000000E+00  0.00000000000E+00  0.92616672355E+03  0.92616672355E+03  0.00000000000E+00 0. -1.
          1   -1    0    0  501    0 -0.00000000000E+00 -0.00000000000E+00 -0.60721623622E+03  0.60721623622E+03  0.00000000000E+00 0. -1.
         25    2    1    2    0    0 -0.31942904701E+03 -0.99278759349E+02 -0.11140954143E+03  0.37406904964E+03  0.12499751934E+03 0.  0.
          2    1    1    2  501    0  0.18748271888E+02  0.47619941439E+02 -0.33317528039E+03  0.33708296306E+03  0.00000000000E+00 0. -1.
          1    1    1    2  502    0  0.30068077512E+03  0.51658817910E+02  0.76353530916E+03  0.82223094707E+03  0.00000000000E+00 0. -1.
         22    1    3    3    0    0 -0.29433387702E+03 -0.10381900238E+03 -0.13432333709E+03  0.33978460134E+03  0.00000000000E+00 0.  1.
         22    1    3    3    0    0 -0.25095169990E+02  0.45402430280E+01  0.22913795663E+02  0.34284448300E+02  0.00000000000E+00 0.  1.
</event>
<event>
 7    1  0.5970484E-006  0.8351956E+02  0.7818608E-02  0.1388541E+00
          2   -1    0    0  502    0  0.00000000000E+00  0.00000000000E+00  0.10990429715E+04  0.10990429715E+04  0.00000000000E+00 0. -1.
          1   -1    0    0  501    0 -0.00000000000E+00 -0.00000000000E+00 -0.11603310162E+03  0.11603310162E+03  0.00000000000E+00 0. -1.
         25    2    1    2    0    0 -0.41194553261E+02 -0.10582747952E+03  0.26583181377E+03  0.31494151852E+03  0.12500064094E+03 0.  0.
          2    1    1    2  501    0  0.39540942133E+02  0.24333176795E+02 -0.83381439489E+02  0.95436125492E+02  0.00000000000E+00 0. -1.
          1    1    1    2  502    0  0.16536111280E+01  0.81494302721E+02  0.80055949558E+03  0.80469842908E+03  0.00000000000E+00 0. -1.
         22    1    3    3    0    0 -0.42138170542E+02 -0.13157966749E+01  0.17751078087E+02  0.45743387618E+02  0.00000000000E+00 0. -1.
         22    1    3    3    0    0  0.94361728045E+00 -0.10451168284E+03  0.24808073569E+03  0.26919813091E+03  0.00000000000E+00 0. -1.
</event>
<event>
 7    1  0.5970484E-006  0.7770308E+02  0.7818608E-02  0.1421595E+00
          2   -1    0    0  502    0  0.00000000000E+00  0.00000000000E+00  0.19761111304E+04  0.19761111304E+04  0.00000000000E+00 0. -1.
          1   -1    0    0  501    0 -0.00000000000E+00 -0.00000000000E+00 -0.22000020689E+02  0.22000020689E+02  0.00000000000E+00 0. -1.
         25    2    1    2    0    0  0.12103157743E+02  0.68240304376E+02  0.33807191655E+03  0.36704331821E+03  0.12499980447E+03 0.  0.
          2    1    1    2  501    0 -0.37975690744E+02  0.62436583474E+01  0.50249921849E+02  0.63294478455E+02  0.00000000000E+00 0. -1.
          1    1    1    2  502    0  0.25872533001E+02 -0.74483962724E+02  0.15657892713E+04  0.15677733544E+04  0.00000000000E+00 0. -1.
         22    1    3    3    0    0 -0.46873589645E+01  0.68832250539E+02  0.69439850418E+02  0.97886377369E+02  0.00000000000E+00 0. -1.
         22    1    3    3    0    0  0.16790516708E+02 -0.59194616279E+00  0.26863206613E+03  0.26915694084E+03  0.00000000000E+00 0. -1.
</event>
<event>
 7    1  0.5970484E-006  0.6840216E+02  0.7818608E-02  0.1434824E+00
          2   -1    0    0  502    0  0.00000000000E+00  0.00000000000E+00  0.12621508029E+04  0.12621508029E+04  0.00000000000E+00 0. -1.
          1   -1    0    0  501    0 -0.00000000000E+00 -0.00000000000E+00 -0.58897678696E+02  0.58897678696E+02  0.00000000000E+00 0. -1.
         25    2    1    2    0    0  0.95404148018E+02  0.14715497868E+02  0.45183204155E+03  0.47863734421E+03  0.12499206442E+03 0.  0.
          2    1    1    2  501    0 -0.59464086393E+02 -0.31191165150E+02 -0.19933211716E+02  0.70044266599E+02  0.00000000000E+00 0. -1.
          1    1    1    2  502    0 -0.35940061625E+02  0.16475667282E+02  0.77135429436E+03  0.77236687078E+03  0.00000000000E+00 0. -1.
         22    1    3    3    0    0  0.11777909492E+03 -0.17110796303E+02  0.34269943028E+03  0.36277760965E+03  0.00000000000E+00 0.  1.
         22    1    3    3    0    0 -0.22374946907E+02  0.31826294171E+02  0.10913261127E+03  0.11585973456E+03  0.00000000000E+00 0.  1.
</event>
<event>
 7    1  0.5970484E-006  0.1646421E+03  0.7818608E-02  0.1332973E+00
          2   -1    0    0  502    0  0.00000000000E+00  0.00000000000E+00  0.95416046280E+03  0.95416046280E+03  0.00000000000E+00 0. -1.
          1   -1    0    0  501    0 -0.00000000000E+00 -0.00000000000E+00 -0.50437601514E+03  0.50437601514E+03  0.00000000000E+00 0. -1.
         25    2    1    2    0    0 -0.16921622425E+03 -0.25247990181E+02 -0.10404008647E+03  0.23605287914E+03  0.12500012240E+03 0.  0.
          2    1    1    2  501    0  0.51202545643E+01  0.37205521708E+02 -0.32562106398E+03  0.32777972048E+03  0.00000000000E+00 0. -1.
          1    1    1    2  502    0  0.16409596969E+03 -0.11957531527E+02  0.87944559812E+03  0.89470387832E+03  0.00000000000E+00 0. -1.
         22    1    3    3    0    0 -0.80739513278E+02  0.78051022983E+01 -0.11525748079E+03  0.14093997128E+03  0.00000000000E+00 0. -1.
         22    1    3    3    0    0 -0.88476710973E+02 -0.33053092479E+02  0.11217394316E+02  0.95112907864E+02  0.00000000000E+00 0. -1.
</event>
<event>
 7    1  0.5970484E-006  0.1675567E+03  0.7818608E-02  0.1197997E+00
          2   -1    0    0  502    0  0.00000000000E+00  0.00000000000E+00  0.98274054912E+03  0.98274054912E+03  0.00000000000E+00 0. -1.
          1   -1    0    0  501    0 -0.00000000000E+00 -0.00000000000E+00 -0.12393131347E+04  0.12393131347E+04  0.00000000000E+00 0. -1.
         25    2    1    2    0    0  0.20999413434E+03 -0.14156083474E+03 -0.87309293114E+02  0.29561544886E+03  0.12501429739E+03 0.  0.
          2    1    1    2  501    0 -0.13775931210E+03 -0.72039054010E+01 -0.10354537117E+04  0.10446022752E+04  0.00000000000E+00 0. -1.
          1    1    1    2  502    0 -0.72234822239E+02  0.14876474014E+03  0.86619041926E+03  0.88183595972E+03  0.00000000000E+00 0. -1.
         22    1    3    3    0    0  0.12211701199E+03 -0.15079390303E+03 -0.61902946975E+02  0.20367459501E+03  0.00000000000E+00 0.  1.
         22    1    3    3    0    0  0.87877122347E+02  0.92330682930E+01 -0.25406346139E+02  0.91940853848E+02  0.00000000000E+00 0.  1.
</event>
<event>
 7    1  0.5970484E-006  0.6256819E+02  0.7818608E-02  0.1402513E+00
          2   -1    0    0  502    0  0.00000000000E+00  0.00000000000E+00  0.24313839858E+03  0.24313839858E+03  0.00000000000E+00 0. -1.
          1   -1    0    0  501    0 -0.00000000000E+00 -0.00000000000E+00 -0.11089864968E+04  0.11089864968E+04  0.00000000000E+00 0. -1.
         25    2    1    2    0    0  0.76739497115E+02 -0.74214123616E+02 -0.38134267448E+03  0.41526274514E+03  0.12499690220E+03 0.  0.
          2    1    1    2  501    0 -0.52835268546E+02  0.16807815315E+02 -0.70530100960E+03  0.70747691298E+03  0.00000000000E+00 0. -1.
          1    1    1    2  502    0 -0.23904228569E+02  0.57406308301E+02  0.22079558582E+03  0.22938523730E+03  0.00000000000E+00 0. -1.
         22    1    3    3    0    0  0.35766597042E+02 -0.97060915695E+02 -0.17183869495E+03  0.20057070549E+03  0.00000000000E+00 0. -1.
         22    1    3    3    0    0  0.40972900072E+02  0.22846792079E+02 -0.20950397953E+03  0.21469203965E+03  0.00000000000E+00 0. -1.
</event>
<event>
 7    1  0.5970484E-006  0.3506165E+02  0.7818608E-02  0.1578458E+00
          2   -1    0    0  502    0  0.00000000000E+00  0.00000000000E+00  0.20424678626E+02  0.20424678626E+02  0.00000000000E+00 0. -1.
          1   -1    0    0  501    0 -0.00000000000E+00 -0.00000000000E+00 -0.19889695890E+04  0.19889695890E+04  0.00000000000E+00 0. -1.
         25    2    1    2    0    0 -0.11565445141E+02 -0.32126287437E+02 -0.40361214545E+03  0.42390323375E+03  0.12500131907E+03 0.  0.
          2    1    1    2  501    0 -0.21897362362E+02  0.18920526735E+02 -0.15431800671E+04  0.15434513923E+04  0.00000000000E+00 0. -1.
          1    1    1    2  502    0  0.33462807503E+02  0.13205760703E+02 -0.21752697793E+02  0.42039641565E+02  0.00000000000E+00 0. -1.
         22    1    3    3    0    0 -0.30452327249E+02 -0.68783841527E+02 -0.33905675730E+03  0.34730108805E+03  0.00000000000E+00 0. -1.
         22    1    3    3    0    0  0.18886882109E+02  0.36657554089E+02 -0.64555388147E+02  0.76602145704E+02  0.00000000000E+00 0. -1.
</event>
<event>
 7    1  0.5970484E-006  0.5208565E+02  0.7818608E-02  0.1487790E+00
          2   -1    0    0  502    0  0.00000000000E+00  0.00000000000E+00  0.21429198147E+03  0.21429198147E+03  0.00000000000E+00 0. -1.
          1   -1    0    0  501    0 -0.00000000000E+00 -0.00000000000E+00 -0.14607438540E+04  0.14607438540E+04  0.00000000000E+00 0. -1.
         25    2    1    2    0    0 -0.49505817024E+02 -0.16481331781E+02  0.66498580698E+02  0.15089468913E+03  0.12499874302E+03 0.  0.
          2    1    1    2  501    0  0.20555804912E+02 -0.28771453448E+02 -0.14114775255E+04  0.14119203740E+04  0.00000000000E+00 0. -1.
          1    1    1    2  502    0  0.28950012112E+02  0.45252785229E+02  0.98527072248E+02  0.11222077231E+03  0.00000000000E+00 0. -1.
         22    1    3    3    0    0 -0.64531034799E+02  0.23923200786E+02 -0.32504659227E+01  0.68899488509E+02  0.00000000000E+00 0.  1.
         22    1    3    3    0    0  0.15025217775E+02 -0.40404532567E+02  0.69749046620E+02  0.81995200625E+02  0.00000000000E+00 0.  1.
</event>
<event>
 7    1  0.5970484E-006  0.5608206E+02  0.7818608E-02  0.1553105E+00
          2   -1    0    0  502    0  0.00000000000E+00  0.00000000000E+00  0.23049485361E+02  0.23049485361E+02  0.00000000000E+00 0. -1.
          1   -1    0    0  501    0 -0.00000000000E+00 -0.00000000000E+00 -0.51541231428E+03  0.51541231428E+03  0.00000000000E+00 0. -1.
         25    2    1    2    0    0  0.26003457873E+02 -0.32434581085E+02 -0.29712217616E+03  0.32501547234E+03  0.12500115128E+03 0.  0.
          2    1    1    2  501    0  0.70744911977E+01 -0.20006830825E+02 -0.77817847417E+02  0.80659401696E+02  0.00000000000E+00 0. -1.
          1    1    1    2  502    0 -0.33077949071E+02  0.52441411910E+02 -0.11742280534E+03  0.13278692560E+03  0.00000000000E+00 0. -1.
         22    1    3    3    0    0  0.23217496171E+02  0.72723052256E+01 -0.28102992138E+03  0.28208111468E+03  0.00000000000E+00 0. -1.
         22    1    3    3    0    0  0.27859617026E+01 -0.39706886311E+02 -0.16092254781E+02  0.42934357653E+02  0.00000000000E+00 0. -1.
</event>
<event>
 7    1  0.5970484E-006  0.2696998E+03  0.7818608E-02  0.1161001E+00
          2   -1    0    0  502    0  0.00000000000E+00  0.00000000000E+00  0.28575918633E+04  0.28575918633E+04  0.00000000000E+00 0. -1.
          1   -1    0    0  501    0 -0.00000000000E+00 -0.00000000000E+00 -0.24758445970E+03  0.24758445970E+03  0.00000000000E+00 0. -1.
         25    2    1    2    0    0 -0.89824687502E+02 -0.18149902912E+03  0.18954744221E+03  0.30422099229E+03  0.12494721782E+03 0.  0.
          2    1    1    2  501    0  0.21356981949E+03  0.22117978781E+03 -0.63206823987E+02  0.31389117371E+03  0.00000000000E+00 0. -1.
          1    1    1    2  502    0 -0.12374513199E+03 -0.39680758689E+02  0.24836667853E+04  0.24870641570E+04  0.00000000000E+00 0. -1.
         22    1    3    3    0    0  0.13449784534E+00  0.54815059803E+01  0.58610528688E+02  0.58866451146E+02  0.00000000000E+00 0.  1.
         22    1    3    3    0    0 -0.89959185347E+02 -0.18698053510E+03  0.13093691353E+03  0.24535454114E+03  0.00000000000E+00 0.  1.
</event>
<event>
 7    1  0.5970484E-006  0.6534128E+02  0.7818608E-02  0.1390190E+00
          2   -1    0    0  502    0  0.00000000000E+00  0.00000000000E+00  0.13104737452E+04  0.13104737452E+04  0.00000000000E+00 0. -1.
          1   -1    0    0  501    0 -0.00000000000E+00 -0.00000000000E+00 -0.18810530807E+02  0.18810530807E+02  0.00000000000E+00 0. -1.
         25    2    1    2    0    0 -0.60647220250E+02  0.64694360590E+02  0.67048674250E+03  0.68778202382E+03  0.12501277857E+03 0.  0.
          2    1    1    2  501    0  0.64085143509E+02 -0.62321049099E+01  0.11376108191E+03  0.13071850866E+03  0.00000000000E+00 0. -1.
          1    1    1    2  502    0 -0.34379232592E+01 -0.58462255681E+02  0.50741539002E+03  0.51078374356E+03  0.00000000000E+00 0. -1.
         22    1    3    3    0    0  0.60901361951E+01 -0.13044077330E+02  0.62565792394E+01  0.15696575934E+02  0.00000000000E+00 0.  1.
         22    1    3    3    0    0 -0.66737356445E+02  0.77738437920E+02  0.66423016326E+03  0.67208544789E+03  0.00000000000E+00 0.  1.
</event>
<event>
 7    1  0.5970484E-006  0.6546186E+02  0.7818608E-02  0.1493738E+00
          2   -1    0    0  502    0  0.00000000000E+00  0.00000000000E+00  0.12035121861E+04  0.12035121861E+04  0.00000000000E+00 0. -1.
          1   -1    0    0  501    0 -0.00000000000E+00 -0.00000000000E+00 -0.31290407373E+04  0.31290407373E+04  0.00000000000E+00 0. -1.
         25    2    1    2    0    0  0.39609055906E+02 -0.23903688363E+02 -0.10380827808E+03  0.16894543871E+03  0.12500455606E+03 0.  0.
          2    1    1    2  501    0 -0.64372513253E+02  0.13159310512E+02 -0.29921476080E+04  0.29928689073E+04  0.00000000000E+00 0. -1.
          1    1    1    2  502    0  0.24763457347E+02  0.10744377850E+02  0.11704273349E+04  0.11707385774E+04  0.00000000000E+00 0. -1.
         22    1    3    3    0    0  0.69204079820E+02  0.22734790291E+02 -0.81677886068E+02  0.10944109112E+03  0.00000000000E+00 0.  1.
         22    1    3    3    0    0 -0.29595023914E+02 -0.46638478654E+02 -0.22130392011E+02  0.59504347590E+02  0.00000000000E+00 0.  1.
</event>
<event>
 7    1  0.5970484E-006  0.3197383E+02  0.7818608E-02  0.1598557E+00
          2   -1    0    0  502    0  0.00000000000E+00  0.00000000000E+00  0.12559044644E+04  0.12559044644E+04  0.00000000000E+00 0. -1.
          1   -1    0    0  501    0 -0.00000000000E+00 -0.00000000000E+00 -0.12528717960E+03  0.12528717960E+03  0.00000000000E+00 0. -1.
         25    2    1    2    0    0  0.53949646415E+02  0.14751881088E+02  0.63471811780E+03  0.64932281288E+03  0.12499937568E+03 0.  0.
          2    1    1    2  501    0 -0.28004833023E+02  0.18928714900E+01 -0.11592191452E+03  0.11927172297E+03  0.00000000000E+00 0. -1.
          1    1    1    2  502    0 -0.25944813391E+02 -0.16644752578E+02  0.61182108153E+03  0.61259710816E+03  0.00000000000E+00 0. -1.
         22    1    3    3    0    0 -0.19249225301E+02  0.49299822808E+02  0.32085413799E+03  0.32518976470E+03  0.00000000000E+00 0.  1.
         22    1    3    3    0    0  0.73198871716E+02 -0.34547941720E+02  0.31386397981E+03  0.32413304818E+03  0.00000000000E+00 0.  1.
</event>
<event>
 7    1  0.5970484E-006  0.7140536E+02  0.7818608E-02  0.1376326E+00
          2   -1    0    0  502    0  0.00000000000E+00  0.00000000000E+00  0.42319302271E+03  0.42319302271E+03  0.00000000000E+00 0. -1.
          1   -1    0    0  501    0 -0.00000000000E+00 -0.00000000000E+00 -0.25202591040E+03  0.25202591040E+03  0.00000000000E+00 0. -1.
         25    2    1    2    0    0  0.77837960910E+01 -0.60152117344E+02  0.44323058724E+02  0.14583976508E+03  0.12500335532E+03 0.  0.
          2    1    1    2  501    0 -0.63403578939E+02  0.37722736903E+02 -0.19161239455E+03  0.20532493381E+03  0.00000000000E+00 0. -1.
          1    1    1    2  502    0  0.55619782848E+02  0.22429380441E+02  0.31845644813E+03  0.32405423421E+03  0.00000000000E+00 0. -1.
         22    1    3    3    0    0  0.74844932322E+01 -0.69831082140E+02 -0.25972996833E+02  0.74879865360E+02  0.00000000000E+00 0. -1.
         22    1    3    3    0    0  0.29930285878E+00  0.96789647966E+01  0.70296055557E+02  0.70959899722E+02  0.00000000000E+00 0. -1.
</event>
<event>
 7    1  0.5970484E-006  0.4196048E+02  0.7818608E-02  0.1525707E+00
          2   -1    0    0  502    0  0.00000000000E+00  0.00000000000E+00  0.53986332171E+03  0.53986332171E+03  0.00000000000E+00 0. -1.
          1   -1    0    0  501    0 -0.00000000000E+00 -0.00000000000E+00 -0.87766783149E+03  0.87766783149E+03  0.00000000000E+00 0. -1.
         25    2    1    2    0    0 -0.13995929897E+01 -0.43310256891E+02  0.43454090328E+03  0.45423038007E+03  0.12498681670E+03 0.  0.
          2    1    1    2  501    0  0.31511949627E+02  0.27728342486E+02 -0.86428762437E+03  0.86530628195E+03  0.00000000000E+00 0. -1.
          1    1    1    2  502    0 -0.30112356637E+02  0.15581914405E+02  0.91942211317E+02  0.97994491175E+02  0.00000000000E+00 0. -1.
         22    1    3    3    0    0  0.10493561840E+02 -0.79628881588E+02  0.37481842659E+03  0.38332717949E+03  0.00000000000E+00 0. -1.
         22    1    3    3    0    0 -0.11893154830E+02  0.36318624697E+02  0.59722476689E+02  0.70903200588E+02  0.00000000000E+00 0. -1.
</event>
<event>
 7    1  0.5970484E-006  0.9341220E+02  0.7818608E-02  0.1404963E+00
          2   -1    0    0  502    0  0.00000000000E+00  0.00000000000E+00  0.18242576707E+04  0.18242576707E+04  0.00000000000E+00 0. -1.
          1   -1    0    0  501    0 -0.00000000000E+00 -0.00000000000E+00 -0.27309389931E+02  0.27309389931E+02  0.00000000000E+00 0. -1.
         25    2    1    2    0    0  0.47048142543E+02  0.42206686275E+02  0.44663130564E+03  0.46808175376E+03  0.12500429170E+03 0.  0.
          2    1    1    2  501    0  0.18551962137E+02  0.31349324209E+02  0.76704569211E+01  0.37226218407E+02  0.00000000000E+00 0. -1.
          1    1    1    2  502    0 -0.65600104681E+02 -0.73556010484E+02  0.13426465182E+04  0.13462590885E+04  0.00000000000E+00 0. -1.
         22    1    3    3    0    0  0.57436916137E+02 -0.26611598604E+02  0.13992472468E+03  0.15357768423E+03  0.00000000000E+00 0.  1.
         22    1    3    3    0    0 -0.10388773594E+02  0.68818284879E+02  0.30670658095E+03  0.31450406953E+03  0.00000000000E+00 0.  1.
</event>
<event>
 7    1  0.5970484E-006  0.9186699E+02  0.7818608E-02  0.1312515E+00
          2   -1    0    0  502    0  0.00000000000E+00  0.00000000000E+00  0.14826201850E+04  0.14826201850E+04  0.00000000000E+00 0. -1.
          1   -1    0    0  501    0 -0.00000000000E+00 -0.00000000000E+00 -0.22766217908E+04  0.22766217908E+04  0.00000000000E+00 0. -1.
         25    2    1    2    0    0 -0.24527181362E+02  0.16376134849E+03 -0.11419978781E+01  0.20747520075E+03  0.12500117152E+03 0.  0.
          2    1    1    2  501    0 -0.10781303183E+02 -0.80019938592E+02 -0.21700647274E+04  0.21715663352E+04  0.00000000000E+00 0. -1.
          1    1    1    2  502    0  0.35308484545E+02 -0.83741409896E+02  0.13772051195E+04  0.13802004398E+04  0.00000000000E+00 0. -1.
         22    1    3    3    0    0  0.38453681824E+02  0.10329330843E+02 -0.11057752417E+02  0.41323777780E+02  0.00000000000E+00 0.  1.
         22    1    3    3    0    0 -0.62980863185E+02  0.15343201765E+03  0.99157545394E+01  0.16615142297E+03  0.00000000000E+00 0.  1.
</event>
<event>
 7    1  0.5970484E-006  0.6069332E+02  0.7818608E-02  0.1416424E+00
          2   -1    0    0  502    0  0.00000000000E+00  0.00000000000E+00  0.43052141655E+03  0.43052141655E+03  0.00000000000E+00 0. -1.
          1   -1    0    0  501    0 -0.00000000000E+00 -0.00000000000E+00 -0.46440691066E+02  0.46440691066E+02  0.00000000000E+00 0. -1.
         25    2    1    2    0    0 -0.40638802685E+02 -0.92994416051E+02  0.24097980094E+03  0.28981988286E+03  0.12499930534E+03 0.  0.
          2    1    1    2  501    0  0.11469864615E+02  0.49973882418E+02  0.22841216344E+02  0.56130810455E+02  0.00000000000E+00 0. -1.
          1    1    1    2  502    0  0.29168938069E+02  0.43020533633E+02  0.12025970820E+03  0.13101141430E+03  0.00000000000E+00 0. -1.
         22    1    3    3    0    0  0.10381721273E+02 -0.56337390199E+01 -0.12317844774E+02  0.17066002807E+02  0.00000000000E+00 0.  1.
         22    1    3    3    0    0 -0.51020523957E+02 -0.87360677031E+02  0.25329764572E+03  0.27275388005E+03  0.00000000000E+00 0.  1.
</event>
<event>
 7    1  0.5970484E-006  0.1396714E+03  0.7818608E-02  0.1246121E+00
          2   -1    0    0  502    0  0.00000000000E+00  0.00000000000E+00  0.62592859936E+03  0.62592859936E+03  0.00000000000E+00 0. -1.
          1   -1    0    0  501    0 -0.00000000000E+00 -0.00000000000E+00 -0.20758026577E+03  0.20758026577E+03  0.00000000000E+00 0. -1.
         25    2    1    2    0    0  0.41998348080E+02  0.59176435176E+02  0.17251981627E+03  0.22506387358E+03  0.12499979385E+03 0.  0.
          2    1    1    2  501    0 -0.63696087637E+01 -0.15261928640E+03 -0.14161819943E+03  0.20830010299E+03  0.00000000000E+00 0. -1.
          1    1    1    2  502    0 -0.35628739317E+02  0.93442851227E+02  0.38744671675E+03  0.40014488855E+03  0.00000000000E+00 0. -1.
         22    1    3    3    0    0  0.16472355086E+02  0.17505555144E+02 -0.16937879766E+02  0.29405351791E+02  0.00000000000E+00 0. -1.
         22    1    3    3    0    0  0.25525992994E+02  0.41670880032E+02  0.18945769604E+03  0.19565852179E+03  0.00000000000E+00 0. -1.
</event>
<event>
 7    1  0.5970484E-006  0.1053338E+03  0.7818608E-02  0.1389162E+00
          2   -1    0    0  502    0  0.00000000000E+00  0.00000000000E+00  0.90434417862E+03  0.90434417862E+03  0.00000000000E+00 0. -1.
          1   -1    0    0  501    0 -0.00000000000E+00 -0.00000000000E+00 -0.48788265233E+02  0.48788265233E+02  0.00000000000E+00 0. -1.
         25    2    1    2    0    0 -0.56319475666E+02  0.78825742096E+02  0.48282486332E+03  0.50806569995E+03  0.12500210349E+03 0.  0.
          2    1    1    2  501    0  0.22713792901E+02  0.28736961276E+02 -0.16263681122E+02  0.40077882366E+02  0.00000000000E+00 0. -1.
          1    1    1    2  502    0  0.33605682765E+02 -0.10756270337E+03  0.38899473120E+03  0.40498886154E+03  0.00000000000E+00 0. -1.
         22    1    3    3    0    0 -0.71520112806E+02 -0.29847328678E+01  0.17212885586E+03  0.18641989750E+03  0.00000000000E+00 0.  1.
         22    1    3    3    0    0  0.15200637140E+02  0.81810474964E+02  0.31069600746E+03  0.32164580245E+03  0.00000000000E+00 0.  1.
</event>
<event>
 7    1  0.5970484E-006  0.9534999E+02  0.7818608E-02  0.1341351E+00
          2   -1    0    0  502    0  0.00000000000E+00  0.00000000000E+00  0.64495851062E+03  0.64495851062E+03  0.00000000000E+00 0. -1.
          1   -1    0    0  501    0 -0.00000000000E+00 -0.00000000000E+00 -0.25787322673E+04  0.25787322673E+04  0.00000000000E+00 0. -1.
         25    2    1    2    0    0  0.73784468505E+02 -0.83879572359E+02 -0.56499672220E+02  0.17688893074E+03  0.12497019806E+03 0.  0.
          2    1    1    2  501    0  0.17888851298E+02  0.57574927183E+02 -0.24577771088E+04  0.24585164632E+04  0.00000000000E+00 0. -1.
          1    1    1    2  502    0 -0.91673319803E+02  0.26304645176E+02  0.58050302427E+03  0.58828538407E+03  0.00000000000E+00 0. -1.
         22    1    3    3    0    0  0.63397328076E+02  0.15751802620E+02 -0.36189005193E+02  0.74679211229E+02  0.00000000000E+00 0.  1.
         22    1    3    3    0    0  0.10387140429E+02 -0.99631374980E+02 -0.20310667028E+02  0.10220971951E+03  0.00000000000E+00 0.  1.
</event>
<event>
 7    1  0.5970484E-006  0.1006930E+03  0.7818608E-02  0.1407507E+00
          2   -1    0    0  502    0  0.00000000000E+00  0.00000000000E+00  0.14662613818E+04  0.14662613818E+04  0.00000000000E+00 0. -1.
          1   -1    0    0  501    0 -0.00000000000E+00 -0.00000000000E+00 -0.53199896967E+03  0.53199896967E+03  0.00000000000E+00 0. -1.
         25    2    1    2    0    0  0.25303750199E+01 -0.82508249900E+02  0.68344112892E+03  0.69966572779E+03  0.12500535928E+03 0.  0.
          2    1    1    2  501    0  0.27203977940E+02  0.97108293499E+02 -0.51867384864E+03  0.52838682643E+03  0.00000000000E+00 0. -1.
          1    1    1    2  502    0 -0.29734352960E+02 -0.14600043599E+02  0.76949513187E+03  0.77020779728E+03  0.00000000000E+00 0. -1.
         22    1    3    3    0    0  0.31676994370E+02 -0.56614876465E+02  0.63096794340E+03  0.63429427067E+03  0.00000000000E+00 0. -1.
         22    1    3    3    0    0 -0.29146619350E+02 -0.25893373435E+02  0.52473185522E+02  0.65371457122E+02  0.00000000000E+00 0. -1.
</event>
<event>
 7    1  0.5970484E-006  0.5126605E+02  0.7818608E-02  0.1499946E+00
          2   -1    0    0  502    0  0.00000000000E+00  0.00000000000E+00  0.77565532727E+03  0.77565532727E+03  0.00000000000E+00 0. -1.
          1   -1    0    0  501    0 -0.00000000000E+00 -0.00000000000E+00 -0.55247805570E+03  0.55247805570E+03  0.00000000000E+00 0. -1.
         25    2    1    2    0    0 -0.58574274692E+02  0.67368659981E+01 -0.36885154845E+03  0.39389846607E+03  0.12501282240E+03 0.  0.
          2    1    1    2  501    0  0.13055327463E+02 -0.30332971712E+02 -0.16863860539E+03  0.17184152576E+03  0.00000000000E+00 0. -1.
          1    1    1    2  502    0  0.45518947229E+02  0.23596105714E+02  0.76066742541E+03  0.76239339113E+03  0.00000000000E+00 0. -1.
         22    1    3    3    0    0 -0.20919072579E+02 -0.41246757056E+01 -0.34957356252E+03  0.35022320905E+03  0.00000000000E+00 0.  1.
         22    1    3    3    0    0 -0.37655202113E+02  0.10861541704E+02 -0.19277985928E+02  0.43675257020E+02  0.00000000000E+00 0.  1.
</event>
<event>
 7    1  0.5970484E-006  0.2366220E+03  0.7818608E-02  0.1189075E+00
          2   -1    0    0  502    0  0.00000000000E+00  0.00000000000E+00  0.31276793095E+03  0.31276793095E+03  0.00000000000E+00 0. -1.
          1   -1    0    0  501    0 -0.00000000000E+00 -0.00000000000E+00 -0.19847249041E+04  0.19847249041E+04  0.00000000000E+00 0. -1.
         25    2    1    2    0    0 -0.22724191134E+03 -0.72006733125E+01 -0.78843149485E+03  0.83002394717E+03  0.12499917936E+03 0.  0.
          2    1    1    2  501    0  0.17411519889E+02 -0.10632135809E+03 -0.11237527314E+04  0.11289054847E+04  0.00000000000E+00 0. -1.
          1    1    1    2  502    0  0.20983039145E+03  0.11352203140E+03  0.24022725310E+03  0.33856340311E+03  0.00000000000E+00 0. -1.
         22    1    3    3    0    0 -0.71256384061E+02 -0.41645823195E+02 -0.42642764762E+03  0.43434132374E+03  0.00000000000E+00 0.  1.
         22    1    3    3    0    0 -0.15598552728E+03  0.34445149883E+02 -0.36200384723E+03  0.39568262343E+03  0.00000000000E+00 0.  1.
</event>
<event>
 7    1  0.5970484E-006  0.5806478E+02  0.7818608E-02  0.1406479E+00
          2   -1    0    0  502    0  0.00000000000E+00  0.00000000000E+00  0.22279896311E+04  0.22279896311E+04  0.00000000000E+00 0. -1.
          1   -1    0    0  501    0 -0.00000000000E+00 -0.00000000000E+00 -0.41991163967E+03  0.41991163967E+03  0.00000000000E+00 0. -1.
         25    2    1    2    0    0  0.15956021028E+02 -0.64648172212E+02  0.21588394660E+03  0.25819985119E+03  0.12500921559E+03 0.  0.
          2    1    1    2  501    0 -0.54251483829E+02  0.20695292518E+02 -0.39621044997E+03  0.40044255431E+03  0.00000000000E+00 0. -1.
          1    1    1    2  502    0  0.38295462801E+02  0.43952879693E+02  0.19884044948E+04  0.19892588653E+04  0.00000000000E+00 0. -1.
         22    1    3    3    0    0  0.34503553410E+02  0.93047685662E+01  0.77860545686E+01  0.36574534334E+02  0.00000000000E+00 0. -1.
         22    1    3    3    0    0 -0.18547532382E+02 -0.73952940778E+02  0.20809789203E+03  0.22162531686E+03  0.00000000000E+00 0. -1.
</event>
<event>
 7    1  0.5970484E-006  0.3589403E+02  0.7818608E-02  0.1594561E+00
          2   -1    0    0  502    0  0.00000000000E+00  0.00000000000E+00  0.71278432063E+03  0.71278432063E+03  0.00000000000E+00 0. -1.
          1   -1    0    0  501    0 -0.00000000000E+00 -0.00000000000E+00 -0.15332454286E+04  0.15332454286E+04  0.00000000000E+00 0. -1.
         25    2    1    2    0    0  0.60605050016E+01  0.60857870417E+02  0.80507380216E+02  0.16077094474E+03  0.12500179315E+03 0.  0.
          2    1    1    2  501    0 -0.19086561060E+01 -0.25543059073E+02 -0.14924698445E+04  0.14926896286E+04  0.00000000000E+00 0. -1.
          1    1    1    2  502    0 -0.41518488956E+01 -0.35314811344E+02  0.59150135625E+03  0.59256917587E+03  0.00000000000E+00 0. -1.
         22    1    3    3    0    0 -0.32907733079E+02  0.38313719493E+02 -0.17066836883E+02  0.53311695893E+02  0.00000000000E+00 0. -1.
         22    1    3    3    0    0  0.38968238081E+02  0.22544150924E+02  0.97574217099E+02  0.10745924885E+03  0.00000000000E+00 0. -1.
</event>
<event>
 7    1  0.5970484E-006  0.2692392E+03  0.7818608E-02  0.1184166E+00
          2   -1    0    0  502    0  0.00000000000E+00  0.00000000000E+00  0.20952976968E+04  0.20952976968E+04  0.00000000000E+00 0. -1.
          1   -1    0    0  501    0 -0.00000000000E+00 -0.00000000000E+00 -0.81829836423E+03  0.81829836423E+03  0.00000000000E+00 0. -1.
         25    2    1    2    0    0  0.19436458699E+03  0.25880219433E+03  0.70596460617E+03  0.78661803648E+03  0.12500296671E+03 0.  0.
          2    1    1    2  501    0 -0.97365866025E+02 -0.22774337664E+02 -0.76261078403E+03  0.76913847273E+03  0.00000000000E+00 0. -1.
          1    1    1    2  502    0 -0.96998720962E+02 -0.23602785667E+03  0.13336455104E+04  0.13578395518E+04  0.00000000000E+00 0. -1.
         22    1    3    3    0    0 -0.60097859605E+01  0.25789066693E+02  0.14111818638E+03  0.14358111302E+03  0.00000000000E+00 0.  1.
         22    1    3    3    0    0  0.20037437295E+03  0.23301312764E+03  0.56484641978E+03  0.64303692346E+03  0.00000000000E+00 0.  1.
</event>
<event>
 7    1  0.5970484E-006  0.2508223E+03  0.7818608E-02  0.1241601E+00
          2   -1    0    0  502    0  0.00000000000E+00  0.00000000000E+00  0.40694556478E+04  0.40694556478E+04  0.00000000000E+00 0. -1.
          1   -1    0    0  501    0 -0.00000000000E+00 -0.00000000000E+00 -0.20616270912E+04  0.20616270912E+04  0.00000000000E+00 0. -1.
         25    2    1    2    0    0 -0.15614916839E+03 -0.23622559359E+03 -0.11443275258E+04  0.11854515010E+04  0.12499872450E+03 0.  0.
          2    1    1    2  501    0  0.14017895185E+03  0.18016979409E+03 -0.88199562150E+03  0.91105848857E+03  0.00000000000E+00 0. -1.
          1    1    1    2  502    0  0.15970216548E+02  0.56055799506E+02  0.40341517039E+04  0.40345727494E+04  0.00000000000E+00 0. -1.
         22    1    3    3    0    0 -0.60589534527E+02 -0.25069533278E+02 -0.13810646023E+03  0.15288220155E+03  0.00000000000E+00 0. -1.
         22    1    3    3    0    0 -0.95559633867E+02 -0.21115606032E+03 -0.10062210655E+04  0.10325692995E+04  0.00000000000E+00 0. -1.
</event>
<event>
 7    1  0.5970484E-006  0.2430364E+03  0.7818608E-02  0.1246408E+00
          2   -1    0    0  502    0  0.00000000000E+00  0.00000000000E+00  0.91251074823E+03  0.91251074823E+03  0.00000000000E+00 0. -1.
          1   -1    0    0  501    0 -0.00000000000E+00 -0.00000000000E+00 -0.23896474079E+03  0.23896474079E+03  0.00000000000E+00 0. -1.
         25    2    1    2    0    0  0.74687607279E+02  0.27609044332E+03  0.26014104832E+03  0.40632839015E+03  0.12500089622E+03 0.  0.
          2    1    1    2  501    0 -0.23378666184E+02 -0.52320838574E+02 -0.13715149336E+03  0.14864240415E+03  0.00000000000E+00 0. -1.
          1    1    1    2  502    0 -0.51308941096E+02 -0.22376960474E+03  0.55055645248E+03  0.59650469471E+03  0.00000000000E+00 0. -1.
         22    1    3    3    0    0 -0.22997736024E+01  0.18537113033E+03  0.20106410844E+03  0.27348586914E+03  0.00000000000E+00 0. -1.
         22    1    3    3    0    0  0.76987380881E+02  0.90719312988E+02  0.59076939877E+02  0.13284252101E+03  0.00000000000E+00 0. -1.
</event>
<event>
 7    1  0.5970484E-006  0.6464461E+02  0.7818608E-02  0.1518555E+00
          2   -1    0    0  502    0  0.00000000000E+00  0.00000000000E+00  0.35092995545E+03  0.35092995545E+03  0.00000000000E+00 0. -1.
          1   -1    0    0  501    0 -0.00000000000E+00 -0.00000000000E+00 -0.21819388956E+03  0.21819388956E+03  0.00000000000E+00 0. -1.
         25    2    1    2    0    0  0.53360072775E+02  0.33874987839E+02  0.29709758373E+02  0.14317140768E+03  0.12498227901E+03 0.  0.
          2    1    1    2  501    0  0.10298353370E+02 -0.20657586628E+02 -0.15660877550E+03  0.15830066497E+03  0.00000000000E+00 0. -1.
          1    1    1    2  502    0 -0.63658426145E+02 -0.13217401211E+02  0.25963508301E+03  0.26765177235E+03  0.00000000000E+00 0. -1.
         22    1    3    3    0    0  0.71537346597E+02  0.12543906700E+02 -0.28930129026E+02  0.78178602692E+02  0.00000000000E+00 0.  1.
         22    1    3    3    0    0 -0.18177273822E+02  0.21331081139E+02  0.58639887400E+02  0.64992804990E+02  0.00000000000E+00 0.  1.
</event>
<event>
 7    1  0.5970484E-006  0.3470237E+02  0.7818608E-02  0.1629800E+00
          2   -1    0    0  502    0  0.00000000000E+00  0.00000000000E+00  0.99568543782E+03  0.99568543782E+03  0.00000000000E+00 0. -1.
          1   -1    0    0  501    0 -0.00000000000E+00 -0.00000000000E+00 -0.69491233654E+03  0.69491233654E+03  0.00000000000E+00 0. -1.
         25    2    1    2    0    0 -0.13534226773E+02  0.16177695690E+01  0.18259165257E+02  0.12705826343E+03  0.12499845085E+03 0.  0.
          2    1    1    2  501    0 -0.19901159889E+02  0.81422932957E+01 -0.64000357992E+03  0.64036468939E+03  0.00000000000E+00 0. -1.
          1    1    1    2  502    0  0.33435386662E+02 -0.97600628647E+01  0.92251751594E+03  0.92317482154E+03  0.00000000000E+00 0. -1.
         22    1    3    3    0    0 -0.15081950838E+02 -0.54997671130E+02 -0.18009318387E+02  0.59804219078E+02  0.00000000000E+00 0.  1.
         22    1    3    3    0    0  0.15477240647E+01  0.56615440698E+02  0.36268483644E+02  0.67254044347E+02  0.00000000000E+00 0.  1.
</event>
<event>
 7    1  0.5970484E-006  0.9283542E+02  0.7818608E-02  0.1305934E+00
          2   -1    0    0  502    0  0.00000000000E+00  0.00000000000E+00  0.13702938434E+04  0.13702938434E+04  0.00000000000E+00 0. -1.
          1   -1    0    0  501    0 -0.00000000000E+00 -0.00000000000E+00 -0.26722307257E+02  0.26722307257E+02  0.00000000000E+00 0. -1.
         25    2    1    2    0    0  0.28823652679E+02  0.78616953275E+02  0.50186199969E+03  0.52392975541E+03  0.12500197427E+03 0.  0.
          2    1    1    2  501    0  0.63916836217E+02 -0.74419632161E+02  0.18089803881E+03  0.20578567503E+03  0.00000000000E+00 0. -1.
          1    1    1    2  502    0 -0.92740488897E+02 -0.41973211146E+01  0.66081149762E+03  0.66730072019E+03  0.00000000000E+00 0. -1.
         22    1    3    3    0    0 -0.29239414139E+02  0.14818676067E+02  0.30618410834E+02  0.44855585845E+02  0.00000000000E+00 0.  1.
         22    1    3    3    0    0  0.58063066818E+02  0.63798277208E+02  0.47124358886E+03  0.47907416956E+03  0.00000000000E+00 0.  1.
</event>
<event>
 7    1  0.5970484E-006  0.8653402E+02  0.7818608E-02  0.1374090E+00
          2   -1    0    0  502    0  0.00000000000E+00  0.00000000000E+00  0.75497547453E+03  0.75497547453E+03  0.00000000000E+00 0. -1.
          1   -1    0    0  501    0 -0.00000000000E+00 -0.00000000000E+00 -0.32833230454E+03  0.32833230454E+03  0.00000000000E+00 0. -1.
         25    2    1    2    0    0  0.18005548115E+02 -0.12810734395E+03  0.10873436637E+03  0.21020062811E+03  0.12500180115E+03 0.  0.
          2    1    1    2  501    0 -0.30450105316E+02  0.79263453269E+02 -0.27000239452E+03  0.28303921457E+03  0.00000000000E+00 0. -1.
          1    1    1    2  502    0  0.12444557201E+02  0.48843890680E+02  0.58791119814E+03  0.59006793639E+03  0.00000000000E+00 0. -1.
         22    1    3    3    0    0 -0.14776445651E+02 -0.59755795782E+02  0.11872996131E+03  0.13373818523E+03  0.00000000000E+00 0.  1.
         22    1    3    3    0    0  0.32781993766E+02 -0.68351548168E+02 -0.99955949423E+01  0.76462442875E+02  0.00000000000E+00 0.  1.
</event>
<event>
 7    1  0.5970484E-006  0.7022188E+02  0.7818608E-02  0.1400477E+00
          2   -1    0    0  502    0  0.00000000000E+00  0.00000000000E+00  0.12619285298E+04  0.12619285298E+04  0.00000000000E+00 0. -1.
          1   -1    0    0  501    0 -0.00000000000E+00 -0.00000000000E+00 -0.64560440859E+03  0.64560440859E+03  0.00000000000E+00 0. -1.
         25    2    1    2    0    0 -0.45236390309E+02  0.68400512058E+01  0.66791613783E+02  0.14891983653E+03  0.12499152264E+03 0.  0.
          2    1    1    2  501    0  0.57252542848E+02  0.41902797142E+02 -0.60190985499E+03  0.60607686939E+03  0.00000000000E+00 0. -1.
          1    1    1    2  502    0 -0.12016152539E+02 -0.48742848348E+02  0.11514423624E+04  0.11525362324E+04  0.00000000000E+00 0. -1.
         22    1    3    3    0    0  0.51624579825E+01  0.54340436434E+02  0.28486598581E+01  0.54659389562E+02  0.00000000000E+00 0. -1.
         22    1    3    3    0    0 -0.50398848292E+02 -0.47500385228E+02  0.63942953925E+02  0.94260446968E+02  0.00000000000E+00 0. -1.
</event>
<event>
 7    1  0.5970484E-006  0.1125350E+03  0.7818608E-02  0.1261222E+00
          2   -1    0    0  502    0  0.00000000000E+00  0.00000000000E+00  0.14868509723E+04  0.14868509723E+04  0.00000000000E+00 0. -1.
          1   -1    0    0  501    0 -0.00000000000E+00 -0.00000000000E+00 -0.13638499628E+03  0.13638499628E+03  0.00000000000E+00 0. -1.
         25    2    1    2    0    0 -0.51699588184E+02 -0.42161540313E+02  0.70772225776E+03  0.72176615028E+03  0.12500055464E+03 0.  0.
          2    1    1    2  501    0 -0.29214710072E+02  0.11192448777E+03 -0.98888127507E+02  0.15218229861E+03  0.00000000000E+00 0. -1.
          1    1    1    2  502    0  0.80914298256E+02 -0.69762947461E+02  0.74163184578E+03  0.74928751970E+03  0.00000000000E+00 0. -1.
         22    1    3    3    0    0 -0.53250481839E+02  0.15945815889E+02  0.56402046929E+03  0.56675300850E+03  0.00000000000E+00 0.  1.
         22    1    3    3    0    0  0.15508936551E+01 -0.58107356203E+02  0.14370178846E+03  0.15501314178E+03  0.00000000000E+00 0.  1.
</event>
<event>
 7    1  0.5970484E-006  0.1131900E+03  0.7818608E-02  0.1349248E+00
          2   -1    0    0  502    0  0.00000000000E+00  0.00000000000E+00  0.51637998403E+03  0.51637998403E+03  0.00000000000E+00 0. -1.
          1   -1    0    0  501    0 -0.00000000000E+00 -0.00000000000E+00 -0.10329725584E+04  0.10329725584E+04  0.00000000000E+00 0. -1.
         25    2    1    2    0    0  0.72396430185E+02  0.14209166007E+03 -0.35131237650E+03  0.40555828410E+03  0.12500341178E+03 0.  0.
          2    1    1    2  501    0 -0.25933868954E+02 -0.39742340086E+02 -0.64720121883E+03  0.64893870034E+03  0.00000000000E+00 0. -1.
          1    1    1    2  502    0 -0.46462561231E+02 -0.10234931998E+03  0.48192102092E+03  0.49485555802E+03  0.00000000000E+00 0. -1.
         22    1    3    3    0    0  0.25768491487E+02  0.34828948197E+02 -0.24073432881E+03  0.24460189667E+03  0.00000000000E+00 0.  1.
         22    1    3    3    0    0  0.46627938698E+02  0.10726271187E+03 -0.11057804769E+03  0.16095638743E+03  0.00000000000E+00 0.  1.
</event>
<event>
 7    1  0.5970484E-006  0.2740287E+02  0.7818608E-02  0.1674378E+00
          2   -1    0    0  502    0  0.00000000000E+00  0.00000000000E+00  0.84111838179E+03  0.84111838179E+03  0.00000000000E+00 0. -1.
          1   -1    0    0  501    0 -0.00000000000E+00 -0.00000000000E+00 -0.12610196991E+03  0.12610196991E+03  0.00000000000E+00 0. -1.
         25    2    1    2    0    0  0.83001489618E+01  0.45667981451E+02  0.18642340551E+01  0.13333273840E+03  0.12497874523E+03 0.  0.
          2    1    1    2  501    0 -0.10468894356E+02 -0.18415627109E+02 -0.58259761359E+02  0.61991393471E+02  0.00000000000E+00 0. -1.
          1    1    1    2  502    0  0.21687453945E+01 -0.27252354342E+02  0.77141193919E+03  0.77189621983E+03  0.00000000000E+00 0. -1.
         22    1    3    3    0    0 -0.26555866853E+01 -0.10046155048E+01 -0.57194566416E+02  0.57264996468E+02  0.00000000000E+00 0.  1.
         22    1    3    3    0    0  0.10955735647E+02  0.46672596956E+02  0.59058800471E+02  0.76067741936E+02  0.00000000000E+00 0.  1.
</event>
<event>
 7    1  0.5970484E-006  0.1100305E+03  0.7818608E-02  0.1277671E+00
          2   -1    0    0  502    0  0.00000000000E+00  0.00000000000E+00  0.22731330381E+03  0.22731330381E+03  0.00000000000E+00 0. -1.
          1   -1    0    0  501    0 -0.00000000000E+00 -0.00000000000E+00 -0.76681014203E+03  0.76681014203E+03  0.00000000000E+00 0. -1.
         25    2    1    2    0    0 -0.31552404019E+02 -0.18785447530E+03 -0.38299256401E+02  0.23103477517E+03  0.12500150483E+03 0.  0.
          2    1    1    2  501    0  0.26921724083E+02  0.89213078894E+02 -0.60946655890E+03  0.61654946199E+03  0.00000000000E+00 0. -1.
          1    1    1    2  502    0  0.46306799364E+01  0.98641396406E+02  0.10826897707E+03  0.14653920867E+03  0.00000000000E+00 0. -1.
         22    1    3    3    0    0 -0.92418326364E+01 -0.65338714088E+02  0.46189369245E+02  0.80548226923E+02  0.00000000000E+00 0.  1.
         22    1    3    3    0    0 -0.22310571383E+02 -0.12251576121E+03 -0.84488625646E+02  0.15048654825E+03  0.00000000000E+00 0.  1.
</event>
<event>
 7    1  0.5970484E-006  0.3057713E+03  0.7818608E-02  0.1189121E+00
          2   -1    0    0  502    0  0.00000000000E+00  0.00000000000E+00  0.35467995635E+04  0.35467995635E+04  0.00000000000E+00 0. -1.
          1   -1    0    0  501    0 -0.00000000000E+00 -0.00000000000E+00 -0.35522449591E+03  0.35522449591E+03  0.00000000000E+00 0. -1.
         25    2    1    2    0    0 -0.12052906766E+03  0.20403823923E+03 -0.20196236770E+03  0.33551960963E+03  0.12500300501E+03 0.  0.
          2    1    1    2  501    0  0.94219566923E+01  0.82796123467E+02 -0.57846305838E+02  0.10144045755E+03  0.00000000000E+00 0. -1.
          1    1    1    2  502    0  0.11110711097E+03 -0.28683436269E+03  0.34513837411E+04  0.34650639922E+04  0.00000000000E+00 0. -1.
         22    1    3    3    0    0 -0.12749557670E+03  0.19622732186E+03 -0.14002392689E+03  0.27270310600E+03  0.00000000000E+00 0. -1.
         22    1    3    3    0    0  0.69665090338E+01  0.78109173683E+01 -0.61938440812E+02  0.62816503632E+02  0.00000000000E+00 0. -1.
</event>
<event>
 7    1  0.5970484E-006  0.4039700E+03  0.7818608E-02  0.1294160E+00
          2   -1    0    0  502    0  0.00000000000E+00  0.00000000000E+00  0.88030579243E+03  0.88030579243E+03  0.00000000000E+00 0. -1.
          1   -1    0    0  501    0 -0.00000000000E+00 -0.00000000000E+00 -0.41401118273E+03  0.41401118273E+03  0.00000000000E+00 0. -1.
         25    2    1    2    0    0 -0.40147678669E+03 -0.31294860767E+02  0.23163069279E+02  0.42228486020E+03  0.12499998728E+03 0.  0.
          2    1    1    2  501    0 -0.29114531235E+01  0.21531646862E+02 -0.15139408282E+03  0.15294527351E+03  0.00000000000E+00 0. -1.
          1    1    1    2  502    0  0.40438823981E+03  0.97632139054E+01  0.59452562325E+03  0.71908684145E+03  0.00000000000E+00 0. -1.
         22    1    3    3    0    0 -0.14048102394E+03 -0.61170362602E+02  0.42109901990E+02  0.15890240776E+03  0.00000000000E+00 0.  1.
         22    1    3    3    0    0 -0.26099576275E+03  0.29875501835E+02 -0.18946832710E+02  0.26338245244E+03  0.00000000000E+00 0.  1.
</event>
<event>
 7    1  0.5970484E-006  0.3895510E+02  0.7818608E-02  0.1574097E+00
          2   -1    0    0  502    0  0.00000000000E+00  0.00000000000E+00  0.22192130225E+04  0.22192130225E+04  0.00000000000E+00 0. -1.
          1   -1    0    0  501    0 -0.00000000000E+00 -0.00000000000E+00 -0.32079474267E+03  0.32079474267E+03  0.00000000000E+00 0. -1.
         25    2    1    2    0    0  0.59149556494E+02  0.28137852654E+02  0.18562397208E+04  0.18615964569E+04  0.12500023339E+03 0.  0.
          2    1    1    2  501    0 -0.36165769396E+02 -0.14429710877E+02 -0.31642439235E+03  0.31881119100E+03  0.00000000000E+00 0. -1.
          1    1    1    2  502    0 -0.22983787098E+02 -0.13708141776E+02  0.35860295130E+03  0.35960011722E+03  0.00000000000E+00 0. -1.
         22    1    3    3    0    0  0.37438631707E+01  0.32606091531E+02  0.15503472013E+04  0.15506945600E+04  0.00000000000E+00 0. -1.
         22    1    3    3    0    0  0.55405693323E+02 -0.44682388771E+01  0.30589251951E+03  0.31090189692E+03  0.00000000000E+00 0. -1.
</event>
<event>
 7    1  0.5970484E-006  0.6238160E+02  0.7818608E-02  0.1422896E+00
          2   -1    0    0  502    0  0.00000000000E+00  0.00000000000E+00  0.18666695404E+04  0.18666695404E+04  0.00000000000E+00 0. -1.
          1   -1    0    0  501    0 -0.00000000000E+00 -0.00000000000E+00 -0.10271171275E+03  0.10271171275E+03  0.00000000000E+00 0. -1.
         25    2    1    2    0    0 -0.88559362167E+01 -0.58724334697E+02  0.11836084906E+03  0.18210245099E+03  0.12500014791E+03 0.  0.
          2    1    1    2  501    0 -0.38088329435E+02  0.51731766684E+02 -0.55877678250E+02  0.85142301179E+02  0.00000000000E+00 0. -1.
          1    1    1    2  502    0  0.46944265652E+02  0.69925680131E+01  0.17014746569E+04  0.17021365010E+04  0.00000000000E+00 0. -1.
         22    1    3    3    0    0  0.28500309457E+02 -0.11567021602E+02 -0.16157741596E+02  0.34743866241E+02  0.00000000000E+00 0.  1.
         22    1    3    3    0    0 -0.37356245673E+02 -0.47157313095E+02  0.13451859065E+03  0.14735858475E+03  0.00000000000E+00 0.  1.
</event>
<event>
 7    1  0.5970484E-006  0.1070736E+03  0.7818608E-02  0.1335533E+00
          2   -1    0    0  502    0  0.00000000000E+00  0.00000000000E+00  0.14730217341E+04  0.14730217341E+04  0.00000000000E+00 0. -1.
          1   -1    0    0  501    0 -0.00000000000E+00 -0.00000000000E+00 -0.25017678277E+04  0.25017678277E+04  0.00000000000E+00 0. -1.
         25    2    1    2    0    0 -0.96848458024E+02 -0.45372498457E+02  0.15352793185E+03  0.22502786209E+03  0.12501370092E+03 0.  0.
          2    1    1    2  501    0  0.60411404056E+02  0.88514820766E+02 -0.24642317190E+04  0.24665608397E+04  0.00000000000E+00 0. -1.
          1    1    1    2  502    0  0.36437053968E+02 -0.43142322309E+02  0.12819576936E+04  0.12832008599E+04  0.00000000000E+00 0. -1.
         22    1    3    3    0    0  0.20588987895E+01 -0.45877684247E+02  0.44724266144E+01  0.46141126730E+02  0.00000000000E+00 0. -1.
         22    1    3    3    0    0 -0.98907356814E+02  0.50518578987E+00  0.14905550524E+03  0.17888673536E+03  0.00000000000E+00 0. -1.
</event>
<event>
 7    1  0.5970484E-006  0.3018801E+03  0.7818608E-02  0.1181895E+00
          2   -1    0    0  502    0  0.00000000000E+00  0.00000000000E+00  0.72340832229E+03  0.72340832229E+03  0.00000000000E+00 0. -1.
          1   -1    0    0  501    0 -0.00000000000E+00 -0.00000000000E+00 -0.61629192303E+03  0.61629192303E+03  0.00000000000E+00 0. -1.
         25    2    1    2    0    0  0.14315823352E+03 -0.22204385407E+03  0.17183471447E+03  0.33904304003E+03  0.12500104375E+03 0.  0.
          2    1    1    2  501    0 -0.25936143750E+02 -0.87721131996E+02 -0.46910975920E+03  0.47794523403E+03  0.00000000000E+00 0. -1.
          1    1    1    2  502    0 -0.11722208977E+03  0.30976498607E+03  0.40439144400E+03  0.52271197127E+03  0.00000000000E+00 0. -1.
         22    1    3    3    0    0  0.13655705988E+03 -0.12236556802E+03  0.14973438873E+03  0.23673096546E+03  0.00000000000E+00 0.  1.
         22    1    3    3    0    0  0.66011736420E+01 -0.99678286056E+02  0.22100325735E+02  0.10231207457E+03  0.00000000000E+00 0.  1.
</event>
<event>
 7    1  0.5970484E-006  0.5591004E+02  0.7818608E-02  0.1479694E+00
          2   -1    0    0  502    0  0.00000000000E+00  0.00000000000E+00  0.31371151075E+03  0.31371151075E+03  0.00000000000E+00 0. -1.
          1   -1    0    0  501    0 -0.00000000000E+00 -0.00000000000E+00 -0.48884170215E+03  0.48884170215E+03  0.00000000000E+00 0. -1.
         25    2    1    2    0    0  0.52913901634E+02  0.27686477587E+01 -0.71023813673E+02  0.15322342332E+03  0.12500195577E+03 0.  0.
          2    1    1    2  501    0 -0.43400354683E+02 -0.36315342709E+02 -0.37346270761E+03  0.37772581177E+03  0.00000000000E+00 0. -1.
          1    1    1    2  502    0 -0.95135469514E+01  0.33546694951E+02  0.26935632988E+03  0.27160397781E+03  0.00000000000E+00 0. -1.
         22    1    3    3    0    0 -0.13210062858E+02 -0.27619251897E+02  0.20087119795E+02  0.36617225697E+02  0.00000000000E+00 0.  1.
         22    1    3    3    0    0  0.66123964492E+02  0.30387899656E+02 -0.91110933468E+02  0.11660619762E+03  0.00000000000E+00 0.  1.
</event>
<event>
 7    1  0.5970484E-006  0.1988883E+03  0.7818608E-02  0.1262058E+00
          2   -1    0    0  502    0  0.00000000000E+00  0.00000000000E+00  0.72845806597E+03  0.72845806597E+03  0.00000000000E+00 0. -1.
          1   -1    0    0  501    0 -0.00000000000E+00 -0.00000000000E+00 -0.24443624035E+03  0.24443624035E+03  0.00000000000E+00 0. -1.
         25    2    1    2    0    0 -0.12663763628E+03 -0.73337221214E+02 -0.45749148857E+02  0.19782070093E+03  0.12499842463E+03 0.  0.
          2    1    1    2  501    0 -0.55029616936E+02 -0.23802939298E+02 -0.97711005619E+02  0.11463978052E+03  0.00000000000E+00 0. -1.
          1    1    1    2  502    0  0.18166725321E+03  0.97140160512E+02  0.62748198009E+03  0.66043382486E+03  0.00000000000E+00 0. -1.
         22    1    3    3    0    0 -0.11374060442E+03 -0.15990085569E+01 -0.39992206299E+01  0.11382212301E+03  0.00000000000E+00 0. -1.
         22    1    3    3    0    0 -0.12897031864E+02 -0.71738212657E+02 -0.41749928227E+02  0.83998577923E+02  0.00000000000E+00 0. -1.
</event>
<event>
 7    1  0.5970484E-006  0.2890601E+02  0.7818608E-02  0.1636996E+00
          2   -1    0    0  502    0  0.00000000000E+00  0.00000000000E+00  0.23986168764E+03  0.23986168764E+03  0.00000000000E+00 0. -1.
          1   -1    0    0  501    0 -0.00000000000E+00 -0.00000000000E+00 -0.46778816888E+03  0.46778816888E+03  0.00000000000E+00 0. -1.
         25    2    1    2    0    0 -0.16021392359E+02 -0.42650878250E+02  0.14302187016E+03  0.19533867751E+03  0.12500464455E+03 0.  0.
          2    1    1    2  501    0  0.22059040207E+02  0.18633125653E+02 -0.43897150392E+03  0.43992019263E+03  0.00000000000E+00 0. -1.
          1    1    1    2  502    0 -0.60376478476E+01  0.24017752597E+02  0.68023152523E+02  0.72390986390E+02  0.00000000000E+00 0. -1.
         22    1    3    3    0    0  0.68231630630E+00 -0.59989469165E+02  0.10818536604E+02  0.60960993270E+02  0.00000000000E+00 0.  1.
         22    1    3    3    0    0 -0.16703708666E+02  0.17338590915E+02  0.13220333356E+03  0.13437768424E+03  0.00000000000E+00 0.  1.
</event>
<event>
 7    1  0.5970484E-006  0.5276479E+02  0.7818608E-02  0.1434951E+00
          2   -1    0    0  502    0  0.00000000000E+00  0.00000000000E+00  0.49017077189E+02  0.49017077189E+02  0.00000000000E+00 0. -1.
          1   -1    0    0  501    0 -0.00000000000E+00 -0.00000000000E+00 -0.13349941419E+04  0.13349941419E+04  0.00000000000E+00 0. -1.
         25    2    1    2    0    0  0.18641211582E+02 -0.87463491465E+01 -0.13986525961E+03  0.18870699503E+03  0.12499618288E+03 0.  0.
          2    1    1    2  501    0 -0.12083531266E+02 -0.51362544512E+02 -0.11319801609E+04  0.11332092514E+04  0.00000000000E+00 0. -1.
          1    1    1    2  502    0 -0.65576803157E+01  0.60108893659E+02 -0.14131644225E+02  0.62094972715E+02  0.00000000000E+00 0. -1.
         22    1    3    3    0    0 -0.45777040848E+02 -0.19852586808E+02 -0.10101135807E+03  0.11266302469E+03  0.00000000000E+00 0. -1.
         22    1    3    3    0    0  0.64418252430E+02  0.11106237661E+02 -0.38853901534E+02  0.76043970344E+02  0.00000000000E+00 0. -1.
</event>
<event>
 7    1  0.5970484E-006  0.1292789E+03  0.7818608E-02  0.1287756E+00
          2   -1    0    0  502    0  0.00000000000E+00  0.00000000000E+00  0.19474487771E+04  0.19474487771E+04  0.00000000000E+00 0. -1.
          1   -1    0    0  501    0 -0.00000000000E+00 -0.00000000000E+00 -0.65784084162E+03  0.65784084162E+03  0.00000000000E+00 0. -1.
         25    2    1    2    0    0 -0.79819666449E+02 -0.27427449172E+02 -0.38851606330E+03  0.41676415231E+03  0.12499673232E+03 0.  0.
          2    1    1    2  501    0 -0.46846494414E+02  0.54786709757E+02 -0.24788936668E+03  0.25815754050E+03  0.00000000000E+00 0. -1.
          1    1    1    2  502    0  0.12666616086E+03 -0.27359260585E+02  0.19260133655E+04  0.19303679259E+04  0.00000000000E+00 0. -1.
         22    1    3    3    0    0 -0.76865981713E+02 -0.35787275263E+02 -0.11384468477E+03  0.14194971104E+03  0.00000000000E+00 0. -1.
         22    1    3    3    0    0 -0.29536847358E+01  0.83598260907E+01 -0.27467137853E+03  0.27481444127E+03  0.00000000000E+00 0. -1.
</event>
<event>
 7    1  0.5970484E-006  0.3958310E+02  0.7818608E-02  0.1579885E+00
          2   -1    0    0  502    0  0.00000000000E+00  0.00000000000E+00  0.16442372893E+04  0.16442372893E+04  0.00000000000E+00 0. -1.
          1   -1    0    0  501    0 -0.00000000000E+00 -0.00000000000E+00 -0.87644276867E+02  0.87644276867E+02  0.00000000000E+00 0. -1.
         25    2    1    2    0    0  0.96815820282E+01 -0.35107908489E+02  0.38052012802E+03  0.40217796267E+03  0.12500099025E+03 0.  0.
          2    1    1    2  501    0 -0.25358842842E+02 -0.15874155655E+01 -0.74387239042E+02  0.78606947090E+02  0.00000000000E+00 0. -1.
          1    1    1    2  502    0  0.15677260814E+02  0.36695324054E+02  0.12504601234E+04  0.12510966564E+04  0.00000000000E+00 0. -1.
         22    1    3    3    0    0 -0.37540509663E+02 -0.50756595076E+02  0.30689832198E+03  0.31332427586E+03  0.00000000000E+00 0. -1.
         22    1    3    3    0    0  0.47222091691E+02  0.15648686587E+02  0.73621806039E+02  0.88853686812E+02  0.00000000000E+00 0. -1.
</event>
<event>
 7    1  0.5970484E-006  0.7842937E+02  0.7818608E-02  0.1336741E+00
          2   -1    0    0  502    0  0.00000000000E+00  0.00000000000E+00  0.13135802855E+03  0.13135802855E+03  0.00000000000E+00 0. -1.
          1   -1    0    0  501    0 -0.00000000000E+00 -0.00000000000E+00 -0.89066184438E+03  0.89066184438E+03  0.00000000000E+00 0. -1.
         25    2    1    2    0    0 -0.46840384646E+01  0.27993157914E+01 -0.42020022837E+03  0.43843365614E+03  0.12500425004E+03 0.  0.
          2    1    1    2  501    0  0.40641408574E+02  0.67077876188E+02 -0.44492014538E+03  0.45177992577E+03  0.00000000000E+00 0. -1.
          1    1    1    2  502    0 -0.35957370109E+02 -0.69877191979E+02  0.10581655792E+03  0.13180629103E+03  0.00000000000E+00 0. -1.
         22    1    3    3    0    0  0.57934564458E+02 -0.54299376404E+01 -0.25542779326E+03  0.26197186023E+03  0.00000000000E+00 0.  1.
         22    1    3    3    0    0 -0.62618602923E+02  0.82292534318E+01 -0.16477243511E+03  0.17646179591E+03  0.00000000000E+00 0.  1.
</event>
<event>
 7    1  0.5970484E-006  0.3139832E+02  0.7818608E-02  0.1658995E+00
          2   -1    0    0  502    0  0.00000000000E+00  0.00000000000E+00  0.91149959265E+03  0.91149959265E+03  0.00000000000E+00 0. -1.
          1   -1    0    0  501    0 -0.00000000000E+00 -0.00000000000E+00 -0.36314180187E+02  0.36314180187E+02  0.00000000000E+00 0. -1.
         25    2    1    2    0    0 -0.99472667042E+01 -0.11324011415E+02  0.80976307089E+02  0.14969676360E+03  0.12499910948E+03 0.  0.
          2    1    1    2  501    0 -0.20072240808E+02  0.15178823967E+01  0.61149804067E+02  0.64377770662E+02  0.00000000000E+00 0. -1.
          1    1    1    2  502    0  0.30019507512E+02  0.98061290181E+01  0.73305930131E+03  0.73373923858E+03  0.00000000000E+00 0. -1.
         22    1    3    3    0    0  0.25505862373E+02  0.42452068767E+02  0.67783612757E+02  0.83948468219E+02  0.00000000000E+00 0. -1.
         22    1    3    3    0    0 -0.35453129077E+02 -0.53776080182E+02  0.13192694333E+02  0.65748295376E+02  0.00000000000E+00 0. -1.
</event>
<event>
 7    1  0.5970484E-006  0.1424763E+03  0.7818608E-02  0.1236592E+00
          2   -1    0    0  502    0  0.00000000000E+00  0.00000000000E+00  0.10779595506E+04  0.10779595506E+04  0.00000000000E+00 0. -1.
          1   -1    0    0  501    0 -0.00000000000E+00 -0.00000000000E+00 -0.14742496770E+04  0.14742496770E+04  0.00000000000E+00 0. -1.
         25    2    1    2    0    0  0.20523481867E+02  0.23287195014E+03 -0.89847616659E+02  0.27990165605E+03  0.12498713681E+03 0.  0.
          2    1    1    2  501    0 -0.51365918472E+02 -0.12939814611E+03 -0.12826317224E+04  0.12901652891E+04  0.00000000000E+00 0. -1.
          1    1    1    2  502    0  0.30842436605E+02 -0.10347380404E+03  0.97618921270E+03  0.98214228247E+03  0.00000000000E+00 0. -1.
         22    1    3    3    0    0 -0.15597426015E+02  0.21324563043E+03 -0.43949388422E+02  0.21828542631E+03  0.00000000000E+00 0.  1.
         22    1    3    3    0    0  0.36120907882E+02  0.19626319709E+02 -0.45898228237E+02  0.61616229736E+02  0.00000000000E+00 0.  1.
</event>
<event>
 7    1  0.5970484E-006  0.1272824E+03  0.7818608E-02  0.1262079E+00
          2   -1    0    0  502    0  0.00000000000E+00  0.00000000000E+00  0.83318670200E+03  0.83318670200E+03  0.00000000000E+00 0. -1.
          1   -1    0    0  501    0 -0.00000000000E+00 -0.00000000000E+00 -0.57267012386E+02  0.57267012386E+02  0.00000000000E+00 0. -1.
         25    2    1    2    0    0 -0.51950838549E+01  0.21763199107E+02  0.22766382028E+03  0.26068442972E+03  0.12499972442E+03 0.  0.
          2    1    1    2  501    0 -0.46433820298E+02 -0.13810433915E+03  0.13973171984E+03  0.20187585712E+03  0.00000000000E+00 0. -1.
          1    1    1    2  502    0  0.51628904153E+02  0.11634114004E+03  0.40852414950E+03  0.42789342755E+03  0.00000000000E+00 0. -1.
         22    1    3    3    0    0  0.53933924431E+02 -0.15624577885E+02  0.86338437985E+02  0.10299185168E+03  0.00000000000E+00 0.  1.
         22    1    3    3    0    0 -0.59129008286E+02  0.37387776992E+02  0.14132538229E+03  0.15769257804E+03  0.00000000000E+00 0.  1.
</event>
<event>
 7    1  0.5970484E-006  0.4423777E+02  0.7818608E-02  0.1485950E+00
          2   -1    0    0  502    0  0.00000000000E+00  0.00000000000E+00  0.10587858975E+04  0.10587858975E+04  0.00000000000E+00 0. -1.
          1   -1    0    0  501    0 -0.00000000000E+00 -0.00000000000E+00 -0.12380197565E+04  0.12380197565E+04  0.00000000000E+00 0. -1.
         25    2    1    2    0    0 -0.44532013060E+02 -0.12534098870E+02  0.65037419160E+02  0.14830734934E+03  0.12500000063E+03 0.  0.
          2    1    1    2  501    0  0.34073774324E+02 -0.28320821590E+02 -0.11955072294E+04  0.11963279762E+04  0.00000000000E+00 0. -1.
          1    1    1    2  502    0  0.10458238736E+02  0.40854920459E+02  0.95123595131E+03  0.95217032843E+03  0.00000000000E+00 0. -1.
         22    1    3    3    0    0 -0.18964176270E+02  0.26579251619E+02 -0.28762101326E+02  0.43512700111E+02  0.00000000000E+00 0.  1.
         22    1    3    3    0    0 -0.25567836790E+02 -0.39113350489E+02  0.93799520486E+02  0.10479464923E+03  0.00000000000E+00 0.  1.
</event>
<event>
 7    1  0.8722081E-006  0.7961917E+02  0.7818608E-02  0.1369048E+00
          2   -1    0    0  502    0  0.00000000000E+00  0.00000000000E+00  0.11356482545E+04  0.11356482545E+04  0.00000000000E+00 0. -1.
          1   -1    0    0  501    0 -0.00000000000E+00 -0.00000000000E+00 -0.61355678148E+03  0.61355678148E+03  0.00000000000E+00 0. -1.
         25    2    1    2    0    0  0.54064124138E+02  0.23363611592E+01 -0.24644814629E+03  0.28158542313E+03  0.12500109440E+03 0.  0.
          2    1    1    2  501    0 -0.75559310061E+00  0.57106217925E+02 -0.34576910157E+03  0.35045393798E+03  0.00000000000E+00 0. -1.
          1    1    1    2  502    0 -0.53308531038E+02 -0.59442579084E+02  0.11143087209E+04  0.11171656749E+04  0.00000000000E+00 0. -1.
         22    1    3    3    0    0  0.18385048852E+02  0.63069457421E+02 -0.12373840916E+03  0.14009625399E+03  0.00000000000E+00 0.  1.
         22    1    3    3    0    0  0.35679075287E+02 -0.60733096261E+02 -0.12270973714E+03  0.14148916914E+03  0.00000000000E+00 0.  1.
</event>
<event>
 7    1  0.5970484E-006  0.2053203E+03  0.7818608E-02  0.1211520E+00
          2   -1    0    0  502    0  0.00000000000E+00  0.00000000000E+00  0.17150519257E+04  0.17150519257E+04  0.00000000000E+00 0. -1.
          1   -1    0    0  501    0 -0.00000000000E+00 -0.00000000000E+00 -0.13740102837E+04  0.13740102837E+04  0.00000000000E+00 0. -1.
         25    2    1    2    0    0 -0.15765714733E+02 -0.22302149973E+03 -0.37232960844E+03  0.45193404617E+03  0.12501159012E+03 0.  0.
          2    1    1    2  501    0  0.10198237632E+03  0.17789107106E+03 -0.94951174362E+03  0.97140011814E+03  0.00000000000E+00 0. -1.
          1    1    1    2  502    0 -0.86216661582E+02  0.45130428666E+02  0.16628829940E+04  0.16657280451E+04  0.00000000000E+00 0. -1.
         22    1    3    3    0    0 -0.15000607746E+02 -0.45577166936E+02 -0.10767197347E+02  0.49175491023E+02  0.00000000000E+00 0.  1.
         22    1    3    3    0    0 -0.76510698745E+00 -0.17744433279E+03 -0.36156241110E+03  0.40275855515E+03  0.00000000000E+00 0.  1.
</event>
<event>
 7    1  0.5970484E-006  0.1810043E+03  0.7818608E-02  0.1390485E+00
          2   -1    0    0  502    0  0.00000000000E+00  0.00000000000E+00  0.14091432543E+03  0.14091432543E+03  0.00000000000E+00 0. -1.
          1   -1    0    0  501    0 -0.00000000000E+00 -0.00000000000E+00 -0.49960388048E+03  0.49960388048E+03  0.00000000000E+00 0. -1.
         25    2    1    2    0    0 -0.17685488329E+03  0.27407710153E+02 -0.23597412912E+03  0.32146175213E+03  0.12500014459E+03 0.  0.
          2    1    1    2  501    0  0.18324452977E+03 -0.73080400008E+01 -0.18063761897E+03  0.25741389731E+03  0.00000000000E+00 0. -1.
          1    1    1    2  502    0 -0.63896464755E+01 -0.20099670152E+02  0.57922193044E+02  0.61642556479E+02  0.00000000000E+00 0. -1.
         22    1    3    3    0    0 -0.28273914702E+02 -0.40926615036E+02 -0.28667927318E+02  0.57412996156E+02  0.00000000000E+00 0.  1.
         22    1    3    3    0    0 -0.14858096859E+03  0.68334325189E+02 -0.20730620180E+03  0.26404875597E+03  0.00000000000E+00 0.  1.
</event>
<event>
 7    1  0.5970484E-006  0.9199325E+02  0.7818608E-02  0.1306737E+00
          2   -1    0    0  502    0  0.00000000000E+00  0.00000000000E+00  0.71409088827E+03  0.71409088827E+03  0.00000000000E+00 0. -1.
          1   -1    0    0  501    0 -0.00000000000E+00 -0.00000000000E+00 -0.23253609453E+04  0.23253609453E+04  0.00000000000E+00 0. -1.
         25    2    1    2    0    0  0.31773529213E+02  0.81876293382E+02  0.71513167062E+01  0.15293556401E+03  0.12499944333E+03 0.  0.
          2    1    1    2  501    0 -0.84863144058E+02 -0.43547943805E+01 -0.22481808974E+04  0.22497862265E+04  0.00000000000E+00 0. -1.
          1    1    1    2  502    0  0.53089614845E+02 -0.77521499001E+02  0.62975952370E+03  0.63673004303E+03  0.00000000000E+00 0. -1.
         22    1    3    3    0    0 -0.76464499533E+01  0.86533808830E+02  0.45220981455E+02  0.97936231454E+02  0.00000000000E+00 0.  1.
         22    1    3    3    0    0  0.39419979167E+02 -0.46575154489E+01 -0.38069664749E+02  0.54999332557E+02  0.00000000000E+00 0.  1.
</event>
<event>
 7    1  0.5970484E-006  0.2088007E+03  0.7818608E-02  0.1338086E+00
          2   -1    0    0  502    0  0.00000000000E+00  0.00000000000E+00  0.47185765044E+03  0.47185765044E+03  0.00000000000E+00 0. -1.
          1   -1    0    0  501    0 -0.00000000000E+00 -0.00000000000E+00 -0.42156852631E+03  0.42156852631E+03  0.00000000000E+00 0. -1.
         25    2    1    2    0    0  0.16622526871E+03 -0.13627914531E+03  0.28681093277E+03  0.37958962182E+03  0.12499969772E+03 0.  0.
          2    1    1    2  501    0 -0.14263594733E+03  0.15195303553E+03 -0.34426452187E+03  0.40243359638E+03  0.00000000000E+00 0. -1.
          1    1    1    2  502    0 -0.23589321374E+02 -0.15673890212E+02  0.10774271324E+03  0.11140295855E+03  0.00000000000E+00 0. -1.
         22    1    3    3    0    0  0.33124494913E+02 -0.72898047065E+02  0.18161969554E+03  0.19848695483E+03  0.00000000000E+00 0. -1.
         22    1    3    3    0    0  0.13310077379E+03 -0.63381098249E+02  0.10519123723E+03  0.18110266698E+03  0.00000000000E+00 0. -1.
</event>
<event>
 7    1  0.5970484E-006  0.7061252E+02  0.7818608E-02  0.1389445E+00
          2   -1    0    0  502    0  0.00000000000E+00  0.00000000000E+00  0.12011156926E+04  0.12011156926E+04  0.00000000000E+00 0. -1.
          1   -1    0    0  501    0 -0.00000000000E+00 -0.00000000000E+00 -0.55521537333E+03  0.55521537333E+03  0.00000000000E+00 0. -1.
         25    2    1    2    0    0  0.24942334791E+02  0.36686062727E+02  0.39049169492E+03  0.41240252352E+03  0.12499636131E+03 0.  0.
          2    1    1    2  501    0  0.19625936303E+02 -0.68083202883E+02 -0.54101802918E+03  0.54563816563E+03  0.00000000000E+00 0. -1.
          1    1    1    2  502    0 -0.44568271093E+02  0.31397140156E+02  0.79642665355E+03  0.79829037680E+03  0.00000000000E+00 0. -1.
         22    1    3    3    0    0  0.73201802921E+02  0.13562610439E+02  0.27855521083E+03  0.28833219354E+03  0.00000000000E+00 0. -1.
         22    1    3    3    0    0 -0.48259468130E+02  0.23123452288E+02  0.11193648409E+03  0.12407032998E+03  0.00000000000E+00 0. -1.
</event>
<event>
 7    1  0.5970484E-006  0.1355279E+03  0.7818608E-02  0.1401945E+00
          2   -1    0    0  502    0  0.00000000000E+00  0.00000000000E+00  0.77660472295E+03  0.77660472295E+03  0.00000000000E+00 0. -1.
          1   -1    0    0  501    0 -0.00000000000E+00 -0.00000000000E+00 -0.10528364494E+04  0.10528364494E+04  0.00000000000E+00 0. -1.
         25    2    1    2    0    0 -0.12008304333E+02  0.14228176578E+03 -0.41299612048E+03  0.45450960501E+03  0.12499954109E+03 0.  0.
          2    1    1    2  501    0  0.24619682158E+02 -0.74129021650E+01 -0.61274292029E+03  0.61328212613E+03  0.00000000000E+00 0. -1.
          1    1    1    2  502    0 -0.12611377825E+02 -0.13486886361E+03  0.74950731427E+03  0.76164944125E+03  0.00000000000E+00 0. -1.
         22    1    3    3    0    0 -0.13884607059E+02  0.13168607256E+03 -0.19189827175E+03  0.23315006052E+03  0.00000000000E+00 0.  1.
         22    1    3    3    0    0  0.18763027264E+01  0.10595693222E+02 -0.22109784873E+03  0.22135954449E+03  0.00000000000E+00 0.  1.
</event>
<event>
 7    1  0.5970484E-006  0.3474605E+02  0.7818608E-02  0.1613563E+00
          2   -1    0    0  502    0  0.00000000000E+00  0.00000000000E+00  0.10566929537E+04  0.10566929537E+04  0.00000000000E+00 0. -1.
          1   -1    0    0  501    0 -0.00000000000E+00 -0.00000000000E+00 -0.61722198180E+03  0.61722198180E+03  0.00000000000E+00 0. -1.
         25    2    1    2    0    0  0.13264786341E+02  0.28073844842E+02  0.20253838815E+03  0.24002047347E+03  0.12499573469E+03 0.  0.
          2    1    1    2  501    0  0.97477315205E+01 -0.33378073056E+02 -0.59780872429E+03  0.59881915873E+03  0.00000000000E+00 0. -1.
          1    1    1    2  502    0 -0.23012517861E+02  0.53042282132E+01  0.83474130806E+03  0.83507530331E+03  0.00000000000E+00 0. -1.
         22    1    3    3    0    0  0.50604007076E+02  0.54618695742E+02  0.80444166269E+02  0.10961401071E+03  0.00000000000E+00 0. -1.
         22    1    3    3    0    0 -0.37339220735E+02 -0.26544850900E+02  0.12209422188E+03  0.13040646276E+03  0.00000000000E+00 0. -1.
</event>
<event>
 7    1  0.5970484E-006  0.1507620E+03  0.7818608E-02  0.1257676E+00
          2   -1    0    0  502    0  0.00000000000E+00  0.00000000000E+00  0.50299871953E+03  0.50299871953E+03  0.00000000000E+00 0. -1.
          1   -1    0    0  501    0 -0.00000000000E+00 -0.00000000000E+00 -0.10112940222E+04  0.10112940222E+04  0.00000000000E+00 0. -1.
         25    2    1    2    0    0  0.22498237465E+03 -0.21107626011E+02 -0.20505640790E+03  0.32975150897E+03  0.12500130585E+03 0.  0.
          2    1    1    2  501    0 -0.81573127033E+02 -0.12838452359E+02 -0.72917222466E+03  0.73383317868E+03  0.00000000000E+00 0. -1.
          1    1    1    2  502    0 -0.14340924762E+03  0.33946078370E+02  0.42593332987E+03  0.45070805410E+03  0.00000000000E+00 0. -1.
         22    1    3    3    0    0  0.15235951239E+02  0.12625910986E+02 -0.81764820180E+02  0.84125107176E+02  0.00000000000E+00 0. -1.
         22    1    3    3    0    0  0.20974642341E+03 -0.33733536997E+02 -0.12329158772E+03  0.24562640179E+03  0.00000000000E+00 0. -1.
</event>
<event>
 7    1  0.5970484E-006  0.1922451E+03  0.7818608E-02  0.1185509E+00
          2   -1    0    0  502    0  0.00000000000E+00  0.00000000000E+00  0.14415544665E+04  0.14415544665E+04  0.00000000000E+00 0. -1.
          1   -1    0    0  501    0 -0.00000000000E+00 -0.00000000000E+00 -0.89027116975E+03  0.89027116975E+03  0.00000000000E+00 0. -1.
         25    2    1    2    0    0 -0.11285360893E+01  0.18261670956E+03  0.46943027369E+03  0.51897984582E+03  0.12500064922E+03 0.  0.
          2    1    1    2  501    0 -0.13628910169E+03 -0.21405230563E+02 -0.84801023092E+03  0.85915903934E+03  0.00000000000E+00 0. -1.
          1    1    1    2  502    0  0.13741763778E+03 -0.16121147899E+03  0.92986325396E+03  0.95368675109E+03  0.00000000000E+00 0. -1.
         22    1    3    3    0    0 -0.53531821625E+02  0.88988781250E+02  0.30893727415E+03  0.32592468221E+03  0.00000000000E+00 0. -1.
         22    1    3    3    0    0  0.52403285536E+02  0.93627928307E+02  0.16049299953E+03  0.19305516360E+03  0.00000000000E+00 0. -1.
</event>
<event>
 7    1  0.5970484E-006  0.4713477E+02  0.7818608E-02  0.1584632E+00
          2   -1    0    0  502    0  0.00000000000E+00  0.00000000000E+00  0.19713900491E+04  0.19713900491E+04  0.00000000000E+00 0. -1.
          1   -1    0    0  501    0 -0.00000000000E+00 -0.00000000000E+00 -0.14280525236E+02  0.14280525236E+02  0.00000000000E+00 0. -1.
         25    2    1    2    0    0  0.37994855662E+02  0.68894611631E+01  0.85259098998E+03  0.86256928506E+03  0.12499320618E+03 0.  0.
          2    1    1    2  501    0  0.17871364168E+01  0.20646054250E+02  0.34957892255E+01  0.21016040421E+02  0.00000000000E+00 0. -1.
          1    1    1    2  502    0 -0.39781992079E+02 -0.27535515413E+02  0.11010227446E+04  0.11020852488E+04  0.00000000000E+00 0. -1.
         22    1    3    3    0    0 -0.25906501096E+02 -0.30375343417E+02  0.53455584678E+03  0.53604455189E+03  0.00000000000E+00 0. -1.
         22    1    3    3    0    0  0.63901356758E+02  0.37264804580E+02  0.31803514321E+03  0.32652473317E+03  0.00000000000E+00 0. -1.
</event>
<event>
 7    1  0.5970484E-006  0.3302863E+02  0.7818608E-02  0.1582474E+00
          2   -1    0    0  502    0  0.00000000000E+00  0.00000000000E+00  0.10009841450E+04  0.10009841450E+04  0.00000000000E+00 0. -1.
          1   -1    0    0  501    0 -0.00000000000E+00 -0.00000000000E+00 -0.72204293652E+03  0.72204293652E+03  0.00000000000E+00 0. -1.
         25    2    1    2    0    0 -0.28611802377E+02 -0.31746120566E+01  0.82311139710E+03  0.83304644828E+03  0.12500119827E+03 0.  0.
          2    1    1    2  501    0  0.89326788076E+01  0.31797759944E+02 -0.71494577124E+03  0.71570828282E+03  0.00000000000E+00 0. -1.
          1    1    1    2  502    0  0.19679123570E+02 -0.28623147887E+02  0.17077558261E+03  0.17427235040E+03  0.00000000000E+00 0. -1.
         22    1    3    3    0    0 -0.24567803649E+02 -0.43137402880E+02  0.13625657200E+03  0.14501815720E+03  0.00000000000E+00 0. -1.
         22    1    3    3    0    0 -0.40439987284E+01  0.39962790823E+02  0.68685482510E+03  0.68802829109E+03  0.00000000000E+00 0. -1.
</event>
<event>
 7    1  0.5970484E-006  0.1245878E+03  0.7818608E-02  0.1275752E+00
          2   -1    0    0  502    0  0.00000000000E+00  0.00000000000E+00  0.18840287595E+04  0.18840287595E+04  0.00000000000E+00 0. -1.
          1   -1    0    0  501    0 -0.00000000000E+00 -0.00000000000E+00 -0.15565331588E+03  0.15565331588E+03  0.00000000000E+00 0. -1.
         25    2    1    2    0    0 -0.81935435072E+01  0.14805896578E+02  0.14630755558E+01  0.12614568612E+03  0.12499697919E+03 0.  0.
          2    1    1    2  501    0  0.79943698514E+02 -0.11665894920E+03 -0.36236598707E+02  0.14599108345E+03  0.00000000000E+00 0. -1.
          1    1    1    2  502    0 -0.71750155007E+02  0.10185305263E+03  0.17631489667E+04  0.17675453058E+04  0.00000000000E+00 0. -1.
         22    1    3    3    0    0  0.11315259627E+02  0.49089129003E+02 -0.43339099105E+02  0.66453406218E+02  0.00000000000E+00 0. -1.
         22    1    3    3    0    0 -0.19508803134E+02 -0.34283232425E+02  0.44802174661E+02  0.59692279899E+02  0.00000000000E+00 0. -1.
</event>
<event>
 7    1  0.5970484E-006  0.3355478E+02  0.7818608E-02  0.1577207E+00
          2   -1    0    0  502    0  0.00000000000E+00  0.00000000000E+00  0.10364730809E+04  0.10364730809E+04  0.00000000000E+00 0. -1.
          1   -1    0    0  501    0 -0.00000000000E+00 -0.00000000000E+00 -0.64578360270E+02  0.64578360270E+02  0.00000000000E+00 0. -1.
         25    2    1    2    0    0  0.23172952586E+02  0.51791696047E+02  0.10817062352E+03  0.17480008997E+03  0.12503928243E+03 0.  0.
          2    1    1    2  501    0  0.24439154076E+01 -0.30375877097E+02 -0.23448128215E+02  0.38451025327E+02  0.00000000000E+00 0. -1.
          1    1    1    2  502    0 -0.25616867993E+02 -0.21415818951E+02  0.88717222537E+03  0.88780032592E+03  0.00000000000E+00 0. -1.
         22    1    3    3    0    0  0.20583784670E+02  0.89008351467E+02  0.45974663977E+02  0.10227340099E+03  0.00000000000E+00 0.  1.
         22    1    3    3    0    0  0.25891679154E+01 -0.37216655420E+02  0.62195959541E+02  0.72526688979E+02  0.00000000000E+00 0.  1.
</event>
<event>
 7    1  0.5970484E-006  0.7322849E+02  0.7818608E-02  0.1366115E+00
          2   -1    0    0  502    0  0.00000000000E+00  0.00000000000E+00  0.48366223606E+03  0.48366223606E+03  0.00000000000E+00 0. -1.
          1   -1    0    0  501    0 -0.00000000000E+00 -0.00000000000E+00 -0.20448102545E+04  0.20448102545E+04  0.00000000000E+00 0. -1.
         25    2    1    2    0    0 -0.13204246145E+03  0.34889159402E+02 -0.13983641513E+04  0.14105667516E+04  0.12499518388E+03 0.  0.
          2    1    1    2  501    0  0.62265373691E+02 -0.13092722574E+02 -0.63595045041E+03  0.63912547401E+03  0.00000000000E+00 0. -1.
          1    1    1    2  502    0  0.69777087760E+02 -0.21796436827E+02  0.47316658325E+03  0.47878026498E+03  0.00000000000E+00 0. -1.
         22    1    3    3    0    0 -0.14308969051E+02 -0.53382985426E+01 -0.14300834502E+02  0.20922664603E+02  0.00000000000E+00 0.  1.
         22    1    3    3    0    0 -0.11773349240E+03  0.40227457944E+02 -0.13840633168E+04  0.13896440870E+04  0.00000000000E+00 0.  1.
</event>
<event>
 7    1  0.5970484E-006  0.5209857E+02  0.7818608E-02  0.1492008E+00
          2   -1    0    0  502    0  0.00000000000E+00  0.00000000000E+00  0.92506527114E+03  0.92506527114E+03  0.00000000000E+00 0. -1.
          1   -1    0    0  501    0 -0.00000000000E+00 -0.00000000000E+00 -0.61322498131E+02  0.61322498131E+02  0.00000000000E+00 0. -1.
         25    2    1    2    0    0  0.13123358822E+02  0.44512964873E+02  0.58751975985E+02  0.14571052049E+03  0.12500453796E+03 0.  0.
          2    1    1    2  501    0 -0.34147769785E+02  0.35068395480E+01  0.34842099021E+00  0.34329134887E+02  0.00000000000E+00 0. -1.
          1    1    1    2  502    0  0.21024410964E+02 -0.48019804421E+02  0.80464237604E+03  0.80634811390E+03  0.00000000000E+00 0. -1.
         22    1    3    3    0    0 -0.53993609300E+02  0.26674749608E+02  0.44335446296E+02  0.74782911886E+02  0.00000000000E+00 0.  1.
         22    1    3    3    0    0  0.67116968121E+02  0.17838215266E+02  0.14416529688E+02  0.70927608602E+02  0.00000000000E+00 0.  1.
</event>
<event>
 7    1  0.5970484E-006  0.1271610E+03  0.7818608E-02  0.1397473E+00
          2   -1    0    0  502    0  0.00000000000E+00  0.00000000000E+00  0.29407206843E+04  0.29407206843E+04  0.00000000000E+00 0. -1.
          1   -1    0    0  501    0 -0.00000000000E+00 -0.00000000000E+00 -0.58913461032E+02  0.58913461032E+02  0.00000000000E+00 0. -1.
         25    2    1    2    0    0 -0.73038840903E+02 -0.83410520559E+02  0.45435330516E+03  0.48410524192E+03  0.12501588747E+03 0.  0.
          2    1    1    2  501    0  0.68528915991E+01 -0.27551995883E+02 -0.37586755246E+02  0.47104551482E+02  0.00000000000E+00 0. -1.
          1    1    1    2  502    0  0.66185949304E+02  0.11096251644E+03  0.24650406734E+04  0.24684243520E+04  0.00000000000E+00 0. -1.
         22    1    3    3    0    0  0.30639325491E+02 -0.17519341117E+02  0.47934511683E+02  0.59526573814E+02  0.00000000000E+00 0. -1.
         22    1    3    3    0    0 -0.10367816639E+03 -0.65891179442E+02  0.40641879348E+03  0.42457866811E+03  0.00000000000E+00 0. -1.
</event>
<event>
 7    1  0.5970484E-006  0.7970593E+02  0.7818608E-02  0.1354430E+00
          2   -1    0    0  502    0  0.00000000000E+00  0.00000000000E+00  0.33702517716E+03  0.33702517716E+03  0.00000000000E+00 0. -1.
          1   -1    0    0  501    0 -0.00000000000E+00 -0.00000000000E+00 -0.90775385133E+03  0.90775385133E+03  0.00000000000E+00 0. -1.
         25    2    1    2    0    0 -0.66632107694E+02  0.47404024296E+02 -0.96558022634E+02  0.17786371993E+03  0.12500028735E+03 0.  0.
          2    1    1    2  501    0  0.11066579494E+02 -0.80126852019E+02 -0.76487732130E+03  0.76914244340E+03  0.00000000000E+00 0. -1.
          1    1    1    2  502    0  0.55565528200E+02  0.32722827723E+02  0.29070666977E+03  0.29777286516E+03  0.00000000000E+00 0. -1.
         22    1    3    3    0    0 -0.70573964189E+02  0.85416616458E+02 -0.77043015302E+02  0.13495298809E+03  0.00000000000E+00 0. -1.
         22    1    3    3    0    0  0.39418564945E+01 -0.38012592162E+02 -0.19515007332E+02  0.42910731835E+02  0.00000000000E+00 0. -1.
</event>
<event>
 7    1  0.5970484E-006  0.6421576E+02  0.7818608E-02  0.1382758E+00
          2   -1    0    0  502    0  0.00000000000E+00  0.00000000000E+00  0.15685886658E+03  0.15685886658E+03  0.00000000000E+00 0. -1.
          1   -1    0    0  501    0 -0.00000000000E+00 -0.00000000000E+00 -0.86560878407E+03  0.86560878407E+03  0.00000000000E+00 0. -1.
         25    2    1    2    0    0 -0.14100806752E+02  0.67183986067E+01 -0.30971236222E+03  0.33435164378E+03  0.12500121900E+03 0.  0.
          2    1    1    2  501    0  0.69538590800E+02  0.25690173116E+02 -0.53375392120E+03  0.53887739701E+03  0.00000000000E+00 0. -1.
          1    1    1    2  502    0 -0.55437784048E+02 -0.32408571723E+02  0.13471636594E+03  0.14923860986E+03  0.00000000000E+00 0. -1.
         22    1    3    3    0    0  0.28560173207E+02  0.28751647088E+02 -0.26709348972E+03  0.27015046354E+03  0.00000000000E+00 0.  1.
         22    1    3    3    0    0 -0.42660979959E+02 -0.22033248481E+02 -0.42618872508E+02  0.64201180235E+02  0.00000000000E+00 0.  1.
</event>
<event>
 7    1  0.5970484E-006  0.1254202E+03  0.7818608E-02  0.1275318E+00
          2   -1    0    0  502    0  0.00000000000E+00  0.00000000000E+00  0.26156307603E+04  0.26156307603E+04  0.00000000000E+00 0. -1.
          1   -1    0    0  501    0 -0.00000000000E+00 -0.00000000000E+00 -0.25831499472E+03  0.25831499472E+03  0.00000000000E+00 0. -1.
         25    2    1    2    0    0  0.20442712715E+02  0.47030593502E+02  0.15297628995E+04  0.15357178612E+04  0.12500015713E+03 0.  0.
          2    1    1    2  501    0 -0.96872646939E+02 -0.80938362238E+02 -0.23799679281E+03  0.26940267555E+03  0.00000000000E+00 0. -1.
          1    1    1    2  502    0  0.76429934224E+02  0.33907768736E+02  0.10655496589E+04  0.10688252183E+04  0.00000000000E+00 0. -1.
         22    1    3    3    0    0  0.35469653760E+01  0.79272363115E+02  0.13486955945E+04  0.13510279402E+04  0.00000000000E+00 0. -1.
         22    1    3    3    0    0  0.16895747339E+02 -0.32241769613E+02  0.18106730503E+03  0.18468992104E+03  0.00000000000E+00 0. -1.
</event>
<event>
 7    1  0.5970484E-006  0.3698158E+02  0.7818608E-02  0.1562712E+00
          2   -1    0    0  502    0  0.00000000000E+00  0.00000000000E+00  0.86039158304E+03  0.86039158304E+03  0.00000000000E+00 0. -1.
          1   -1    0    0  501    0 -0.00000000000E+00 -0.00000000000E+00 -0.81552508797E+03  0.81552508797E+03  0.00000000000E+00 0. -1.
         25    2    1    2    0    0 -0.32745956396E+02  0.55689232086E+02  0.65694341929E+02  0.15528641276E+03  0.12499814077E+03 0.  0.
          2    1    1    2  501    0  0.10252986197E+02 -0.35425300001E+02 -0.76998197179E+03  0.77086465251E+03  0.00000000000E+00 0. -1.
          1    1    1    2  502    0  0.22492970199E+02 -0.20263932085E+02  0.74915412493E+03  0.74976560574E+03  0.00000000000E+00 0. -1.
         22    1    3    3    0    0  0.71685845045E+00  0.90125559166E+02  0.56568053816E+02  0.10640993851E+03  0.00000000000E+00 0. -1.
         22    1    3    3    0    0 -0.33462814846E+02 -0.34436327080E+02  0.91262881123E+01  0.48876474248E+02  0.00000000000E+00 0. -1.
</event>
<event>
 7    1  0.5970484E-006  0.6671023E+02  0.7818608E-02  0.1387141E+00
          2   -1    0    0  502    0  0.00000000000E+00  0.00000000000E+00  0.17115363629E+04  0.17115363629E+04  0.00000000000E+00 0. -1.
          1   -1    0    0  501    0 -0.00000000000E+00 -0.00000000000E+00 -0.22960585454E+02  0.22960585454E+02  0.00000000000E+00 0. -1.
         25    2    1    2    0    0  0.97103004769E+01  0.45081569517E+02  0.85905059583E+03  0.86932014035E+03  0.12499176919E+03 0.  0.
          2    1    1    2  501    0 -0.55258900089E+02  0.20058342708E+02  0.38732472097E+02  0.70399485409E+02  0.00000000000E+00 0. -1.
          1    1    1    2  502    0  0.45548599612E+02 -0.65139912225E+02  0.79079270948E+03  0.79477732256E+03  0.00000000000E+00 0. -1.
         22    1    3    3    0    0  0.26026883565E+01 -0.38076303163E+02  0.12937512218E+03  0.13488699377E+03  0.00000000000E+00 0. -1.
         22    1    3    3    0    0  0.71076121204E+01  0.83157872680E+02  0.72967547366E+03  0.73443314658E+03  0.00000000000E+00 0. -1.
</event>
<event>
 7    1  0.5970484E-006  0.8670259E+02  0.7818608E-02  0.1359878E+00
          2   -1    0    0  502    0  0.00000000000E+00  0.00000000000E+00  0.75161356217E+03  0.75161356217E+03  0.00000000000E+00 0. -1.
          1   -1    0    0  501    0 -0.00000000000E+00 -0.00000000000E+00 -0.25906198014E+03  0.25906198014E+03  0.00000000000E+00 0. -1.
         25    2    1    2    0    0  0.75761819953E+01  0.13917883607E+03  0.13770065335E+03  0.23241051356E+03  0.12500011974E+03 0.  0.
          2    1    1    2  501    0  0.57201061416E+01 -0.84145022984E+02 -0.20181408656E+03  0.21872821044E+03  0.00000000000E+00 0. -1.
          1    1    1    2  502    0 -0.13296288137E+02 -0.55033813082E+02  0.55666501524E+03  0.55953681832E+03  0.00000000000E+00 0. -1.
         22    1    3    3    0    0 -0.25998232396E+02  0.61263198293E+01  0.78576207231E+02  0.82991928675E+02  0.00000000000E+00 0.  1.
         22    1    3    3    0    0  0.33574414391E+02  0.13305251624E+03  0.59124446121E+02  0.14941858488E+03  0.00000000000E+00 0.  1.
</event>
<event>
 7    1  0.5970484E-006  0.7855069E+02  0.7818608E-02  0.1489370E+00
          2   -1    0    0  502    0  0.00000000000E+00  0.00000000000E+00  0.10892593205E+04  0.10892593205E+04  0.00000000000E+00 0. -1.
          1   -1    0    0  501    0 -0.00000000000E+00 -0.00000000000E+00 -0.11251899358E+04  0.11251899358E+04  0.00000000000E+00 0. -1.
         25    2    1    2    0    0 -0.56737417985E+02  0.57101574775E+00 -0.93125240858E+02  0.16588166852E+03  0.12499982724E+03 0.  0.
          2    1    1    2  501    0  0.79280151433E+02 -0.60093454168E+01 -0.99397118885E+03  0.99714601684E+03  0.00000000000E+00 0. -1.
          1    1    1    2  502    0 -0.22542733448E+02  0.54383296691E+01  0.10511658144E+04  0.10514215709E+04  0.00000000000E+00 0. -1.
         22    1    3    3    0    0 -0.45393387561E+01  0.53781505824E+02 -0.68863034193E+02  0.87493848031E+02  0.00000000000E+00 0. -1.
         22    1    3    3    0    0 -0.52198079229E+02 -0.53210490076E+02 -0.24262206665E+02  0.78387820493E+02  0.00000000000E+00 0. -1.
</event>
<event>
 7    1  0.5970484E-006  0.1639136E+03  0.7818608E-02  0.1291496E+00
          2   -1    0    0  502    0  0.00000000000E+00  0.00000000000E+00  0.68769076046E+03  0.68769076046E+03  0.00000000000E+00 0. -1.
          1   -1    0    0  501    0 -0.00000000000E+00 -0.00000000000E+00 -0.11639895042E+04  0.11639895042E+04  0.00000000000E+00 0. -1.
         25    2    1    2    0    0 -0.50818345847E+02 -0.20823706997E+03  0.98814500428E+01  0.24833137779E+03  0.12500259420E+03 0.  0.
          2    1    1    2  501    0  0.50690640067E+02  0.15334210217E+03 -0.10371509704E+04  0.10496501688E+04  0.00000000000E+00 0. -1.
          1    1    1    2  502    0  0.12770578029E+00  0.54894967802E+02  0.55097077661E+03  0.55369871815E+03  0.00000000000E+00 0. -1.
         22    1    3    3    0    0  0.26945972815E+02 -0.11864751750E+03 -0.25951298981E+02  0.12440574255E+03  0.00000000000E+00 0.  1.
         22    1    3    3    0    0 -0.77764318662E+02 -0.89589552472E+02  0.35832749024E+02  0.12392563525E+03  0.00000000000E+00 0.  1.
</event>
<event>
 7    1  0.5970484E-006  0.8089835E+02  0.7818608E-02  0.1348901E+00
          2   -1    0    0  502    0  0.00000000000E+00  0.00000000000E+00  0.27805279278E+03  0.27805279278E+03  0.00000000000E+00 0. -1.
          1   -1    0    0  501    0 -0.00000000000E+00 -0.00000000000E+00 -0.49301548828E+03  0.49301548828E+03  0.00000000000E+00 0. -1.
         25    2    1    2    0    0 -0.37042553823E+02  0.77652639655E+02 -0.23675423891E+03  0.28121162096E+03  0.12500129153E+03 0.  0.
          2    1    1    2  501    0  0.81427965010E+02 -0.28005206344E+02 -0.22148221836E+03  0.23763244332E+03  0.00000000000E+00 0. -1.
          1    1    1    2  502    0 -0.44385411187E+02 -0.49647433311E+02  0.24327376178E+03  0.25222421678E+03  0.00000000000E+00 0. -1.
         22    1    3    3    0    0 -0.65469354254E+02  0.70220886935E+02 -0.90168585920E+02  0.13171022434E+03  0.00000000000E+00 0. -1.
         22    1    3    3    0    0  0.28426800431E+02  0.74317527196E+01 -0.14658565299E+03  0.14950139662E+03  0.00000000000E+00 0. -1.
</event>
<event>
 7    1  0.5970484E-006  0.2720912E+02  0.7818608E-02  0.1665218E+00
          2   -1    0    0  502    0  0.00000000000E+00  0.00000000000E+00  0.68434528503E+03  0.68434528503E+03  0.00000000000E+00 0. -1.
          1   -1    0    0  501    0 -0.00000000000E+00 -0.00000000000E+00 -0.50183393725E+03  0.50183393725E+03  0.00000000000E+00 0. -1.
         25    2    1    2    0    0 -0.25683485435E+02  0.10549413565E+02  0.65347459260E+02  0.14375945063E+03  0.12500223063E+03 0.  0.
          2    1    1    2  501    0  0.11175121480E+01 -0.22410602853E+02 -0.46203464346E+03  0.46257917778E+03  0.00000000000E+00 0. -1.
          1    1    1    2  502    0  0.24565973287E+02  0.11861189287E+02  0.57919853198E+03  0.57984059387E+03  0.00000000000E+00 0. -1.
         22    1    3    3    0    0 -0.61138823060E+02  0.70951813388E+01 -0.81476232544E+01  0.62086077732E+02  0.00000000000E+00 0.  1.
         22    1    3    3    0    0  0.35455337625E+02  0.34542322266E+01  0.73495082514E+02  0.81673372896E+02  0.00000000000E+00 0.  1.
</event>
<event>
 7    1  0.5970484E-006  0.4398869E+02  0.7818608E-02  0.1561732E+00
          2   -1    0    0  502    0  0.00000000000E+00  0.00000000000E+00  0.46322975889E+02  0.46322975889E+02  0.00000000000E+00 0. -1.
          1   -1    0    0  501    0 -0.00000000000E+00 -0.00000000000E+00 -0.43123683028E+03  0.43123683028E+03  0.00000000000E+00 0. -1.
         25    2    1    2    0    0  0.26841665788E+02  0.51893155402E+02 -0.19138551507E+03  0.23593809343E+03  0.12499997581E+03 0.  0.
          2    1    1    2  501    0  0.65706888663E+01 -0.24753121421E+02 -0.19679256753E+03  0.19845202344E+03  0.00000000000E+00 0. -1.
          1    1    1    2  502    0 -0.33412354655E+02 -0.27140033981E+02  0.32642282140E+01  0.43169689296E+02  0.00000000000E+00 0. -1.
         22    1    3    3    0    0  0.56716544390E+02  0.64006173510E+02 -0.70513205719E+02  0.11084073635E+03  0.00000000000E+00 0. -1.
         22    1    3    3    0    0 -0.29874878602E+02 -0.12113018108E+02 -0.12087230936E+03  0.12509735708E+03  0.00000000000E+00 0. -1.
</event>
<event>
 7    1  0.5970484E-006  0.6752956E+02  0.7818608E-02  0.1483734E+00
          2   -1    0    0  502    0  0.00000000000E+00  0.00000000000E+00  0.11516901166E+04  0.11516901166E+04  0.00000000000E+00 0. -1.
          1   -1    0    0  501    0 -0.00000000000E+00 -0.00000000000E+00 -0.34088873824E+03  0.34088873824E+03  0.00000000000E+00 0. -1.
         25    2    1    2    0    0  0.28919049238E+02  0.83971558720E+02  0.54833955944E+03  0.56937470202E+03  0.12499497899E+03 0.  0.
          2    1    1    2  501    0 -0.64989095067E+01 -0.67099405076E+02 -0.32659474172E+03  0.33347967150E+03  0.00000000000E+00 0. -1.
          1    1    1    2  502    0 -0.22420139732E+02 -0.16872153644E+02  0.58905656068E+03  0.58972448136E+03  0.00000000000E+00 0. -1.
         22    1    3    3    0    0  0.46960156069E+02  0.10718158899E+03  0.35438216646E+03  0.37320218271E+03  0.00000000000E+00 0. -1.
         22    1    3    3    0    0 -0.18041106830E+02 -0.23210030268E+02  0.19395739298E+03  0.19617251931E+03  0.00000000000E+00 0. -1.
</event>
<event>
 7    1  0.5970484E-006  0.4603339E+02  0.7818608E-02  0.1519958E+00
          2   -1    0    0  502    0  0.00000000000E+00  0.00000000000E+00  0.43997533267E+03  0.43997533267E+03  0.00000000000E+00 0. -1.
          1   -1    0    0  501    0 -0.00000000000E+00 -0.00000000000E+00 -0.46821026583E+02  0.46821026583E+02  0.00000000000E+00 0. -1.
         25    2    1    2    0    0 -0.33246038908E+02 -0.12285674214E+01  0.30638990805E+03  0.33257700366E+03  0.12500351647E+03 0.  0.
          2    1    1    2  501    0 -0.11715791808E+02 -0.29897933404E+02 -0.17436994391E+02  0.36540319825E+02  0.00000000000E+00 0. -1.
          1    1    1    2  502    0  0.44961830716E+02  0.31126500825E+02  0.10420139243E+03  0.11767903577E+03  0.00000000000E+00 0. -1.
         22    1    3    3    0    0 -0.52151263146E+02 -0.44579110241E+02  0.24864535577E+03  0.25793713239E+03  0.00000000000E+00 0.  1.
         22    1    3    3    0    0  0.18905224238E+02  0.43350542819E+02  0.57744552277E+02  0.74639871274E+02  0.00000000000E+00 0.  1.
</event>
<event>
 7    1  0.5970484E-006  0.9865625E+02  0.7818608E-02  0.1368942E+00
          2   -1    0    0  502    0  0.00000000000E+00  0.00000000000E+00  0.63836556860E+02  0.63836556860E+02  0.00000000000E+00 0. -1.
          1   -1    0    0  501    0 -0.00000000000E+00 -0.00000000000E+00 -0.12542861620E+04  0.12542861620E+04  0.00000000000E+00 0. -1.
         25    2    1    2    0    0 -0.80455587242E+02  0.10412688452E+03 -0.35632483739E+03  0.39988463258E+03  0.12499928013E+03 0.  0.
          2    1    1    2  501    0  0.42647000338E+02 -0.17587476785E+02 -0.82169104818E+03  0.82298497231E+03  0.00000000000E+00 0. -1.
          1    1    1    2  502    0  0.37808586904E+02 -0.86539407734E+02 -0.12433719535E+02  0.95253113945E+02  0.00000000000E+00 0. -1.
         22    1    3    3    0    0 -0.15178866364E+00 -0.55255864933E+01 -0.16557407852E+03  0.16566632314E+03  0.00000000000E+00 0. -1.
         22    1    3    3    0    0 -0.80303798578E+02  0.10965247101E+03 -0.19075075887E+03  0.23421830944E+03  0.00000000000E+00 0. -1.
</event>
<event>
 7    1  0.5970484E-006  0.1176321E+03  0.7818608E-02  0.1251335E+00
          2   -1    0    0  502    0  0.00000000000E+00  0.00000000000E+00  0.63788306756E+03  0.63788306756E+03  0.00000000000E+00 0. -1.
          1   -1    0    0  501    0 -0.00000000000E+00 -0.00000000000E+00 -0.22313225484E+04  0.22313225484E+04  0.00000000000E+00 0. -1.
         25    2    1    2    0    0  0.95733539957E+02 -0.77101504703E+02  0.88532308372E+02  0.19640356215E+03  0.12500734739E+03 0.  0.
          2    1    1    2  501    0  0.93640914705E+01  0.11780087750E+03 -0.21693481647E+04  0.21725644278E+04  0.00000000000E+00 0. -1.
          1    1    1    2  502    0 -0.10509763143E+03 -0.40699372792E+02  0.48737637553E+03  0.50023762604E+03  0.00000000000E+00 0. -1.
         22    1    3    3    0    0  0.92467544543E+02 -0.69917544990E+02  0.11828612717E+03  0.16562100644E+03  0.00000000000E+00 0.  1.
         22    1    3    3    0    0  0.32659954133E+01 -0.71839597135E+01 -0.29753818801E+02  0.30782555716E+02  0.00000000000E+00 0.  1.
</event>
<event>
 7    1  0.5970484E-006  0.9764168E+02  0.7818608E-02  0.1333284E+00
          2   -1    0    0  502    0  0.00000000000E+00  0.00000000000E+00  0.19495623574E+04  0.19495623574E+04  0.00000000000E+00 0. -1.
          1   -1    0    0  501    0 -0.00000000000E+00 -0.00000000000E+00 -0.31442433044E+02  0.31442433044E+02  0.00000000000E+00 0. -1.
         25    2    1    2    0    0  0.62978515153E+02 -0.39215119616E+02  0.47081846932E+03  0.49274571583E+03  0.12499676171E+03 0.  0.
          2    1    1    2  501    0  0.40695470279E+02  0.48294386622E+02  0.35148445642E+02  0.72276429848E+02  0.00000000000E+00 0. -1.
          1    1    1    2  502    0 -0.10367398543E+03 -0.90792670065E+01  0.14121530094E+04  0.14159826448E+04  0.00000000000E+00 0. -1.
         22    1    3    3    0    0  0.34624664742E+02 -0.80063076270E+02  0.21288382425E+03  0.23006191823E+03  0.00000000000E+00 0.  1.
         22    1    3    3    0    0  0.28353850411E+02  0.40847956654E+02  0.25793464506E+03  0.26268379760E+03  0.00000000000E+00 0.  1.
</event>
<event>
 7    1  0.5970484E-006  0.8267530E+02  0.7818608E-02  0.1360627E+00
          2   -1    0    0  502    0  0.00000000000E+00  0.00000000000E+00  0.23526088587E+04  0.23526088587E+04  0.00000000000E+00 0. -1.
          1   -1    0    0  501    0 -0.00000000000E+00 -0.00000000000E+00 -0.10299911551E+03  0.10299911551E+03  0.00000000000E+00 0. -1.
         25    2    1    2    0    0 -0.25887877584E+02  0.65560655682E+01  0.19537278048E+03  0.23347111400E+03  0.12500029406E+03 0.  0.
          2    1    1    2  501    0 -0.58998624679E+02  0.70763465676E+00 -0.72623392511E+02  0.93570805279E+02  0.00000000000E+00 0. -1.
          1    1    1    2  502    0  0.84886502263E+02 -0.72637002250E+01  0.21268603552E+04  0.21285660549E+04  0.00000000000E+00 0. -1.
         22    1    3    3    0    0  0.97996346644E+01  0.22149445754E+02  0.19293505788E+03  0.19444939533E+03  0.00000000000E+00 0. -1.
         22    1    3    3    0    0 -0.35687512248E+02 -0.15593380186E+02  0.24377226044E+01  0.39021718665E+02  0.00000000000E+00 0. -1.
</event>
<event>
 7    1  0.5970484E-006  0.3174061E+02  0.7818608E-02  0.1623818E+00
          2   -1    0    0  502    0  0.00000000000E+00  0.00000000000E+00  0.32351345948E+03  0.32351345948E+03  0.00000000000E+00 0. -1.
          1   -1    0    0  501    0 -0.00000000000E+00 -0.00000000000E+00 -0.16812678685E+03  0.16812678685E+03  0.00000000000E+00 0. -1.
         25    2    1    2    0    0  0.58537983873E+01 -0.35805422225E+02  0.85670161895E+02  0.15582204670E+03  0.12499935353E+03 0.  0.
          2    1    1    2  501    0  0.18751262789E+02  0.15519627967E+02 -0.13066616431E+03  0.13291393909E+03  0.00000000000E+00 0. -1.
          1    1    1    2  502    0 -0.24605061177E+02  0.20285794258E+02  0.20038267505E+03  0.20290426054E+03  0.00000000000E+00 0. -1.
         22    1    3    3    0    0  0.50038434763E+02 -0.24790653249E+02  0.94185531821E+02  0.10949582570E+03  0.00000000000E+00 0.  1.
         22    1    3    3    0    0 -0.44184636376E+02 -0.11014768976E+02 -0.85153699262E+01  0.46326221001E+02  0.00000000000E+00 0.  1.
</event>
<event>
 7    1  0.5970484E-006  0.3793921E+02  0.7818608E-02  0.1583883E+00
          2   -1    0    0  502    0  0.00000000000E+00  0.00000000000E+00  0.14926227675E+04  0.14926227675E+04  0.00000000000E+00 0. -1.
          1   -1    0    0  501    0 -0.00000000000E+00 -0.00000000000E+00 -0.56935146399E+03  0.56935146399E+03  0.00000000000E+00 0. -1.
         25    2    1    2    0    0 -0.48462739276E+02  0.38747668515E+02 -0.16959925103E+03  0.21963274215E+03  0.12499846623E+03 0.  0.
          2    1    1    2  501    0  0.25429232698E+02 -0.26981553125E+02 -0.37370407830E+03  0.37553879723E+03  0.00000000000E+00 0. -1.
          1    1    1    2  502    0  0.23033506578E+02 -0.11766115390E+02  0.14665746328E+04  0.14668026921E+04  0.00000000000E+00 0. -1.
         22    1    3    3    0    0 -0.85704782054E+02  0.51726520434E+02 -0.12059766766E+03  0.15673142642E+03  0.00000000000E+00 0. -1.
         22    1    3    3    0    0  0.37242042779E+02 -0.12978851919E+02 -0.49001583368E+02  0.62901315725E+02  0.00000000000E+00 0. -1.
</event>
<event>
 7    1  0.5970484E-006  0.3168744E+03  0.7818608E-02  0.1282707E+00
          2   -1    0    0  502    0  0.00000000000E+00  0.00000000000E+00  0.56499845399E+03  0.56499845399E+03  0.00000000000E+00 0. -1.
          1   -1    0    0  501    0 -0.00000000000E+00 -0.00000000000E+00 -0.12229171051E+04  0.12229171051E+04  0.00000000000E+00 0. -1.
         25    2    1    2    0    0 -0.19229150949E+03  0.27074802486E+03 -0.17076537733E+02  0.35524227201E+03  0.12499978439E+03 0.  0.
          2    1    1    2  501    0  0.16145056213E+03 -0.27030461450E+03 -0.10121995299E+04  0.10600371489E+04  0.00000000000E+00 0. -1.
          1    1    1    2  502    0  0.30840947360E+02 -0.44341036258E+00  0.37135741656E+03  0.37263613818E+03  0.00000000000E+00 0. -1.
         22    1    3    3    0    0 -0.17690206703E+02  0.93247813256E+02  0.34477347575E+02  0.10097913441E+03  0.00000000000E+00 0.  1.
         22    1    3    3    0    0 -0.17460130278E+03  0.17750021161E+03 -0.51553885309E+02  0.25426313760E+03  0.00000000000E+00 0.  1.
</event>
<event>
 7    1  0.5970484E-006  0.1390420E+03  0.7818608E-02  0.1283118E+00
          2   -1    0    0  502    0  0.00000000000E+00  0.00000000000E+00  0.27778266021E+04  0.27778266021E+04  0.00000000000E+00 0. -1.
          1   -1    0    0  501    0 -0.00000000000E+00 -0.00000000000E+00 -0.21299522476E+02  0.21299522476E+02  0.00000000000E+00 0. -1.
         25    2    1    2    0    0 -0.13065981182E+03 -0.74660933998E+02  0.86732427056E+03  0.88911350986E+03  0.12500080650E+03 0.  0.
          2    1    1    2  501    0  0.13853656814E+03  0.50853533736E+01  0.49481349983E+03  0.51386636507E+03  0.00000000000E+00 0. -1.
          1    1    1    2  502    0 -0.78767563128E+01  0.69575580625E+02  0.13943893093E+04  0.13961462497E+04  0.00000000000E+00 0. -1.
         22    1    3    3    0    0 -0.10453303984E+03 -0.10472471396E+03  0.55999463323E+03  0.57921361464E+03  0.00000000000E+00 0.  1.
         22    1    3    3    0    0 -0.26126771980E+02  0.30063779962E+02  0.30732963732E+03  0.30989989522E+03  0.00000000000E+00 0.  1.
</event>
<event>
 7    1  0.5970484E-006  0.5365699E+02  0.7818608E-02  0.1513625E+00
          2   -1    0    0  502    0  0.00000000000E+00  0.00000000000E+00  0.36357265116E+03  0.36357265116E+03  0.00000000000E+00 0. -1.
          1   -1    0    0  501    0 -0.00000000000E+00 -0.00000000000E+00 -0.21446185078E+03  0.21446185078E+03  0.00000000000E+00 0. -1.
         25    2    1    2    0    0  0.81261098198E+01 -0.28578506791E+02 -0.45347126032E+02  0.13624740876E+03  0.12499691934E+03 0.  0.
          2    1    1    2  501    0 -0.26306347829E+02  0.50845329763E+02 -0.11634026334E+03  0.12966236296E+03  0.00000000000E+00 0. -1.
          1    1    1    2  502    0  0.18180238010E+02 -0.22266822972E+02  0.31079818975E+03  0.31212473022E+03  0.00000000000E+00 0. -1.
         22    1    3    3    0    0  0.39917943821E+02 -0.34501479235E+02 -0.75448826190E+02  0.92066930446E+02  0.00000000000E+00 0. -1.
         22    1    3    3    0    0 -0.31791834001E+02  0.59229724441E+01  0.30101700158E+02  0.44180478315E+02  0.00000000000E+00 0. -1.
</event>
<event>
 7    1  0.5970484E-006  0.5602696E+02  0.7818608E-02  0.1418215E+00
          2   -1    0    0  502    0  0.00000000000E+00  0.00000000000E+00  0.96814790477E+03  0.96814790477E+03  0.00000000000E+00 0. -1.
          1   -1    0    0  501    0 -0.00000000000E+00 -0.00000000000E+00 -0.87029607093E+02  0.87029607093E+02  0.00000000000E+00 0. -1.
         25    2    1    2    0    0  0.33311485350E+02  0.58861348153E+02  0.39215348833E+02  0.14743705859E+03  0.12500211718E+03 0.  0.
          2    1    1    2  501    0 -0.56417214194E+02 -0.78207265153E+01 -0.66466654421E+01  0.57343212172E+02  0.00000000000E+00 0. -1.
          1    1    1    2  502    0  0.23105728844E+02 -0.51040621638E+02  0.84854961429E+03  0.85039724110E+03  0.00000000000E+00 0. -1.
         22    1    3    3    0    0  0.27307149232E+02  0.96656320153E+02  0.13528527343E+02  0.10134666091E+03  0.00000000000E+00 0. -1.
         22    1    3    3    0    0  0.60043361185E+01 -0.37794972000E+02  0.25686821490E+02  0.46090397687E+02  0.00000000000E+00 0. -1.
</event>
<event>
 7    1  0.5970484E-006  0.8947655E+02  0.7818608E-02  0.1381755E+00
          2   -1    0    0  502    0  0.00000000000E+00  0.00000000000E+00  0.17458727480E+04  0.17458727480E+04  0.00000000000E+00 0. -1.
          1   -1    0    0  501    0 -0.00000000000E+00 -0.00000000000E+00 -0.32740802695E+02  0.32740802695E+02  0.00000000000E+00 0. -1.
         25    2    1    2    0    0 -0.15214523868E+01  0.13134585929E+03  0.27015550660E+03  0.32536638537E+03  0.12500094966E+03 0.  0.
          2    1    1    2  501    0  0.10678607505E+02 -0.44521389835E+02  0.13889281168E+03  0.14624431595E+03  0.00000000000E+00 0. -1.
          1    1    1    2  502    0 -0.91571551181E+01 -0.86824469458E+02  0.13040836270E+04  0.13070028493E+04  0.00000000000E+00 0. -1.
         22    1    3    3    0    0  0.56699014878E+02  0.80684836169E+02  0.11094916901E+03  0.14844035563E+03  0.00000000000E+00 0.  1.
         22    1    3    3    0    0 -0.58220467265E+02  0.50661023125E+02  0.15920633759E+03  0.17692602974E+03  0.00000000000E+00 0.  1.
</event>
<event>
 7    1  0.5970484E-006  0.8269855E+02  0.7818608E-02  0.1429905E+00
          2   -1    0    0  502    0  0.00000000000E+00  0.00000000000E+00  0.15966821339E+04  0.15966821339E+04  0.00000000000E+00 0. -1.
          1   -1    0    0  501    0 -0.00000000000E+00 -0.00000000000E+00 -0.78019080215E+02  0.78019080215E+02  0.00000000000E+00 0. -1.
         25    2    1    2    0    0 -0.32408664943E+02 -0.61040031313E+02  0.19909391183E+03  0.24503114637E+03  0.12500267987E+03 0.  0.
          2    1    1    2  501    0  0.65726774126E+02  0.54573254063E+02 -0.21562556023E+02  0.88108982052E+02  0.00000000000E+00 0. -1.
          1    1    1    2  502    0 -0.33318109183E+02  0.64667772497E+01  0.13411316979E+04  0.13415610857E+04  0.00000000000E+00 0. -1.
         22    1    3    3    0    0 -0.29633604130E+02 -0.44347540378E+02  0.21517508464E+03  0.22168710355E+03  0.00000000000E+00 0. -1.
         22    1    3    3    0    0 -0.27750608127E+01 -0.16692490935E+02 -0.16081172807E+02  0.23344042816E+02  0.00000000000E+00 0. -1.
</event>
<event>
 7    1  0.5970484E-006  0.9116704E+02  0.7818608E-02  0.1465500E+00
          2   -1    0    0  502    0  0.00000000000E+00  0.00000000000E+00  0.11615102193E+04  0.11615102193E+04  0.00000000000E+00 0. -1.
          1   -1    0    0  501    0 -0.00000000000E+00 -0.00000000000E+00 -0.43892636089E+03  0.43892636089E+03  0.00000000000E+00 0. -1.
         25    2    1    2    0    0 -0.41167816329E+02 -0.81732142925E+02  0.21684369233E+03  0.26649778780E+03  0.12499980685E+03 0.  0.
          2    1    1    2  501    0  0.60581803434E+02  0.68200890036E+02 -0.40892055477E+03  0.41897199956E+03  0.00000000000E+00 0. -1.
          1    1    1    2  502    0 -0.19413987105E+02  0.13531252889E+02  0.91466072084E+03  0.91496679281E+03  0.00000000000E+00 0. -1.
         22    1    3    3    0    0  0.36271622958E+02  0.65942353312E+01  0.42336689090E+02  0.56138309689E+02  0.00000000000E+00 0.  1.
         22    1    3    3    0    0 -0.77439439287E+02 -0.88326378256E+02  0.17450700324E+03  0.21035947811E+03  0.00000000000E+00 0.  1.
</event>
<event>
 7    1  0.5970484E-006  0.3687984E+02  0.7818608E-02  0.1610740E+00
          2   -1    0    0  502    0  0.00000000000E+00  0.00000000000E+00  0.32865051877E+03  0.32865051877E+03  0.00000000000E+00 0. -1.
          1   -1    0    0  501    0 -0.00000000000E+00 -0.00000000000E+00 -0.19567584540E+03  0.19567584540E+03  0.00000000000E+00 0. -1.
         25    2    1    2    0    0 -0.58155486606E+02 -0.21098140901E+01 -0.33465697956E+02  0.14188459984E+03  0.12499909917E+03 0.  0.
          2    1    1    2  501    0  0.35563338219E+02  0.33240196574E+01 -0.10456314069E+03  0.11049547738E+03  0.00000000000E+00 0. -1.
          1    1    1    2  502    0  0.22592148387E+02 -0.12142055673E+01  0.27100351202E+03  0.27194628696E+03  0.00000000000E+00 0. -1.
         22    1    3    3    0    0 -0.58939763214E+02 -0.10366319113E+02 -0.77026114702E+02  0.97541676250E+02  0.00000000000E+00 0.  1.
         22    1    3    3    0    0  0.78427660810E+00  0.82565050228E+01  0.43560416746E+02  0.44342923585E+02  0.00000000000E+00 0.  1.
</event>
<event>
 7    1  0.5970484E-006  0.8338041E+02  0.7818608E-02  0.1355037E+00
          2   -1    0    0  502    0  0.00000000000E+00  0.00000000000E+00  0.14188542380E+04  0.14188542380E+04  0.00000000000E+00 0. -1.
          1   -1    0    0  501    0 -0.00000000000E+00 -0.00000000000E+00 -0.25096568934E+02  0.25096568934E+02  0.00000000000E+00 0. -1.
         25    2    1    2    0    0 -0.34139999168E+02  0.26553164904E+02  0.10592834900E+04  0.10675100082E+04  0.12500198093E+03 0.  0.
          2    1    1    2  501    0  0.20444033058E+02 -0.86331523368E+02  0.98219572266E+02  0.13235624198E+03  0.00000000000E+00 0. -1.
          1    1    1    2  502    0  0.13695966110E+02  0.59778358463E+02  0.23625460675E+03  0.24408455674E+03  0.00000000000E+00 0. -1.
         22    1    3    3    0    0 -0.43109715768E+02 -0.19379177519E+02  0.90621825800E+03  0.90745001584E+03  0.00000000000E+00 0. -1.
         22    1    3    3    0    0  0.89697165994E+01  0.45932342424E+02  0.15306523202E+03  0.16005999235E+03  0.00000000000E+00 0. -1.
</event>
<event>
 7    1  0.5970484E-006  0.4583087E+02  0.7818608E-02  0.1476158E+00
          2   -1    0    0  502    0  0.00000000000E+00  0.00000000000E+00  0.24549880344E+04  0.24549880344E+04  0.00000000000E+00 0. -1.
          1   -1    0    0  501    0 -0.00000000000E+00 -0.00000000000E+00 -0.23255766027E+03  0.23255766027E+03  0.00000000000E+00 0. -1.
         25    2    1    2    0    0 -0.93691199781E+01  0.31569571468E+02  0.47353409096E+03  0.49086065875E+03  0.12500093100E+03 0.  0.
          2    1    1    2  501    0  0.43615871606E+02  0.35878981333E+00 -0.22148932504E+03  0.22574320387E+03  0.00000000000E+00 0. -1.
          1    1    1    2  502    0 -0.34246751628E+02 -0.31928361281E+02  0.19703856082E+04  0.19709418320E+04  0.00000000000E+00 0. -1.
         22    1    3    3    0    0  0.35330887414E+01  0.14763962804E+01 -0.76547811043E+01  0.85590966688E+01  0.00000000000E+00 0.  1.
         22    1    3    3    0    0 -0.12902208720E+02  0.30093175187E+02  0.48118887207E+03  0.48230156208E+03  0.00000000000E+00 0.  1.
</event>
<event>
 7    1  0.5970484E-006  0.1313961E+03  0.7818608E-02  0.1308646E+00
          2   -1    0    0  502    0  0.00000000000E+00  0.00000000000E+00  0.13074497265E+04  0.13074497265E+04  0.00000000000E+00 0. -1.
          1   -1    0    0  501    0 -0.00000000000E+00 -0.00000000000E+00 -0.25654765983E+03  0.25654765983E+03  0.00000000000E+00 0. -1.
         25    2    1    2    0    0  0.80611491492E+01 -0.14469277869E+03  0.45233422075E+03  0.49115370856E+03  0.12499894335E+03 0.  0.
          2    1    1    2  501    0  0.46206520117E+02  0.12293353006E+03 -0.21782873643E+03  0.25435615528E+03  0.00000000000E+00 0. -1.
          1    1    1    2  502    0 -0.54267669266E+02  0.21759248628E+02  0.81639658236E+03  0.81848752251E+03  0.00000000000E+00 0. -1.
         22    1    3    3    0    0  0.32745818556E+02 -0.13934355460E+01  0.29794871519E+02  0.44294070307E+02  0.00000000000E+00 0. -1.
         22    1    3    3    0    0 -0.24684669406E+02 -0.14329934314E+03  0.42253934923E+03  0.44685963825E+03  0.00000000000E+00 0. -1.
</event>
<event>
 7    1  0.5970484E-006  0.1722319E+03  0.7818608E-02  0.1356557E+00
          2   -1    0    0  502    0  0.00000000000E+00  0.00000000000E+00  0.24872415400E+04  0.24872415400E+04  0.00000000000E+00 0. -1.
          1   -1    0    0  501    0 -0.00000000000E+00 -0.00000000000E+00 -0.92978261933E+03  0.92978261933E+03  0.00000000000E+00 0. -1.
         25    2    1    2    0    0 -0.44846076999E+02  0.16084747800E+03  0.35504511537E+03  0.41178281836E+03  0.12499989499E+03 0.  0.
          2    1    1    2  501    0  0.27007409398E+02  0.11388241260E+02 -0.89761120091E+03  0.89808961702E+03  0.00000000000E+00 0. -1.
          1    1    1    2  502    0  0.17838667601E+02 -0.17223571926E+03  0.21000250062E+04  0.21071517239E+04  0.00000000000E+00 0. -1.
         22    1    3    3    0    0  0.16381723172E+02  0.41387382944E+02  0.16287256721E+02  0.47397795862E+02  0.00000000000E+00 0. -1.
         22    1    3    3    0    0 -0.61227800171E+02  0.11946009506E+03  0.33875785865E+03  0.36438502250E+03  0.00000000000E+00 0. -1.
</event>
<event>
 7    1  0.5970484E-006  0.2188097E+03  0.7818608E-02  0.1305308E+00
          2   -1    0    0  502    0  0.00000000000E+00  0.00000000000E+00  0.10566754973E+04  0.10566754973E+04  0.00000000000E+00 0. -1.
          1   -1    0    0  501    0 -0.00000000000E+00 -0.00000000000E+00 -0.75474866909E+03  0.75474866909E+03  0.00000000000E+00 0. -1.
         25    2    1    2    0    0  0.15162474470E+03 -0.13244956690E+03 -0.54999159573E+03  0.59887316478E+03  0.12500144459E+03 0.  0.
          2    1    1    2  501    0 -0.99275683059E+01 -0.34806995715E+02 -0.16671434767E+03  0.17059823352E+03  0.00000000000E+00 0. -1.
          1    1    1    2  502    0 -0.14169717640E+03  0.16725656262E+03  0.10186327716E+04  0.10419527681E+04  0.00000000000E+00 0. -1.
         22    1    3    3    0    0  0.92111495262E+02 -0.12951073835E+03 -0.48649981680E+03  0.51180038164E+03  0.00000000000E+00 0. -1.
         22    1    3    3    0    0  0.59513249440E+02 -0.29388285512E+01 -0.63491778929E+02  0.87072783140E+02  0.00000000000E+00 0. -1.
</event>
<event>
 7    1  0.5970484E-006  0.8030559E+02  0.7818608E-02  0.1457236E+00
          2   -1    0    0  502    0  0.00000000000E+00  0.00000000000E+00  0.10896780099E+04  0.10896780099E+04  0.00000000000E+00 0. -1.
          1   -1    0    0  501    0 -0.00000000000E+00 -0.00000000000E+00 -0.46693807222E+03  0.46693807222E+03  0.00000000000E+00 0. -1.
         25    2    1    2    0    0  0.54666721215E+02  0.71937473399E+01  0.15311990891E+03  0.20520877589E+03  0.12499893915E+03 0.  0.
          2    1    1    2  501    0 -0.76837816182E+02 -0.25139292253E+02 -0.43696131987E+03  0.44437734987E+03  0.00000000000E+00 0. -1.
          1    1    1    2  502    0  0.22171094967E+02  0.17945544914E+02  0.90658134867E+03  0.90702995639E+03  0.00000000000E+00 0. -1.
         22    1    3    3    0    0  0.73559891060E+02  0.11392292589E+02  0.29477893083E+02  0.80061152151E+02  0.00000000000E+00 0.  1.
         22    1    3    3    0    0 -0.18893169845E+02 -0.41985452488E+01  0.12364201583E+03  0.12514762374E+03  0.00000000000E+00 0.  1.
</event>
<event>
 7    1  0.5970484E-006  0.4675405E+02  0.7818608E-02  0.1504490E+00
          2   -1    0    0  502    0  0.00000000000E+00  0.00000000000E+00  0.24012405952E+04  0.24012405952E+04  0.00000000000E+00 0. -1.
          1   -1    0    0  501    0 -0.00000000000E+00 -0.00000000000E+00 -0.23923167618E+03  0.23923167618E+03  0.00000000000E+00 0. -1.
         25    2    1    2    0    0  0.11999846640E+02  0.96640684767E+00 -0.16838261364E+02  0.12669739582E+03  0.12499509110E+03 0.  0.
          2    1    1    2  501    0  0.34619166078E+02 -0.57911093399E+01 -0.16538780005E+03  0.16907142873E+03  0.00000000000E+00 0. -1.
          1    1    1    2  502    0 -0.46619012718E+02  0.48247024922E+01  0.23442349805E+04  0.23447034469E+04  0.00000000000E+00 0. -1.
         22    1    3    3    0    0  0.17916269096E+02 -0.58633065453E+02 -0.25079678487E+02  0.66240616964E+02  0.00000000000E+00 0.  1.
         22    1    3    3    0    0 -0.59164224562E+01  0.59599472301E+02  0.82414171229E+01  0.60456778854E+02  0.00000000000E+00 0.  1.
</event>
<event>
 7    1  0.5970484E-006  0.4989750E+02  0.7818608E-02  0.1478507E+00
          2   -1    0    0  502    0  0.00000000000E+00  0.00000000000E+00  0.23090053982E+03  0.23090053982E+03  0.00000000000E+00 0. -1.
          1   -1    0    0  501    0 -0.00000000000E+00 -0.00000000000E+00 -0.83687494742E+03  0.83687494742E+03  0.00000000000E+00 0. -1.
         25    2    1    2    0    0 -0.38792991810E+02  0.54464026888E+01 -0.31092223314E+03  0.33739008295E+03  0.12499949400E+03 0.  0.
          2    1    1    2  501    0  0.28819326949E+02 -0.43564000283E+02 -0.50958973668E+03  0.51225977341E+03  0.00000000000E+00 0. -1.
          1    1    1    2  502    0  0.99736648605E+01  0.38117597594E+02  0.21453756223E+03  0.21812563087E+03  0.00000000000E+00 0. -1.
         22    1    3    3    0    0 -0.58285065687E+02 -0.85756763940E+01 -0.30755134149E+03  0.31314296856E+03  0.00000000000E+00 0.  1.
         22    1    3    3    0    0  0.19492073877E+02  0.14022079083E+02 -0.33708916505E+01  0.24247114392E+02  0.00000000000E+00 0.  1.
</event>
<event>
 7    1  0.5970484E-006  0.1353693E+03  0.7818608E-02  0.1230446E+00
          2   -1    0    0  502    0  0.00000000000E+00  0.00000000000E+00  0.63984442439E+03  0.63984442439E+03  0.00000000000E+00 0. -1.
          1   -1    0    0  501    0 -0.00000000000E+00 -0.00000000000E+00 -0.72404749084E+03  0.72404749084E+03  0.00000000000E+00 0. -1.
         25    2    1    2    0    0  0.16875753470E+02  0.92294532759E+02 -0.20328926586E+03  0.25642767077E+03  0.12500221153E+03 0.  0.
          2    1    1    2  501    0 -0.12103571526E+03 -0.12478305129E+01 -0.47875799969E+03  0.49382225923E+03  0.00000000000E+00 0. -1.
          1    1    1    2  502    0  0.10415996179E+03 -0.91046702247E+02  0.59784419911E+03  0.61364198523E+03  0.00000000000E+00 0. -1.
         22    1    3    3    0    0 -0.69091837716E+01 -0.30028813412E+02 -0.30183144752E+02  0.43133382460E+02  0.00000000000E+00 0. -1.
         22    1    3    3    0    0  0.23784937242E+02  0.12232334617E+03 -0.17310612111E+03  0.21329428831E+03  0.00000000000E+00 0. -1.
</event>
<event>
 7    1  0.5970484E-006  0.9436583E+02  0.7818608E-02  0.1384137E+00
          2   -1    0    0  502    0  0.00000000000E+00  0.00000000000E+00  0.11652215623E+04  0.11652215623E+04  0.00000000000E+00 0. -1.
          1   -1    0    0  501    0 -0.00000000000E+00 -0.00000000000E+00 -0.59252413893E+02  0.59252413893E+02  0.00000000000E+00 0. -1.
         25    2    1    2    0    0 -0.16965036901E+02 -0.54798852595E+02  0.14804650903E+03  0.20207353687E+03  0.12500087498E+03 0.  0.
          2    1    1    2  501    0 -0.28065905938E+02 -0.32021803590E+02 -0.14568413091E+02  0.45003662532E+02  0.00000000000E+00 0. -1.
          1    1    1    2  502    0  0.45030942839E+02  0.86820656185E+02  0.97249105251E+03  0.97739677683E+03  0.00000000000E+00 0. -1.
         22    1    3    3    0    0 -0.44707883329E+01 -0.48298930718E+02 -0.46510162992E+01  0.48727883285E+02  0.00000000000E+00 0.  1.
         22    1    3    3    0    0 -0.12494248568E+02 -0.64999218772E+01  0.15269752533E+03  0.15334565359E+03  0.00000000000E+00 0.  1.
</event>
<event>
 7    1  0.5970484E-006  0.4564834E+02  0.7818608E-02  0.1470859E+00
          2   -1    0    0  502    0  0.00000000000E+00  0.00000000000E+00  0.25590767893E+04  0.25590767893E+04  0.00000000000E+00 0. -1.
          1   -1    0    0  501    0 -0.00000000000E+00 -0.00000000000E+00 -0.99785144482E+02  0.99785144482E+02  0.00000000000E+00 0. -1.
         25    2    1    2    0    0  0.35166174780E+00  0.48553253210E+01  0.36241227926E+03  0.38339398549E+03  0.12499836039E+03 0.  0.
          2    1    1    2  501    0 -0.43767671456E+02  0.12351675197E+02 -0.83237625422E+02  0.94850805114E+02  0.00000000000E+00 0. -1.
          1    1    1    2  502    0  0.43416009708E+02 -0.17207000518E+02  0.21801169909E+04  0.21806171431E+04  0.00000000000E+00 0. -1.
         22    1    3    3    0    0  0.48994995897E+02  0.22330895078E+02  0.80927685640E+02  0.97203234519E+02  0.00000000000E+00 0.  1.
         22    1    3    3    0    0 -0.48643334150E+02 -0.17475569757E+02  0.28148459362E+03  0.28619075097E+03  0.00000000000E+00 0.  1.
</event>
<event>
 7    1  0.5970484E-006  0.1627615E+03  0.7818608E-02  0.1212265E+00
          2   -1    0    0  502    0  0.00000000000E+00  0.00000000000E+00  0.15703706429E+04  0.15703706429E+04  0.00000000000E+00 0. -1.
          1   -1    0    0  501    0 -0.00000000000E+00 -0.00000000000E+00 -0.49539646924E+03  0.49539646924E+03  0.00000000000E+00 0. -1.
         25    2    1    2    0    0  0.12341866034E+03  0.19008275245E+03  0.33331744630E+03  0.42200529404E+03  0.12499731876E+03 0.  0.
          2    1    1    2  501    0  0.18836503677E+02 -0.12032592705E+03 -0.43743479074E+03  0.45407305441E+03  0.00000000000E+00 0. -1.
          1    1    1    2  502    0 -0.14225516402E+03 -0.69756825399E+02  0.11790915181E+04  0.11896887637E+04  0.00000000000E+00 0. -1.
         22    1    3    3    0    0  0.76814188084E+02  0.32408970171E+02  0.58814522258E+02  0.10202896092E+03  0.00000000000E+00 0.  1.
         22    1    3    3    0    0  0.46604472256E+02  0.15767378228E+03  0.27450292404E+03  0.31997633312E+03  0.00000000000E+00 0.  1.
</event>
<event>
 7    1  0.5970484E-006  0.1023958E+03  0.7818608E-02  0.1288647E+00
          2   -1    0    0  502    0  0.00000000000E+00  0.00000000000E+00  0.11437208793E+04  0.11437208793E+04  0.00000000000E+00 0. -1.
          1   -1    0    0  501    0 -0.00000000000E+00 -0.00000000000E+00 -0.67736288163E+03  0.67736288163E+03  0.00000000000E+00 0. -1.
         25    2    1    2    0    0  0.13617847865E+02  0.97936533411E+02  0.29461221571E+02  0.16206691833E+03  0.12498284715E+03 0.  0.
          2    1    1    2  501    0  0.77058622407E+02 -0.46981146166E+02 -0.60512425774E+03  0.61181747824E+03  0.00000000000E+00 0. -1.
          1    1    1    2  502    0 -0.90676470272E+02 -0.50955387245E+02  0.10420210338E+04  0.10471993643E+04  0.00000000000E+00 0. -1.
         22    1    3    3    0    0  0.15272769649E+02 -0.47348257674E+01 -0.36618690731E+02  0.39957534692E+02  0.00000000000E+00 0. -1.
         22    1    3    3    0    0 -0.16549217839E+01  0.10267135918E+03  0.66079912302E+02  0.12210938363E+03  0.00000000000E+00 0. -1.
</event>
<event>
 7    1  0.5970484E-006  0.5890631E+02  0.7818608E-02  0.1547017E+00
          2   -1    0    0  502    0  0.00000000000E+00  0.00000000000E+00  0.18786953283E+04  0.18786953283E+04  0.00000000000E+00 0. -1.
          1   -1    0    0  501    0 -0.00000000000E+00 -0.00000000000E+00 -0.59951715087E+02  0.59951715087E+02  0.00000000000E+00 0. -1.
         25    2    1    2    0    0  0.22494542629E+02  0.37528559096E+02  0.46103490058E+03  0.47967867940E+03  0.12499623485E+03 0.  0.
          2    1    1    2  501    0 -0.43226317725E+02 -0.40929884518E+02 -0.33024593898E+02  0.68076382049E+02  0.00000000000E+00 0. -1.
          1    1    1    2  502    0  0.20731775096E+02  0.34013254219E+01  0.13907333066E+04  0.13908919820E+04  0.00000000000E+00 0. -1.
         22    1    3    3    0    0  0.41525082910E+02 -0.29269559717E+02  0.10159397663E+03  0.11358862498E+03  0.00000000000E+00 0.  1.
         22    1    3    3    0    0 -0.19030540281E+02  0.66798118813E+02  0.35944092395E+03  0.36609005443E+03  0.00000000000E+00 0.  1.
</event>
<event>
 7    1  0.5970484E-006  0.5585034E+02  0.7818608E-02  0.1468741E+00
          2   -1    0    0  502    0  0.00000000000E+00  0.00000000000E+00  0.16249921869E+03  0.16249921869E+03  0.00000000000E+00 0. -1.
          1   -1    0    0  501    0 -0.00000000000E+00 -0.00000000000E+00 -0.33566763562E+03  0.33566763562E+03  0.00000000000E+00 0. -1.
         25    2    1    2    0    0 -0.79724175129E+02  0.17076200200E+02 -0.11263938850E+03  0.18697836507E+03  0.12500294576E+03 0.  0.
          2    1    1    2  501    0  0.34761940401E+02  0.14689899584E+02 -0.17773507309E+03  0.18169739089E+03  0.00000000000E+00 0. -1.
          1    1    1    2  502    0  0.44962234729E+02 -0.31766099783E+02  0.11720604466E+03  0.12949109835E+03  0.00000000000E+00 0. -1.
         22    1    3    3    0    0 -0.10673691391E+03 -0.13910908334E+02 -0.88150212059E+02  0.13912850912E+03  0.00000000000E+00 0. -1.
         22    1    3    3    0    0  0.27012738785E+02  0.30987108533E+02 -0.24489176442E+02  0.47849855953E+02  0.00000000000E+00 0. -1.
</event>
<event>
 7    1  0.5970484E-006  0.1044335E+03  0.7818608E-02  0.1340878E+00
          2   -1    0    0  502    0  0.00000000000E+00  0.00000000000E+00  0.72496858586E+02  0.72496858586E+02  0.00000000000E+00 0. -1.
          1   -1    0    0  501    0 -0.00000000000E+00 -0.00000000000E+00 -0.11926269938E+04  0.11926269938E+04  0.00000000000E+00 0. -1.
         25    2    1    2    0    0 -0.45818079920E+02 -0.66827781614E+02 -0.56504638194E+03  0.58434982956E+03  0.12498824234E+03 0.  0.
          2    1    1    2  501    0  0.38063710004E+02 -0.40076496114E+02 -0.56989620306E+03  0.57257021737E+03  0.00000000000E+00 0. -1.
          1    1    1    2  502    0  0.77543699160E+01  0.10690427773E+03  0.14812449770E+02  0.10820380547E+03  0.00000000000E+00 0. -1.
         22    1    3    3    0    0 -0.11938131283E+02 -0.87508161451E+02 -0.22058118237E+03  0.23760525102E+03  0.00000000000E+00 0. -1.
         22    1    3    3    0    0 -0.33879948637E+02  0.20680379836E+02 -0.34446519957E+03  0.34674457854E+03  0.00000000000E+00 0. -1.
</event>
<event>
 7    1  0.5970484E-006  0.8134825E+02  0.7818608E-02  0.1343954E+00
          2   -1    0    0  502    0  0.00000000000E+00  0.00000000000E+00  0.17824653878E+03  0.17824653878E+03  0.00000000000E+00 0. -1.
          1   -1    0    0  501    0 -0.00000000000E+00 -0.00000000000E+00 -0.33999833167E+03  0.33999833167E+03  0.00000000000E+00 0. -1.
         25    2    1    2    0    0  0.57265058397E+02  0.38503554220E+02  0.15666536437E+02  0.14363940644E+03  0.12500011247E+03 0.  0.
          2    1    1    2  501    0 -0.80253888604E+02  0.26657764962E+02 -0.25621131267E+03  0.26980652291E+03  0.00000000000E+00 0. -1.
          1    1    1    2  502    0  0.22988830208E+02 -0.65161319182E+02  0.78792983337E+02  0.10479894110E+03  0.00000000000E+00 0. -1.
         22    1    3    3    0    0  0.80312387984E+01  0.23119534826E+02  0.66718348194E+02  0.71065826337E+02  0.00000000000E+00 0. -1.
         22    1    3    3    0    0  0.49233819598E+02  0.15384019394E+02 -0.51051811757E+02  0.72573580101E+02  0.00000000000E+00 0. -1.
</event>
<event>
 7    1  0.5970484E-006  0.1672960E+03  0.7818608E-02  0.1241618E+00
          2   -1    0    0  502    0  0.00000000000E+00  0.00000000000E+00  0.41583217462E+03  0.41583217462E+03  0.00000000000E+00 0. -1.
          1   -1    0    0  501    0 -0.00000000000E+00 -0.00000000000E+00 -0.48273724486E+03  0.48273724486E+03  0.00000000000E+00 0. -1.
         25    2    1    2    0    0 -0.21238285029E+02 -0.19425105008E+03  0.89253974391E+02  0.24854406852E+03  0.12499338721E+03 0.  0.
          2    1    1    2  501    0 -0.66123035372E+02  0.57111172939E+02 -0.37068338683E+03  0.38084132543E+03  0.00000000000E+00 0. -1.
          1    1    1    2  502    0  0.87361320401E+02  0.13713987714E+03  0.21452434220E+03  0.26918402553E+03  0.00000000000E+00 0. -1.
         22    1    3    3    0    0 -0.18416047847E+02 -0.21163290542E+03  0.73130105343E+02  0.22466786549E+03  0.00000000000E+00 0.  1.
         22    1    3    3    0    0 -0.28222371818E+01  0.17381855348E+02  0.16123869047E+02  0.23876203029E+02  0.00000000000E+00 0.  1.
</event>
<event>
 7    1  0.6181289E-006  0.7657501E+02  0.7818608E-02  0.1348936E+00
          2   -1    0    0  502    0  0.00000000000E+00  0.00000000000E+00  0.79877151030E+03  0.79877151030E+03  0.00000000000E+00 0. -1.
          1   -1    0    0  501    0 -0.00000000000E+00 -0.00000000000E+00 -0.11245632177E+04  0.11245632177E+04  0.00000000000E+00 0. -1.
         25    2    1    2    0    0  0.43434910626E+02 -0.56758743959E+02 -0.11148005624E+03  0.18210040764E+03  0.12499843618E+03 0.  0.
          2    1    1    2  501    0 -0.78018631887E+02 -0.44857953610E+01 -0.97458569877E+03  0.97771381985E+03  0.00000000000E+00 0. -1.
          1    1    1    2  502    0  0.34583721261E+02  0.61244539320E+02  0.76027404756E+03  0.76352050055E+03  0.00000000000E+00 0. -1.
         22    1    3    3    0    0 -0.72294518932E+00 -0.83413935144E+02 -0.98183694223E+02  0.12883495270E+03  0.00000000000E+00 0.  1.
         22    1    3    3    0    0  0.44157855816E+02  0.26655191185E+02 -0.13296362014E+02  0.53265454942E+02  0.00000000000E+00 0.  1.
</event>
<event>
 7    1  0.5970484E-006  0.1446323E+03  0.7818608E-02  0.1388169E+00
          2   -1    0    0  502    0  0.00000000000E+00  0.00000000000E+00  0.20834498941E+04  0.20834498941E+04  0.00000000000E+00 0. -1.
          1   -1    0    0  501    0 -0.00000000000E+00 -0.00000000000E+00 -0.12833436811E+03  0.12833436811E+03  0.00000000000E+00 0. -1.
         25    2    1    2    0    0 -0.70571464801E+02 -0.12476278609E+03  0.36778703847E+03  0.41405348090E+03  0.12500757953E+03 0.  0.
          2    1    1    2  501    0  0.46795606086E+02  0.13732616826E+03 -0.55019499031E+02  0.15516265823E+03  0.00000000000E+00 0. -1.
          1    1    1    2  502    0  0.23775858715E+02 -0.12563382163E+02  0.16423479865E+04  0.16425681231E+04  0.00000000000E+00 0. -1.
         22    1    3    3    0    0 -0.39896846552E+02 -0.66117936755E+02  0.56181541178E+02  0.95497149144E+02  0.00000000000E+00 0.  1.
         22    1    3    3    0    0 -0.30674618249E+02 -0.58644849339E+02  0.31160549729E+03  0.31855633176E+03  0.00000000000E+00 0.  1.
</event>
<event>
 7    1  0.5970484E-006  0.6265739E+02  0.7818608E-02  0.1512558E+00
          2   -1    0    0  502    0  0.00000000000E+00  0.00000000000E+00  0.64048464212E+03  0.64048464212E+03  0.00000000000E+00 0. -1.
          1   -1    0    0  501    0 -0.00000000000E+00 -0.00000000000E+00 -0.26295568995E+03  0.26295568995E+03  0.00000000000E+00 0. -1.
         25    2    1    2    0    0  0.11647067817E+02  0.72644299901E+02  0.45235020126E+01  0.14511562645E+03  0.12500093789E+03 0.  0.
          2    1    1    2  501    0 -0.29036528222E+02 -0.54969915178E+02 -0.18736326499E+03  0.19740771164E+03  0.00000000000E+00 0. -1.
          1    1    1    2  502    0  0.17389460406E+02 -0.17674384722E+02  0.56036871515E+03  0.56091699398E+03  0.00000000000E+00 0. -1.
         22    1    3    3    0    0 -0.54834774859E+02  0.32721359447E+02  0.18138053787E+02  0.66381690948E+02  0.00000000000E+00 0. -1.
         22    1    3    3    0    0  0.66481842676E+02  0.39922940454E+02 -0.13614551774E+02  0.78733935505E+02  0.00000000000E+00 0. -1.
</event>
<event>
 7    1  0.5970484E-006  0.1067187E+03  0.7818608E-02  0.1438646E+00
          2   -1    0    0  502    0  0.00000000000E+00  0.00000000000E+00  0.18535711538E+04  0.18535711538E+04  0.00000000000E+00 0. -1.
          1   -1    0    0  501    0 -0.00000000000E+00 -0.00000000000E+00 -0.43228921086E+03  0.43228921086E+03  0.00000000000E+00 0. -1.
         25    2    1    2    0    0  0.70467834834E+02 -0.70204710919E+02 -0.26709606474E+03  0.31122356249E+03  0.12500152346E+03 0.  0.
          2    1    1    2  501    0 -0.13881284940E+02 -0.20338900078E+02 -0.14050160525E+03  0.14264312814E+03  0.00000000000E+00 0. -1.
          1    1    1    2  502    0 -0.56586549894E+02  0.90543610997E+02  0.18288796129E+04  0.18319936740E+04  0.00000000000E+00 0. -1.
         22    1    3    3    0    0  0.66851656309E+02 -0.13664531049E+02 -0.44338948537E+02  0.81374478293E+02  0.00000000000E+00 0. -1.
         22    1    3    3    0    0  0.36161785251E+01 -0.56540179870E+02 -0.22275711620E+03  0.22984908420E+03  0.00000000000E+00 0. -1.
</event>
<event>
 7    1  0.5970484E-006  0.4013894E+02  0.7818608E-02  0.1517607E+00
          2   -1    0    0  502    0  0.00000000000E+00  0.00000000000E+00  0.17429479793E+04  0.17429479793E+04  0.00000000000E+00 0. -1.
          1   -1    0    0  501    0 -0.00000000000E+00 -0.00000000000E+00 -0.51109747150E+02  0.51109747150E+02  0.00000000000E+00 0. -1.
         25    2    1    2    0    0 -0.31166145400E+02  0.53800331721E+02  0.26226246281E+03  0.29710610533E+03  0.12499853643E+03 0.  0.
          2    1    1    2  501    0 -0.34095126779E+01 -0.39511980896E+02 -0.21690739063E+02  0.45202981894E+02  0.00000000000E+00 0. -1.
          1    1    1    2  502    0  0.34575658078E+02 -0.14288350825E+02  0.14512665084E+04  0.14517486392E+04  0.00000000000E+00 0. -1.
         22    1    3    3    0    0  0.19898627138E+02  0.31709928980E+02  0.22951088677E+03  0.23254402187E+03  0.00000000000E+00 0. -1.
         22    1    3    3    0    0 -0.51064772538E+02  0.22090402741E+02  0.32751576038E+02  0.64562083459E+02  0.00000000000E+00 0. -1.
</event>
<event>
 7    1  0.5970484E-006  0.2702652E+03  0.7818608E-02  0.1291991E+00
          2   -1    0    0  502    0  0.00000000000E+00  0.00000000000E+00  0.95469317351E+03  0.95469317351E+03  0.00000000000E+00 0. -1.
          1   -1    0    0  501    0 -0.00000000000E+00 -0.00000000000E+00 -0.10156287222E+04  0.10156287222E+04  0.00000000000E+00 0. -1.
         25    2    1    2    0    0  0.10391741501E+03 -0.21594580385E+03  0.16736497535E+03  0.31791103345E+03  0.12499988348E+03 0.  0.
          2    1    1    2  501    0 -0.11701227338E+03  0.24638871334E+03 -0.92017117980E+03  0.95974698245E+03  0.00000000000E+00 0. -1.
          1    1    1    2  502    0  0.13094858369E+02 -0.30442909484E+02  0.69187065578E+03  0.69266387980E+03  0.00000000000E+00 0. -1.
         22    1    3    3    0    0  0.40379743927E+02 -0.18432270874E+03  0.78975895418E+02  0.20455458131E+03  0.00000000000E+00 0.  1.
         22    1    3    3    0    0  0.63537671080E+02 -0.31623095116E+02  0.88389079930E+02  0.11335645214E+03  0.00000000000E+00 0.  1.
</event>
<event>
 7    1  0.5970484E-006  0.5984284E+02  0.7818608E-02  0.1465672E+00
          2   -1    0    0  502    0  0.00000000000E+00  0.00000000000E+00  0.53080669848E+03  0.53080669848E+03  0.00000000000E+00 0. -1.
          1   -1    0    0  501    0 -0.00000000000E+00 -0.00000000000E+00 -0.12350211531E+03  0.12350211531E+03  0.00000000000E+00 0. -1.
         25    2    1    2    0    0  0.71673874302E+01  0.79172752165E+02 -0.55088960587E+02  0.15804912177E+03  0.12500014075E+03 0.  0.
          2    1    1    2  501    0  0.84328163427E+01 -0.46721078659E+02  0.18570984125E+02  0.50978946968E+02  0.00000000000E+00 0. -1.
          1    1    1    2  502    0 -0.15600203773E+02 -0.32451673506E+02  0.44382255963E+03  0.44528074505E+03  0.00000000000E+00 0. -1.
         22    1    3    3    0    0  0.27970724163E+02  0.77672174061E+02  0.15888931591E+02  0.84070126565E+02  0.00000000000E+00 0. -1.
         22    1    3    3    0    0 -0.20803336733E+02  0.15005781041E+01 -0.70977892178E+02  0.73978995207E+02  0.00000000000E+00 0. -1.
</event>
<event>
 7    1  0.5970484E-006  0.1811385E+03  0.7818608E-02  0.1393351E+00
          2   -1    0    0  502    0  0.00000000000E+00  0.00000000000E+00  0.74887007631E+03  0.74887007631E+03  0.00000000000E+00 0. -1.
          1   -1    0    0  501    0 -0.00000000000E+00 -0.00000000000E+00 -0.75646232436E+03  0.75646232436E+03  0.00000000000E+00 0. -1.
         25    2    1    2    0    0 -0.32924819770E+00 -0.19834320944E+03  0.10212097764E+03  0.25572068100E+03  0.12499694190E+03 0.  0.
          2    1    1    2  501    0 -0.31805127120E+01  0.20349699129E+02 -0.66559716509E+03  0.66591576952E+03  0.00000000000E+00 0. -1.
          1    1    1    2  502    0  0.35097609097E+01  0.17799351031E+03  0.55588393940E+03  0.58369595015E+03  0.00000000000E+00 0. -1.
         22    1    3    3    0    0  0.53937290552E+01 -0.14524493055E+03  0.56514596195E+01  0.14545487671E+03  0.00000000000E+00 0. -1.
         22    1    3    3    0    0 -0.57229772529E+01 -0.53098278890E+02  0.96469518018E+02  0.11026580429E+03  0.00000000000E+00 0. -1.
</event>
<event>
 7    1  0.5970484E-006  0.4344083E+02  0.7818608E-02  0.1525533E+00
          2   -1    0    0  502    0  0.00000000000E+00  0.00000000000E+00  0.22167342810E+04  0.22167342810E+04  0.00000000000E+00 0. -1.
          1   -1    0    0  501    0 -0.00000000000E+00 -0.00000000000E+00 -0.40522861473E+03  0.40522861473E+03  0.00000000000E+00 0. -1.
         25    2    1    2    0    0 -0.46850450720E+02  0.59405467925E+02  0.18058918340E+03  0.23229637443E+03  0.12500071224E+03 0.  0.
          2    1    1    2  501    0  0.22756704087E+02 -0.23603761472E+02 -0.37843450720E+03  0.37985218359E+03  0.00000000000E+00 0. -1.
          1    1    1    2  502    0  0.24093746633E+02 -0.35801706453E+02  0.20093509901E+04  0.20098143377E+04  0.00000000000E+00 0. -1.
         22    1    3    3    0    0 -0.66117132866E+02 -0.91466390009E+01  0.12594212151E+03  0.14253615062E+03  0.00000000000E+00 0. -1.
         22    1    3    3    0    0  0.19266682146E+02  0.68552106926E+02  0.54647061892E+02  0.89760223809E+02  0.00000000000E+00 0. -1.
</event>
<event>
 7    1  0.5970484E-006  0.5759839E+02  0.7818608E-02  0.1530093E+00
          2   -1    0    0  502    0  0.00000000000E+00  0.00000000000E+00  0.40750204898E+03  0.40750204898E+03  0.00000000000E+00 0. -1.
          1   -1    0    0  501    0 -0.00000000000E+00 -0.00000000000E+00 -0.77251975593E+03  0.77251975593E+03  0.00000000000E+00 0. -1.
         25    2    1    2    0    0 -0.79056078384E+02 -0.48741418433E+01  0.91549130151E+02  0.17401126246E+03  0.12500022177E+03 0.  0.
          2    1    1    2  501    0  0.23649966100E+02 -0.40452037348E+01 -0.72822306494E+03  0.72861822437E+03  0.00000000000E+00 0. -1.
          1    1    1    2  502    0  0.55406112284E+02  0.89193455781E+01  0.27165622784E+03  0.27739231808E+03  0.00000000000E+00 0. -1.
         22    1    3    3    0    0 -0.67940357997E+01  0.51909918588E+02  0.15153166293E+02  0.54501532263E+02  0.00000000000E+00 0. -1.
         22    1    3    3    0    0 -0.72262042584E+02 -0.56784060432E+02  0.76395963858E+02  0.11950973020E+03  0.00000000000E+00 0. -1.
</event>
<event>
 7    1  0.5970484E-006  0.8227228E+02  0.7818608E-02  0.1431733E+00
          2   -1    0    0  502    0  0.00000000000E+00  0.00000000000E+00  0.64448316246E+03  0.64448316246E+03  0.00000000000E+00 0. -1.
          1   -1    0    0  501    0 -0.00000000000E+00 -0.00000000000E+00 -0.10432429334E+03  0.10432429334E+03  0.00000000000E+00 0. -1.
         25    2    1    2    0    0  0.20695512326E+02 -0.84755622324E+02  0.25621541937E+03  0.29813467087E+03  0.12500448434E+03 0.  0.
          2    1    1    2  501    0 -0.48843682472E+02  0.66322360396E+02 -0.62001871463E+02  0.10309506715E+03  0.00000000000E+00 0. -1.
          1    1    1    2  502    0  0.28148170145E+02  0.18433261928E+02  0.34594532121E+03  0.34757771778E+03  0.00000000000E+00 0. -1.
         22    1    3    3    0    0  0.42661296041E+02 -0.52518020707E+02  0.24954935512E+03  0.25855948894E+03  0.00000000000E+00 0. -1.
         22    1    3    3    0    0 -0.21965783714E+02 -0.32237601617E+02  0.66660642484E+01  0.39575181930E+02  0.00000000000E+00 0. -1.
</event>
<event>
 7    1  0.5970484E-006  0.1476602E+03  0.7818608E-02  0.1267137E+00
          2   -1    0    0  502    0  0.00000000000E+00  0.00000000000E+00  0.21649100843E+04  0.21649100843E+04  0.00000000000E+00 0. -1.
          1   -1    0    0  501    0 -0.00000000000E+00 -0.00000000000E+00 -0.98158401267E+03  0.98158401267E+03  0.00000000000E+00 0. -1.
         25    2    1    2    0    0  0.34415248782E+02 -0.63824896287E+02  0.28989532086E+03  0.32391733538E+03  0.12500046548E+03 0.  0.
          2    1    1    2  501    0 -0.62160810802E+02  0.13549629545E+03 -0.95801115832E+03  0.96954040243E+03  0.00000000000E+00 0. -1.
          1    1    1    2  502    0  0.27745562020E+02 -0.71671399163E+02  0.18514419091E+04  0.18530363592E+04  0.00000000000E+00 0. -1.
         22    1    3    3    0    0 -0.89471866005E+01 -0.88567685456E+02  0.13979059898E+03  0.16572778469E+03  0.00000000000E+00 0. -1.
         22    1    3    3    0    0  0.43362435383E+02  0.24742789169E+02  0.15010472188E+03  0.15818955070E+03  0.00000000000E+00 0. -1.
</event>
<event>
 7    1  0.5970484E-006  0.3533679E+02  0.7818608E-02  0.1558891E+00
          2   -1    0    0  502    0  0.00000000000E+00  0.00000000000E+00  0.18107761420E+03  0.18107761420E+03  0.00000000000E+00 0. -1.
          1   -1    0    0  501    0 -0.00000000000E+00 -0.00000000000E+00 -0.14905666660E+03  0.14905666660E+03  0.00000000000E+00 0. -1.
         25    2    1    2    0    0  0.29759384642E+02  0.64740411623E+01  0.38302248015E+02  0.13423720143E+03  0.12500011944E+03 0.  0.
          2    1    1    2  501    0 -0.12352974527E+02 -0.33872302315E+02 -0.94901291490E+02  0.10151937731E+03  0.00000000000E+00 0. -1.
          1    1    1    2  502    0 -0.17406410116E+02  0.27398261153E+02  0.88619991080E+02  0.94377702061E+02  0.00000000000E+00 0. -1.
         22    1    3    3    0    0  0.73489667241E+01  0.80481612756E+01 -0.45855304471E+02  0.47132676138E+02  0.00000000000E+00 0.  1.
         22    1    3    3    0    0  0.22410417918E+02 -0.15741201133E+01  0.84157552486E+02  0.87104525289E+02  0.00000000000E+00 0.  1.
</event>
<event>
 7    1  0.5970484E-006  0.1082083E+03  0.7818608E-02  0.1295625E+00
          2   -1    0    0  502    0  0.00000000000E+00  0.00000000000E+00  0.43916797145E+03  0.43916797145E+03  0.00000000000E+00 0. -1.
          1   -1    0    0  501    0 -0.00000000000E+00 -0.00000000000E+00 -0.36164363147E+03  0.36164363147E+03  0.00000000000E+00 0. -1.
         25    2    1    2    0    0  0.74764018673E+02  0.14698043455E+03 -0.13621204290E+03  0.24773295158E+03  0.12499995214E+03 0.  0.
          2    1    1    2  501    0 -0.14327009563E+02 -0.94536619307E+02 -0.15151622407E+03  0.17916361726E+03  0.00000000000E+00 0. -1.
          1    1    1    2  502    0 -0.60437009111E+02 -0.52443815246E+02  0.36525260695E+03  0.37391503408E+03  0.00000000000E+00 0. -1.
         22    1    3    3    0    0  0.42578362439E+02  0.10490138025E+03 -0.15463093092E+03  0.19164535299E+03  0.00000000000E+00 0. -1.
         22    1    3    3    0    0  0.32185656234E+02  0.42079054308E+02  0.18418888025E+02  0.56087598582E+02  0.00000000000E+00 0. -1.
</event>
<event>
 7    1  0.9926738E-006  0.4518280E+02  0.7818608E-02  0.1588037E+00
          2   -1    0    0  502    0  0.00000000000E+00  0.00000000000E+00  0.17670046468E+04  0.17670046468E+04  0.00000000000E+00 0. -1.
          1   -1    0    0  501    0 -0.00000000000E+00 -0.00000000000E+00 -0.93805463973E+03  0.93805463973E+03  0.00000000000E+00 0. -1.
         25    2    1    2    0    0  0.25441174394E+02  0.44481616738E+02 -0.37766439266E+03  0.40109989237E+03  0.12499945038E+03 0.  0.
          2    1    1    2  501    0  0.11160536967E+02 -0.17992031535E+02 -0.54817735479E+03  0.54858607628E+03  0.00000000000E+00 0. -1.
          1    1    1    2  502    0 -0.36601711362E+02 -0.26489585203E+02  0.17547917545E+04  0.17553733179E+04  0.00000000000E+00 0. -1.
         22    1    3    3    0    0 -0.27570239171E+02  0.31878375579E+02 -0.31605033751E+03  0.31884818450E+03  0.00000000000E+00 0.  1.
         22    1    3    3    0    0  0.53011413565E+02  0.12603241159E+02 -0.61614055150E+02  0.82251707872E+02  0.00000000000E+00 0.  1.
</event>
<event>
 7    1  0.8757882E-006  0.6845161E+02  0.7818608E-02  0.1425288E+00
          2   -1    0    0  502    0  0.00000000000E+00  0.00000000000E+00  0.20436489989E+04  0.20436489989E+04  0.00000000000E+00 0. -1.
          1   -1    0    0  501    0 -0.00000000000E+00 -0.00000000000E+00 -0.11402553472E+04  0.11402553472E+04  0.00000000000E+00 0. -1.
         25    2    1    2    0    0 -0.27956352711E+02  0.76059323196E+02 -0.16796939476E+03  0.22451136522E+03  0.12500022894E+03 0.  0.
          2    1    1    2  501    0 -0.25824587522E+02 -0.33715629274E+02 -0.94295567684E+03  0.94391157502E+03  0.00000000000E+00 0. -1.
          1    1    1    2  502    0  0.53780940234E+02 -0.42343693922E+02  0.20143187233E+04  0.20154814058E+04  0.00000000000E+00 0. -1.
         22    1    3    3    0    0 -0.57898656769E+02  0.62592895590E+02 -0.43374177341E+02  0.95663181496E+02  0.00000000000E+00 0.  1.
         22    1    3    3    0    0  0.29942304057E+02  0.13466427606E+02 -0.12459521742E+03  0.12884818373E+03  0.00000000000E+00 0.  1.
</event>
<event>
 7    1  0.5970484E-006  0.8523471E+02  0.7818608E-02  0.1364250E+00
          2   -1    0    0  502    0  0.00000000000E+00  0.00000000000E+00  0.51486541903E+03  0.51486541903E+03  0.00000000000E+00 0. -1.
          1   -1    0    0  501    0 -0.00000000000E+00 -0.00000000000E+00 -0.10291085442E+03  0.10291085442E+03  0.00000000000E+00 0. -1.
         25    2    1    2    0    0  0.36009964178E+02 -0.48386126368E+02  0.92897309000E+02  0.16701473026E+03  0.12500430136E+03 0.  0.
          2    1    1    2  501    0 -0.36095548679E+02 -0.42186427116E+02 -0.47569673052E+02  0.73112632708E+02  0.00000000000E+00 0. -1.
          1    1    1    2  502    0  0.85584501306E-01  0.90572553484E+02  0.36662692866E+03  0.37764891048E+03  0.00000000000E+00 0. -1.
         22    1    3    3    0    0  0.34274373189E+02  0.38384078868E+02  0.27504088951E+02  0.58348479647E+02  0.00000000000E+00 0.  1.
         22    1    3    3    0    0  0.17355909886E+01 -0.86770205237E+02  0.65393220049E+02  0.10866625061E+03  0.00000000000E+00 0.  1.
</event>
<event>
 7    1  0.5970484E-006  0.1366686E+03  0.7818608E-02  0.1320829E+00
          2   -1    0    0  502    0  0.00000000000E+00  0.00000000000E+00  0.66356001672E+03  0.66356001672E+03  0.00000000000E+00 0. -1.
          1   -1    0    0  501    0 -0.00000000000E+00 -0.00000000000E+00 -0.80666877407E+03  0.80666877407E+03  0.00000000000E+00 0. -1.
         25    2    1    2    0    0 -0.15730539602E+03 -0.73265163489E+02  0.60937526626E+02  0.22237570326E+03  0.12499919780E+03 0.  0.
          2    1    1    2  501    0  0.13187170208E+03  0.29788253627E+02 -0.71841448547E+03  0.73102452681E+03  0.00000000000E+00 0. -1.
          1    1    1    2  502    0  0.25433693936E+02  0.43476909862E+02  0.51436820149E+03  0.51682856073E+03  0.00000000000E+00 0. -1.
         22    1    3    3    0    0 -0.11469550159E+02 -0.36639153663E+02  0.60922892985E+02  0.72010950915E+02  0.00000000000E+00 0.  1.
         22    1    3    3    0    0 -0.14583584586E+03 -0.36626009826E+02  0.14633641220E-01  0.15036475235E+03  0.00000000000E+00 0.  1.
</event>
<event>
 7    1  0.5970484E-006  0.1141108E+03  0.7818608E-02  0.1330464E+00
          2   -1    0    0  502    0  0.00000000000E+00  0.00000000000E+00  0.76818748306E+03  0.76818748306E+03  0.00000000000E+00 0. -1.
          1   -1    0    0  501    0 -0.00000000000E+00 -0.00000000000E+00 -0.48757401447E+03  0.48757401447E+03  0.00000000000E+00 0. -1.
         25    2    1    2    0    0  0.14319262380E+03  0.86008575083E+02 -0.59981756118E+02  0.21707969428E+03  0.12499672037E+03 0.  0.
          2    1    1    2  501    0 -0.43305614853E+02 -0.34539677523E+02 -0.34222426206E+03  0.34667825306E+03  0.00000000000E+00 0. -1.
          1    1    1    2  502    0 -0.99887008943E+02 -0.51468897560E+02  0.68281948677E+03  0.69200355019E+03  0.00000000000E+00 0. -1.
         22    1    3    3    0    0  0.80148952494E+02  0.33900098308E+02 -0.94355551937E+02  0.12835903331E+03  0.00000000000E+00 0.  1.
         22    1    3    3    0    0  0.63043671303E+02  0.52108476775E+02  0.34373795818E+02  0.88720660965E+02  0.00000000000E+00 0.  1.
</event>
<event>
 7    1  0.5970484E-006  0.5595698E+02  0.7818608E-02  0.1462929E+00
          2   -1    0    0  502    0  0.00000000000E+00  0.00000000000E+00  0.10709706969E+04  0.10709706969E+04  0.00000000000E+00 0. -1.
          1   -1    0    0  501    0 -0.00000000000E+00 -0.00000000000E+00 -0.45673524540E+03  0.45673524540E+03  0.00000000000E+00 0. -1.
         25    2    1    2    0    0  0.12485096381E+02 -0.59542044960E+02 -0.18152877978E+03  0.22864584359E+03  0.12500036461E+03 0.  0.
          2    1    1    2  501    0 -0.38052427470E+02  0.97321237893E+01 -0.24936145283E+03  0.25243580497E+03  0.00000000000E+00 0. -1.
          1    1    1    2  502    0  0.25567331089E+02  0.49809921171E+02  0.10451256841E+04  0.10466242938E+04  0.00000000000E+00 0. -1.
         22    1    3    3    0    0 -0.41581493490E+02  0.17045807550E+02 -0.51602082862E+02  0.68427736420E+02  0.00000000000E+00 0.  1.
         22    1    3    3    0    0  0.54066589870E+02 -0.76587852511E+02 -0.12992669692E+03  0.16021810717E+03  0.00000000000E+00 0.  1.
</event>
<event>
 7    1  0.5970484E-006  0.5894274E+02  0.7818608E-02  0.1407758E+00
          2   -1    0    0  502    0  0.00000000000E+00  0.00000000000E+00  0.19585226890E+04  0.19585226890E+04  0.00000000000E+00 0. -1.
          1   -1    0    0  501    0 -0.00000000000E+00 -0.00000000000E+00 -0.86239492943E+02  0.86239492943E+02  0.00000000000E+00 0. -1.
         25    2    1    2    0    0  0.30757414192E+02  0.35507236263E+02  0.10206292315E+03  0.16807376745E+03  0.12500067467E+03 0.  0.
          2    1    1    2  501    0 -0.58746865805E+02  0.16366045068E+02 -0.35128338174E+02  0.70377850322E+02  0.00000000000E+00 0. -1.
          1    1    1    2  502    0  0.27989451613E+02 -0.51873281332E+02  0.18053486111E+04  0.18063105642E+04  0.00000000000E+00 0. -1.
         22    1    3    3    0    0  0.17020051382E+02 -0.46742644406E+02  0.31905561572E+02  0.59097561831E+02  0.00000000000E+00 0.  1.
         22    1    3    3    0    0  0.13737362810E+02  0.82249880669E+02  0.70157361582E+02  0.10897620562E+03  0.00000000000E+00 0.  1.
</event>
<event>
 7    1  0.5970484E-006  0.9669828E+02  0.7818608E-02  0.1451646E+00
          2   -1    0    0  502    0  0.00000000000E+00  0.00000000000E+00  0.10318676385E+04  0.10318676385E+04  0.00000000000E+00 0. -1.
          1   -1    0    0  501    0 -0.00000000000E+00 -0.00000000000E+00 -0.40436961020E+03  0.40436961020E+03  0.00000000000E+00 0. -1.
         25    2    1    2    0    0  0.22999418636E+02 -0.72473716310E+02  0.38422510023E+03  0.41114086361E+03  0.12500587697E+03 0.  0.
          2    1    1    2  501    0 -0.42948123835E+02  0.87000971467E+02 -0.38464526679E+03  0.39669344794E+03  0.00000000000E+00 0. -1.
          1    1    1    2  502    0  0.19948705199E+02 -0.14527255157E+02  0.62791819484E+03  0.62840293713E+03  0.00000000000E+00 0. -1.
         22    1    3    3    0    0  0.23180399634E+02 -0.90727641116E+02  0.15429764252E+03  0.18048988414E+03  0.00000000000E+00 0.  1.
         22    1    3    3    0    0 -0.18098099774E+00  0.18253924806E+02  0.22992745771E+03  0.23065097948E+03  0.00000000000E+00 0.  1.
</event>
<event>
 7    1  0.5970484E-006  0.4472182E+02  0.7818608E-02  0.1565066E+00
          2   -1    0    0  502    0  0.00000000000E+00  0.00000000000E+00  0.28776417638E+04  0.28776417638E+04  0.00000000000E+00 0. -1.
          1   -1    0    0  501    0 -0.00000000000E+00 -0.00000000000E+00 -0.10995680641E+03  0.10995680641E+03  0.00000000000E+00 0. -1.
         25    2    1    2    0    0 -0.54753082929E+02  0.38924884845E+02  0.21133661710E+04  0.21181252069E+04  0.12499909067E+03 0.  0.
          2    1    1    2  501    0  0.40544113148E+02 -0.18762454654E+02 -0.10272955919E+03  0.11202328841E+03  0.00000000000E+00 0. -1.
          1    1    1    2  502    0  0.14208969781E+02 -0.20162430191E+02  0.75704834563E+03  0.75745007494E+03  0.00000000000E+00 0. -1.
         22    1    3    3    0    0 -0.37285709777E+02  0.37234154305E+02  0.29466603265E+03  0.29934040355E+03  0.00000000000E+00 0. -1.
         22    1    3    3    0    0 -0.17467373152E+02  0.16907305409E+01  0.18187001383E+04  0.18187848033E+04  0.00000000000E+00 0. -1.
</event>
<event>
 7    1  0.5970484E-006  0.3626073E+02  0.7818608E-02  0.1615800E+00
          2   -1    0    0  502    0  0.00000000000E+00  0.00000000000E+00  0.77378566735E+03  0.77378566735E+03  0.00000000000E+00 0. -1.
          1   -1    0    0  501    0 -0.00000000000E+00 -0.00000000000E+00 -0.32401254552E+02  0.32401254552E+02  0.00000000000E+00 0. -1.
         25    2    1    2    0    0 -0.45080742786E+02  0.14075778850E+02  0.12260146618E+03  0.18134701896E+03  0.12500088341E+03 0.  0.
          2    1    1    2  501    0  0.19291353897E+02  0.11251001779E+02  0.48300974387E+02  0.53213959662E+02  0.00000000000E+00 0. -1.
          1    1    1    2  502    0  0.25789388889E+02 -0.25326780629E+02  0.57048197223E+03  0.57162594328E+03  0.00000000000E+00 0. -1.
         22    1    3    3    0    0  0.27256213586E+02 -0.16934977911E+02 -0.39368071906E+01  0.32329446434E+02  0.00000000000E+00 0.  1.
         22    1    3    3    0    0 -0.72336956372E+02  0.31010756762E+02  0.12653827338E+03  0.14901757252E+03  0.00000000000E+00 0.  1.
</event>
<event>
 7    1  0.5970484E-006  0.3334363E+02  0.7818608E-02  0.1609120E+00
          2   -1    0    0  502    0  0.00000000000E+00  0.00000000000E+00  0.11327200250E+04  0.11327200250E+04  0.00000000000E+00 0. -1.
          1   -1    0    0  501    0 -0.00000000000E+00 -0.00000000000E+00 -0.13356885264E+04  0.13356885264E+04  0.00000000000E+00 0. -1.
         25    2    1    2    0    0 -0.65151349327E+01 -0.49053344046E+01 -0.80665537164E+02  0.14899606131E+03  0.12500555232E+03 0.  0.
          2    1    1    2  501    0 -0.18824579263E+02 -0.16852790933E+02 -0.12204730856E+04  0.12207345879E+04  0.00000000000E+00 0. -1.
          1    1    1    2  502    0  0.25339714195E+02  0.21758125338E+02  0.10981701214E+04  0.10986779022E+04  0.00000000000E+00 0. -1.
         22    1    3    3    0    0 -0.12734515536E+02 -0.60001709721E+02 -0.15177046961E+02  0.63187940383E+02  0.00000000000E+00 0.  1.
         22    1    3    3    0    0  0.62193806033E+01  0.55096375316E+02 -0.65488490203E+02  0.85808120928E+02  0.00000000000E+00 0.  1.
</event>
<event>
 7    1  0.5970484E-006  0.1236740E+03  0.7818608E-02  0.1343872E+00
          2   -1    0    0  502    0  0.00000000000E+00  0.00000000000E+00  0.31945964115E+03  0.31945964115E+03  0.00000000000E+00 0. -1.
          1   -1    0    0  501    0 -0.00000000000E+00 -0.00000000000E+00 -0.26474693798E+04  0.26474693798E+04  0.00000000000E+00 0. -1.
         25    2    1    2    0    0  0.84255824977E+02 -0.14120990766E+03 -0.15562786535E+03  0.25862227568E+03  0.12500466767E+03 0.  0.
          2    1    1    2  501    0 -0.12536816177E+02  0.43719963030E+02 -0.24264543136E+04  0.24268805374E+04  0.00000000000E+00 0. -1.
          1    1    1    2  502    0 -0.71719008800E+02  0.97489944630E+02  0.25407244032E+03  0.28142620783E+03  0.00000000000E+00 0. -1.
         22    1    3    3    0    0  0.18293007002E+02 -0.63598322759E+02 -0.14095252574E+03  0.15571446714E+03  0.00000000000E+00 0.  1.
         22    1    3    3    0    0  0.65962817974E+02 -0.77611584901E+02 -0.14675339607E+02  0.10290780854E+03  0.00000000000E+00 0.  1.
</event>
<event>
 7    1  0.5970484E-006  0.4230845E+02  0.7818608E-02  0.1525468E+00
          2   -1    0    0  502    0  0.00000000000E+00  0.00000000000E+00  0.80846909860E+03  0.80846909860E+03  0.00000000000E+00 0. -1.
          1   -1    0    0  501    0 -0.00000000000E+00 -0.00000000000E+00 -0.10280839254E+04  0.10280839254E+04  0.00000000000E+00 0. -1.
         25    2    1    2    0    0  0.25142044490E+01  0.35635856625E+02 -0.73084783211E+01  0.13022416214E+03  0.12501473133E+03 0.  0.
          2    1    1    2  501    0 -0.34421216339E+02 -0.24853983835E+02 -0.95846781981E+03  0.95940768303E+03  0.00000000000E+00 0. -1.
          1    1    1    2  502    0  0.31907011890E+02 -0.10781872791E+02  0.74616147130E+03  0.74692117887E+03  0.00000000000E+00 0. -1.
         22    1    3    3    0    0  0.18444082219E+02 -0.40235985493E+02 -0.24818544957E+02  0.50745234961E+02  0.00000000000E+00 0.  1.
         22    1    3    3    0    0 -0.15929877770E+02  0.75871842118E+02  0.17510066636E+02  0.79478927181E+02  0.00000000000E+00 0.  1.
</event>
<event>
 7    1  0.5970484E-006  0.7693442E+02  0.7818608E-02  0.1424053E+00
          2   -1    0    0  502    0  0.00000000000E+00  0.00000000000E+00  0.69558141132E+03  0.69558141132E+03  0.00000000000E+00 0. -1.
          1   -1    0    0  501    0 -0.00000000000E+00 -0.00000000000E+00 -0.62834805599E+03  0.62834805599E+03  0.00000000000E+00 0. -1.
         25    2    1    2    0    0  0.65468105454E+02  0.90165324686E+01  0.44774255386E+03  0.46953538943E+03  0.12499086645E+03 0.  0.
          2    1    1    2  501    0  0.92529888921E+01  0.37005741697E+02 -0.60870840503E+03  0.60990242259E+03  0.00000000000E+00 0. -1.
          1    1    1    2  502    0 -0.74721094346E+02 -0.46022274166E+02  0.22819920650E+03  0.24449165529E+03  0.00000000000E+00 0. -1.
         22    1    3    3    0    0 -0.77675998028E+00 -0.50936442986E+02  0.13543422365E+03  0.14469814621E+03  0.00000000000E+00 0. -1.
         22    1    3    3    0    0  0.66244865435E+02  0.59952975455E+02  0.31230833022E+03  0.32483724322E+03  0.00000000000E+00 0. -1.
</event>
<event>
 7    1  0.5970484E-006  0.1166549E+03  0.7818608E-02  0.1327202E+00
          2   -1    0    0  502    0  0.00000000000E+00  0.00000000000E+00  0.89416958683E+03  0.89416958683E+03  0.00000000000E+00 0. -1.
          1   -1    0    0  501    0 -0.00000000000E+00 -0.00000000000E+00 -0.65986167754E+03  0.65986167754E+03  0.00000000000E+00 0. -1.
         25    2    1    2    0    0  0.13539981457E+03  0.10294873934E+03 -0.14342446986E+02  0.21157095797E+03  0.12500004702E+03 0.  0.
          2    1    1    2  501    0 -0.47394781903E+02 -0.29385097596E+02 -0.54133077378E+03  0.54419551261E+03  0.00000000000E+00 0. -1.
          1    1    1    2  502    0 -0.88005032665E+02 -0.73563641748E+02  0.78998113005E+03  0.79826479379E+03  0.00000000000E+00 0. -1.
         22    1    3    3    0    0  0.96784980815E+02  0.61178526543E+02  0.50648521578E+02  0.12520150702E+03  0.00000000000E+00 0. -1.
         22    1    3    3    0    0  0.38614833753E+02  0.41770212801E+02 -0.64990968564E+02  0.86369450954E+02  0.00000000000E+00 0. -1.
</event>
<event>
 7    1  0.5970484E-006  0.1036391E+03  0.7818608E-02  0.1414066E+00
          2   -1    0    0  502    0  0.00000000000E+00  0.00000000000E+00  0.68708194171E+03  0.68708194171E+03  0.00000000000E+00 0. -1.
          1   -1    0    0  501    0 -0.00000000000E+00 -0.00000000000E+00 -0.18995328065E+04  0.18995328065E+04  0.00000000000E+00 0. -1.
         25    2    1    2    0    0  0.65023840637E+02 -0.76316804429E+02 -0.41399087772E+03  0.44392017677E+03  0.12499728804E+03 0.  0.
          2    1    1    2  501    0  0.22511964073E+02  0.20696538843E+02 -0.14664160837E+04  0.14667348996E+04  0.00000000000E+00 0. -1.
          1    1    1    2  502    0 -0.87535804710E+02  0.55620265586E+02  0.66795609658E+03  0.67595967188E+03  0.00000000000E+00 0. -1.
         22    1    3    3    0    0  0.70534007511E+02 -0.86702198314E+02 -0.41705389641E+03  0.43177108509E+03  0.00000000000E+00 0.  1.
         22    1    3    3    0    0 -0.55101668740E+01  0.10385393885E+02  0.30630186916E+01  0.12149091679E+02  0.00000000000E+00 0.  1.
</event>
<event>
 7    1  0.1028567E-005  0.7501779E+02  0.7818608E-02  0.1429297E+00
          2   -1    0    0  502    0  0.00000000000E+00  0.00000000000E+00  0.18490927657E+04  0.18490927657E+04  0.00000000000E+00 0. -1.
          1   -1    0    0  501    0 -0.00000000000E+00 -0.00000000000E+00 -0.56277024416E+03  0.56277024416E+03  0.00000000000E+00 0. -1.
         25    2    1    2    0    0  0.76975445324E+02  0.29898744715E+02 -0.16899353212E+03  0.22583932080E+03  0.12500172320E+03 0.  0.
          2    1    1    2  501    0 -0.23396202638E+01 -0.37514999015E+02 -0.36361172506E+03  0.36554936134E+03  0.00000000000E+00 0. -1.
          1    1    1    2  502    0 -0.74635825061E+02  0.76162542993E+01  0.18189277787E+04  0.18204743277E+04  0.00000000000E+00 0. -1.
         22    1    3    3    0    0  0.61671828220E+02  0.19234030204E+02 -0.95443759432E+01  0.65302813308E+02  0.00000000000E+00 0.  1.
         22    1    3    3    0    0  0.15303617105E+02  0.10664714511E+02 -0.15944915617E+03  0.16053650749E+03  0.00000000000E+00 0.  1.
</event>
<event>
 7    1  0.5970484E-006  0.1307623E+03  0.7818608E-02  0.1292726E+00
          2   -1    0    0  502    0  0.00000000000E+00  0.00000000000E+00  0.86954912479E+03  0.86954912479E+03  0.00000000000E+00 0. -1.
          1   -1    0    0  501    0 -0.00000000000E+00 -0.00000000000E+00 -0.11257082173E+04  0.11257082173E+04  0.00000000000E+00 0. -1.
         25    2    1    2    0    0 -0.19422407554E+03 -0.19954137711E+02  0.31825264442E+02  0.23400626807E+03  0.12499970763E+03 0.  0.
          2    1    1    2  501    0  0.12638066643E+03  0.24946812858E+02 -0.10189833007E+04  0.10270936586E+04  0.00000000000E+00 0. -1.
          1    1    1    2  502    0  0.67843409109E+02 -0.49926751475E+01  0.73099894373E+03  0.73415741548E+03  0.00000000000E+00 0. -1.
         22    1    3    3    0    0 -0.16236840341E+03  0.29431598687E+02 -0.42127914418E+01  0.16506806184E+03  0.00000000000E+00 0. -1.
         22    1    3    3    0    0 -0.31855672126E+02 -0.49385736398E+02  0.36038055884E+02  0.68938206229E+02  0.00000000000E+00 0. -1.
</event>
<event>
 7    1  0.5970484E-006  0.4677619E+02  0.7818608E-02  0.1485747E+00
          2   -1    0    0  502    0  0.00000000000E+00  0.00000000000E+00  0.17182109521E+04  0.17182109521E+04  0.00000000000E+00 0. -1.
          1   -1    0    0  501    0 -0.00000000000E+00 -0.00000000000E+00 -0.69902396521E+02  0.69902396521E+02  0.00000000000E+00 0. -1.
         25    2    1    2    0    0  0.12273112166E+02 -0.17538661760E+02  0.47755743891E+03  0.49410991716E+03  0.12500107533E+03 0.  0.
          2    1    1    2  501    0 -0.27789570883E+02 -0.28687827935E+02 -0.54618449521E+02  0.67664072813E+02  0.00000000000E+00 0. -1.
          1    1    1    2  502    0  0.15516458717E+02  0.46226489695E+02  0.12253695662E+04  0.12263393587E+04  0.00000000000E+00 0. -1.
         22    1    3    3    0    0  0.67248602585E+02 -0.22203071638E+02  0.24006511334E+03  0.25029304741E+03  0.00000000000E+00 0. -1.
         22    1    3    3    0    0 -0.54975490419E+02  0.46644098774E+01  0.23749232557E+03  0.24381686974E+03  0.00000000000E+00 0. -1.
</event>
<event>
 7    1  0.5970484E-006  0.2344514E+02  0.7818608E-02  0.1711799E+00
          2   -1    0    0  502    0  0.00000000000E+00  0.00000000000E+00  0.12883563483E+03  0.12883563483E+03  0.00000000000E+00 0. -1.
          1   -1    0    0  501    0 -0.00000000000E+00 -0.00000000000E+00 -0.33306107104E+03  0.33306107104E+03  0.00000000000E+00 0. -1.
         25    2    1    2    0    0  0.38983394180E+01 -0.80836349581E+01 -0.16341052323E+03  0.20592958902E+03  0.12499381715E+03 0.  0.
          2    1    1    2  501    0  0.19526532355E+02  0.54146121348E+01 -0.14639295017E+03  0.14778869831E+03  0.00000000000E+00 0. -1.
          1    1    1    2  502    0 -0.23424871773E+02  0.26690228233E+01  0.10557803719E+03  0.10817841854E+03  0.00000000000E+00 0. -1.
         22    1    3    3    0    0  0.62226289941E+02  0.77110828839E+01 -0.64022646925E+02  0.89612896831E+02  0.00000000000E+00 0.  1.
         22    1    3    3    0    0 -0.58327950523E+02 -0.15794717842E+02 -0.99387876309E+02  0.11631669219E+03  0.00000000000E+00 0.  1.
</event>
<event>
 7    1  0.5970484E-006  0.9928130E+02  0.7818608E-02  0.1321624E+00
          2   -1    0    0  502    0  0.00000000000E+00  0.00000000000E+00  0.21284450057E+03  0.21284450057E+03  0.00000000000E+00 0. -1.
          1   -1    0    0  501    0 -0.00000000000E+00 -0.00000000000E+00 -0.75375560123E+03  0.75375560123E+03  0.00000000000E+00 0. -1.
         25    2    1    2    0    0  0.60801083941E+02 -0.76419308461E+02 -0.55130070689E+02  0.16793184471E+03  0.12500038904E+03 0.  0.
          2    1    1    2  501    0  0.35454442818E+01  0.10090674597E+03 -0.63043306595E+03  0.63846737755E+03  0.00000000000E+00 0. -1.
          1    1    1    2  502    0 -0.64346528223E+02 -0.24487437511E+02  0.14465203598E+03  0.16020087953E+03  0.00000000000E+00 0. -1.
         22    1    3    3    0    0  0.78502408494E+02 -0.92477901491E+02 -0.69736983221E+02  0.13992153956E+03  0.00000000000E+00 0.  1.
         22    1    3    3    0    0 -0.17701324553E+02  0.16058593030E+02  0.14606912532E+02  0.28010305153E+02  0.00000000000E+00 0.  1.
</event>
<event>
 7    1  0.5970484E-006  0.5080969E+02  0.7818608E-02  0.1568326E+00
          2   -1    0    0  502    0  0.00000000000E+00  0.00000000000E+00  0.50619440393E+03  0.50619440393E+03  0.00000000000E+00 0. -1.
          1   -1    0    0  501    0 -0.00000000000E+00 -0.00000000000E+00 -0.75459858608E+03  0.75459858608E+03  0.00000000000E+00 0. -1.
         25    2    1    2    0    0  0.29383551240E+02  0.56971026669E+01 -0.18283773569E+03  0.22349691253E+03  0.12500152900E+03 0.  0.
          2    1    1    2  501    0  0.21269368022E+02 -0.22455773674E+00 -0.54988948800E+03  0.55030072275E+03  0.00000000000E+00 0. -1.
          1    1    1    2  502    0 -0.50652919262E+02 -0.54725449301E+01  0.48432304154E+03  0.48699535475E+03  0.00000000000E+00 0. -1.
         22    1    3    3    0    0 -0.28282981736E+02  0.35270596264E+02 -0.22380674545E+02  0.50446373604E+02  0.00000000000E+00 0. -1.
         22    1    3    3    0    0  0.57666532976E+02 -0.29573493597E+02 -0.16045706115E+03  0.17305053892E+03  0.00000000000E+00 0. -1.
</event>
<event>
 7    1  0.5970484E-006  0.1367689E+03  0.7818608E-02  0.1249321E+00
          2   -1    0    0  502    0  0.00000000000E+00  0.00000000000E+00  0.36854525753E+04  0.36854525753E+04  0.00000000000E+00 0. -1.
          1   -1    0    0  501    0 -0.00000000000E+00 -0.00000000000E+00 -0.75521021873E+03  0.75521021873E+03  0.00000000000E+00 0. -1.
         25    2    1    2    0    0  0.14628213202E+03  0.17682799316E+02  0.54469977857E+03  0.57795727166E+03  0.12500246216E+03 0.  0.
          2    1    1    2  501    0 -0.11414014231E+03  0.75850770255E+02 -0.73143314181E+03  0.74416110646E+03  0.00000000000E+00 0. -1.
          1    1    1    2  502    0 -0.32141989712E+02 -0.93533569571E+02  0.31169757198E+04  0.31185444160E+04  0.00000000000E+00 0. -1.
         22    1    3    3    0    0 -0.13629366802E+02 -0.28291751309E+01  0.16316624298E+03  0.16375892867E+03  0.00000000000E+00 0.  1.
         22    1    3    3    0    0  0.15991149883E+03  0.20511974447E+02  0.38153353560E+03  0.41419834299E+03  0.00000000000E+00 0.  1.
</event>
<event>
 7    1  0.5970484E-006  0.1156816E+03  0.7818608E-02  0.1287191E+00
          2   -1    0    0  502    0  0.00000000000E+00  0.00000000000E+00  0.16396859457E+04  0.16396859457E+04  0.00000000000E+00 0. -1.
          1   -1    0    0  501    0 -0.00000000000E+00 -0.00000000000E+00 -0.97864439896E+03  0.97864439896E+03  0.00000000000E+00 0. -1.
         25    2    1    2    0    0  0.16813452360E+03 -0.79643658991E+02  0.13534862342E+03  0.26183396305E+03  0.12500177558E+03 0.  0.
          2    1    1    2  501    0 -0.56907964932E+02  0.57621927687E+02 -0.91137302833E+03  0.91496426148E+03  0.00000000000E+00 0. -1.
          1    1    1    2  502    0 -0.11122655867E+03  0.22021731304E+02  0.14370659516E+04  0.14415321201E+04  0.00000000000E+00 0. -1.
         22    1    3    3    0    0  0.18526269929E+03 -0.87552407564E+02  0.12790905906E+03  0.24155417448E+03  0.00000000000E+00 0.  1.
         22    1    3    3    0    0 -0.17128175690E+02  0.79087485731E+01  0.74395643637E+01  0.20279788568E+02  0.00000000000E+00 0.  1.
</event>
<event>
 7    1  0.5970484E-006  0.7780952E+02  0.7818608E-02  0.1337559E+00
          2   -1    0    0  502    0  0.00000000000E+00  0.00000000000E+00  0.23308702037E+04  0.23308702037E+04  0.00000000000E+00 0. -1.
          1   -1    0    0  501    0 -0.00000000000E+00 -0.00000000000E+00 -0.89210902556E+02  0.89210902556E+02  0.00000000000E+00 0. -1.
         25    2    1    2    0    0 -0.99182298739E+02 -0.42263450661E+02  0.37394344156E+03  0.40875642807E+03  0.12499916943E+03 0.  0.
          2    1    1    2  501    0  0.70226369303E+02 -0.29959960026E+02 -0.50494294882E+02  0.91536965025E+02  0.00000000000E+00 0. -1.
          1    1    1    2  502    0  0.28955929435E+02  0.72223410687E+02  0.19182101544E+04  0.19197877131E+04  0.00000000000E+00 0. -1.
         22    1    3    3    0    0 -0.20763429492E+01 -0.75471629603E+01  0.23797716157E+03  0.23810585944E+03  0.00000000000E+00 0. -1.
         22    1    3    3    0    0 -0.97105955789E+02 -0.34716287700E+02  0.13596627999E+03  0.17065056864E+03  0.00000000000E+00 0. -1.
</event>
<event>
 7    1  0.5970484E-006  0.9435971E+02  0.7818608E-02  0.1349219E+00
          2   -1    0    0  502    0  0.00000000000E+00  0.00000000000E+00  0.69368689790E+03  0.69368689790E+03  0.00000000000E+00 0. -1.
          1   -1    0    0  501    0 -0.00000000000E+00 -0.00000000000E+00 -0.82365620803E+02  0.82365620803E+02  0.00000000000E+00 0. -1.
         25    2    1    2    0    0  0.46601129998E+02  0.95388844262E+01  0.43934765206E+02  0.14077666769E+03  0.12500060375E+03 0.  0.
          2    1    1    2  501    0  0.50788453850E+02 -0.25743110606E+02 -0.24082385897E+01  0.56991002809E+02  0.00000000000E+00 0. -1.
          1    1    1    2  502    0 -0.97389583848E+02  0.16204226179E+02  0.56979475048E+03  0.57828484821E+03  0.00000000000E+00 0. -1.
         22    1    3    3    0    0 -0.20637857886E+02 -0.20682768931E+02 -0.26038291543E+02  0.39136820709E+02  0.00000000000E+00 0. -1.
         22    1    3    3    0    0  0.67238987883E+02  0.30221653357E+02  0.69973056749E+02  0.10163984698E+03  0.00000000000E+00 0. -1.
</event>
<event>
 7    1  0.5970484E-006  0.3746711E+02  0.7818608E-02  0.1550004E+00
          2   -1    0    0  502    0  0.00000000000E+00  0.00000000000E+00  0.73107206808E+03  0.73107206808E+03  0.00000000000E+00 0. -1.
          1   -1    0    0  501    0 -0.00000000000E+00 -0.00000000000E+00 -0.15068448668E+03  0.15068448668E+03  0.00000000000E+00 0. -1.
         25    2    1    2    0    0 -0.52761224054E+02  0.33874662848E+02  0.44234813202E+03  0.46392614116E+03  0.12499741999E+03 0.  0.
          2    1    1    2  501    0  0.20465935674E+02 -0.31252355497E+02 -0.13643148503E+03  0.14145357668E+03  0.00000000000E+00 0. -1.
          1    1    1    2  502    0  0.32295288379E+02 -0.26223073512E+01  0.27447093442E+03  0.27637683692E+03  0.00000000000E+00 0. -1.
         22    1    3    3    0    0  0.15475249856E+02 -0.29121277133E+02  0.22732780273E+03  0.22970733997E+03  0.00000000000E+00 0. -1.
         22    1    3    3    0    0 -0.68236473909E+02  0.62995939981E+02  0.21502032929E+03  0.23421880119E+03  0.00000000000E+00 0. -1.
</event>
<event>
 7    1  0.5970484E-006  0.7982660E+02  0.7818608E-02  0.1414830E+00
          2   -1    0    0  502    0  0.00000000000E+00  0.00000000000E+00  0.91149878249E+03  0.91149878249E+03  0.00000000000E+00 0. -1.
          1   -1    0    0  501    0 -0.00000000000E+00 -0.00000000000E+00 -0.12591760267E+04  0.12591760267E+04  0.00000000000E+00 0. -1.
         25    2    1    2    0    0 -0.70597605867E+02 -0.19292195756E+02  0.33351552765E+02  0.14863828253E+03  0.12499920876E+03 0.  0.
          2    1    1    2  501    0  0.56910716378E+02  0.56310420406E+02 -0.11997231008E+04  0.12023914553E+04  0.00000000000E+00 0. -1.
          1    1    1    2  502    0  0.13686889489E+02 -0.37018224649E+02  0.81869430384E+03  0.81964507138E+03  0.00000000000E+00 0. -1.
         22    1    3    3    0    0 -0.19692061724E+02 -0.30505166216E+02  0.74072058626E+02  0.82492498628E+02  0.00000000000E+00 0.  1.
         22    1    3    3    0    0 -0.50905544143E+02  0.11212970459E+02 -0.40720505861E+02  0.66145783906E+02  0.00000000000E+00 0.  1.
</event>
<event>
 7    1  0.5970484E-006  0.6401377E+02  0.7818608E-02  0.1431901E+00
          2   -1    0    0  502    0  0.00000000000E+00  0.00000000000E+00  0.26456941062E+04  0.26456941062E+04  0.00000000000E+00 0. -1.
          1   -1    0    0  501    0 -0.00000000000E+00 -0.00000000000E+00 -0.72316796580E+03  0.72316796580E+03  0.00000000000E+00 0. -1.
         25    2    1    2    0    0  0.28049906856E+02 -0.68877714718E+01 -0.13966996874E+02  0.12905334085E+03  0.12500179643E+03 0.  0.
          2    1    1    2  501    0 -0.45874193306E+02  0.46227017638E+02 -0.64984990861E+03  0.65310510830E+03  0.00000000000E+00 0. -1.
          1    1    1    2  502    0  0.17824286450E+02 -0.39339246166E+02  0.25863430459E+04  0.25867036228E+04  0.00000000000E+00 0. -1.
         22    1    3    3    0    0  0.19735563076E+02 -0.22977127412E+02 -0.66722513990E+02  0.73275744330E+02  0.00000000000E+00 0. -1.
         22    1    3    3    0    0  0.83143437804E+01  0.16089355940E+02  0.52755517116E+02  0.55777596517E+02  0.00000000000E+00 0. -1.
</event>
<event>
 7    1  0.5970484E-006  0.2820752E+02  0.7818608E-02  0.1620503E+00
          2   -1    0    0  502    0  0.00000000000E+00  0.00000000000E+00  0.48156279281E+03  0.48156279281E+03  0.00000000000E+00 0. -1.
          1   -1    0    0  501    0 -0.00000000000E+00 -0.00000000000E+00 -0.40151131966E+03  0.40151131966E+03  0.00000000000E+00 0. -1.
         25    2    1    2    0    0  0.11970254151E+02 -0.45476341081E+00 -0.29225902413E+03  0.31809395680E+03  0.12499973748E+03 0.  0.
          2    1    1    2  501    0 -0.17855971222E+02 -0.27131869973E+02 -0.93157907661E+02  0.98657842245E+02  0.00000000000E+00 0. -1.
          1    1    1    2  502    0  0.58857170713E+01  0.27586633384E+02  0.46546840494E+03  0.46632231343E+03  0.00000000000E+00 0. -1.
         22    1    3    3    0    0  0.12906802174E+02  0.44783664737E+02 -0.38845089458E+02  0.60672095271E+02  0.00000000000E+00 0.  1.
         22    1    3    3    0    0 -0.93654802270E+00 -0.45238428148E+02 -0.25341393468E+03  0.25742186153E+03  0.00000000000E+00 0.  1.
</event>
<event>
 7    1  0.5970484E-006  0.5359897E+02  0.7818608E-02  0.1488483E+00
          2   -1    0    0  502    0  0.00000000000E+00  0.00000000000E+00  0.17731484630E+03  0.17731484630E+03  0.00000000000E+00 0. -1.
          1   -1    0    0  501    0 -0.00000000000E+00 -0.00000000000E+00 -0.29986419054E+03  0.29986419054E+03  0.00000000000E+00 0. -1.
         25    2    1    2    0    0  0.75696201996E+02  0.36815209734E+02 -0.45762546493E+01  0.15076674716E+03  0.12499758110E+03 0.  0.
          2    1    1    2  501    0 -0.33138675379E+02 -0.84369628825E+01 -0.21447925130E+03  0.21718817506E+03  0.00000000000E+00 0. -1.
          1    1    1    2  502    0 -0.42557526618E+02 -0.28378246851E+02  0.96506161705E+02  0.10922411461E+03  0.00000000000E+00 0. -1.
         22    1    3    3    0    0  0.83843769039E+02  0.66360273769E+02 -0.29879040138E+02  0.11102351364E+03  0.00000000000E+00 0. -1.
         22    1    3    3    0    0 -0.81475670421E+01 -0.29545064036E+02  0.25302785488E+02  0.39743233525E+02  0.00000000000E+00 0. -1.
</event>
<event>
 7    1  0.5970484E-006  0.4750095E+02  0.7818608E-02  0.1522484E+00
          2   -1    0    0  502    0  0.00000000000E+00  0.00000000000E+00  0.50860549913E+03  0.50860549913E+03  0.00000000000E+00 0. -1.
          1   -1    0    0  501    0 -0.00000000000E+00 -0.00000000000E+00 -0.97926077946E+02  0.97926077946E+02  0.00000000000E+00 0. -1.
         25    2    1    2    0    0 -0.31880538669E+02  0.53457980988E+00  0.25685668136E+03  0.28743450494E+03  0.12500634124E+03 0.  0.
          2    1    1    2  501    0 -0.11100909535E+02 -0.28514491467E+02 -0.76888844412E+02  0.82753856775E+02  0.00000000000E+00 0. -1.
          1    1    1    2  502    0  0.42981448204E+02  0.27979911657E+02  0.23071158424E+03  0.23634321536E+03  0.00000000000E+00 0. -1.
         22    1    3    3    0    0 -0.50863634890E+02 -0.51312466024E+02  0.12320018354E+03  0.14282284042E+03  0.00000000000E+00 0. -1.
         22    1    3    3    0    0  0.18983096221E+02  0.51847045834E+02  0.13365649782E+03  0.14461166452E+03  0.00000000000E+00 0. -1.
</event>
<event>
 7    1  0.5970484E-006  0.4364293E+02  0.7818608E-02  0.1584698E+00
          2   -1    0    0  502    0  0.00000000000E+00  0.00000000000E+00  0.41444870266E+03  0.41444870266E+03  0.00000000000E+00 0. -1.
          1   -1    0    0  501    0 -0.00000000000E+00 -0.00000000000E+00 -0.75070272411E+03  0.75070272411E+03  0.00000000000E+00 0. -1.
         25    2    1    2    0    0  0.26388692813E+02 -0.30494855474E+01 -0.28174853233E+03  0.30936868039E+03  0.12498432888E+03 0.  0.
          2    1    1    2  501    0  0.15256236174E+02  0.16363413285E+02 -0.45367483193E+03  0.45422611898E+03  0.00000000000E+00 0. -1.
          1    1    1    2  502    0 -0.41644928987E+02 -0.13313927738E+02  0.39916934280E+03  0.40155662741E+03  0.00000000000E+00 0. -1.
         22    1    3    3    0    0 -0.42703845564E+02 -0.29147439258E+02 -0.88623301820E+02  0.10260254025E+03  0.00000000000E+00 0.  1.
         22    1    3    3    0    0  0.69092538378E+02  0.26097953711E+02 -0.19312523051E+03  0.20676614014E+03  0.00000000000E+00 0.  1.
</event>
<event>
 7    1  0.5970484E-006  0.1852121E+03  0.7818608E-02  0.1186032E+00
          2   -1    0    0  502    0  0.00000000000E+00  0.00000000000E+00  0.84595872717E+03  0.84595872717E+03  0.00000000000E+00 0. -1.
          1   -1    0    0  501    0 -0.00000000000E+00 -0.00000000000E+00 -0.16337214686E+04  0.16337214686E+04  0.00000000000E+00 0. -1.
         25    2    1    2    0    0  0.99462532031E+02 -0.15918216968E+03  0.14984442737E+02  0.22600544787E+03  0.12498868157E+03 0.  0.
          2    1    1    2  501    0  0.40887301599E+02  0.18307212300E+03 -0.15153871530E+04  0.15269529780E+04  0.00000000000E+00 0. -1.
          1    1    1    2  502    0 -0.14034983363E+03 -0.23889953319E+02  0.71263996882E+03  0.72672176989E+03  0.00000000000E+00 0. -1.
         22    1    3    3    0    0 -0.73889650327E+00 -0.10374255886E+03  0.35531106498E+02  0.10966095028E+03  0.00000000000E+00 0. -1.
         22    1    3    3    0    0  0.10020142853E+03 -0.55439610819E+02 -0.20546663762E+02  0.11634449759E+03  0.00000000000E+00 0. -1.
</event>
<event>
 7    1  0.5970484E-006  0.6520498E+02  0.7818608E-02  0.1423806E+00
          2   -1    0    0  502    0  0.00000000000E+00  0.00000000000E+00  0.52702268845E+03  0.52702268845E+03  0.00000000000E+00 0. -1.
          1   -1    0    0  501    0 -0.00000000000E+00 -0.00000000000E+00 -0.65066754609E+03  0.65066754609E+03  0.00000000000E+00 0. -1.
         25    2    1    2    0    0 -0.97438839981E+02 -0.73199323679E+01 -0.39241464395E+03  0.42327549820E+03  0.12499994258E+03 0.  0.
          2    1    1    2  501    0  0.35619177647E+02  0.27650701388E+02 -0.23863291515E+03  0.24285583233E+03  0.00000000000E+00 0. -1.
          1    1    1    2  502    0  0.61819662335E+02 -0.20330769020E+02  0.50740270146E+03  0.51155890400E+03  0.00000000000E+00 0. -1.
         22    1    3    3    0    0 -0.11763499969E+03 -0.36375561791E+02 -0.31212364505E+03  0.33553292602E+03  0.00000000000E+00 0.  1.
         22    1    3    3    0    0  0.20196159708E+02  0.29055629423E+02 -0.80290998900E+02  0.87742572179E+02  0.00000000000E+00 0.  1.
</event>
<event>
 7    1  0.5970484E-006  0.4396214E+02  0.7818608E-02  0.1578357E+00
          2   -1    0    0  502    0  0.00000000000E+00  0.00000000000E+00  0.17732839475E+04  0.17732839475E+04  0.00000000000E+00 0. -1.
          1   -1    0    0  501    0 -0.00000000000E+00 -0.00000000000E+00 -0.19600023559E+03  0.19600023559E+03  0.00000000000E+00 0. -1.
         25    2    1    2    0    0  0.37950319764E+02  0.54299612658E+02 -0.17917490931E+02  0.14259879012E+03  0.12499881503E+03 0.  0.
          2    1    1    2  501    0 -0.91092426951E+01 -0.21222280629E+02 -0.11430563186E+03  0.11661535479E+03  0.00000000000E+00 0. -1.
          1    1    1    2  502    0 -0.28841077069E+02 -0.33077332029E+02  0.17095068347E+04  0.17100700382E+04  0.00000000000E+00 0. -1.
         22    1    3    3    0    0  0.36691602828E+00  0.29542471835E+02  0.51790525055E+02  0.59625084948E+02  0.00000000000E+00 0. -1.
         22    1    3    3    0    0  0.37583403736E+02  0.24757140823E+02 -0.69708015987E+02  0.82973705177E+02  0.00000000000E+00 0. -1.
</event>
<event>
 7    1  0.5970484E-006  0.1513302E+03  0.7818608E-02  0.1263830E+00
          2   -1    0    0  502    0  0.00000000000E+00  0.00000000000E+00  0.94931206682E+03  0.94931206682E+03  0.00000000000E+00 0. -1.
          1   -1    0    0  501    0 -0.00000000000E+00 -0.00000000000E+00 -0.18596657587E+03  0.18596657587E+03  0.00000000000E+00 0. -1.
         25    2    1    2    0    0 -0.50821698566E+02  0.70965848039E+02  0.22666660546E+03  0.27317023576E+03  0.12500092417E+03 0.  0.
          2    1    1    2  501    0  0.70448955646E+02 -0.14588309685E+03 -0.11954183621E+03  0.20133351411E+03  0.00000000000E+00 0. -1.
          1    1    1    2  502    0 -0.19627257080E+02  0.74917248813E+02  0.65622072171E+03  0.66077489282E+03  0.00000000000E+00 0. -1.
         22    1    3    3    0    0 -0.66347637432E+02  0.99652615654E+02  0.18252528783E+03  0.21828452418E+03  0.00000000000E+00 0. -1.
         22    1    3    3    0    0  0.15525938866E+02 -0.28686767615E+02  0.44141317627E+02  0.54885711581E+02  0.00000000000E+00 0. -1.
</event>
<event>
 7    1  0.5970484E-006  0.4802173E+02  0.7818608E-02  0.1484559E+00
          2   -1    0    0  502    0  0.00000000000E+00  0.00000000000E+00  0.26546781271E+04  0.26546781271E+04  0.00000000000E+00 0. -1.
          1   -1    0    0  501    0 -0.00000000000E+00 -0.00000000000E+00 -0.67975274160E+03  0.67975274160E+03  0.00000000000E+00 0. -1.
         25    2    1    2    0    0  0.25843484155E+02  0.51877437416E+02  0.86657551875E+02  0.16276565766E+03  0.12499589525E+03 0.  0.
          2    1    1    2  501    0 -0.38826492281E+02 -0.56131145852E+01 -0.64087067970E+03  0.64207027003E+03  0.00000000000E+00 0. -1.
          1    1    1    2  502    0  0.12983008126E+02 -0.46264322831E+02  0.25291385134E+04  0.25295949411E+04  0.00000000000E+00 0. -1.
         22    1    3    3    0    0  0.61158703568E+02 -0.13700278888E+02  0.47331947999E+02  0.78539149251E+02  0.00000000000E+00 0.  1.
         22    1    3    3    0    0 -0.35315219413E+02  0.65577716304E+02  0.39325603876E+02  0.84226508405E+02  0.00000000000E+00 0.  1.
</event>
<event>
 7    1  0.5970484E-006  0.5841934E+02  0.7818608E-02  0.1517053E+00
          2   -1    0    0  502    0  0.00000000000E+00  0.00000000000E+00  0.14731387315E+04  0.14731387315E+04  0.00000000000E+00 0. -1.
          1   -1    0    0  501    0 -0.00000000000E+00 -0.00000000000E+00 -0.18723435323E+03  0.18723435323E+03  0.00000000000E+00 0. -1.
         25    2    1    2    0    0 -0.41910698177E+02  0.61179645609E+01  0.17883921803E+03  0.22226613121E+03  0.12499932426E+03 0.  0.
          2    1    1    2  501    0  0.50435785532E+02 -0.30469539355E+02 -0.16014112444E+03  0.17063804098E+03  0.00000000000E+00 0. -1.
          1    1    1    2  502    0 -0.85250873546E+01  0.24351574794E+02  0.12672062847E+04  0.12674689125E+04  0.00000000000E+00 0. -1.
         22    1    3    3    0    0 -0.55826507598E+02  0.29881964690E+02  0.28523630236E+02  0.69448745462E+02  0.00000000000E+00 0.  1.
         22    1    3    3    0    0  0.13915809421E+02 -0.23764000129E+02  0.15031558779E+03  0.15281738575E+03  0.00000000000E+00 0.  1.
</event>
<event>
 7    1  0.5970484E-006  0.1044134E+03  0.7818608E-02  0.1327941E+00
          2   -1    0    0  502    0  0.00000000000E+00  0.00000000000E+00  0.14916485036E+04  0.14916485036E+04  0.00000000000E+00 0. -1.
          1   -1    0    0  501    0 -0.00000000000E+00 -0.00000000000E+00 -0.85389483604E+02  0.85389483604E+02  0.00000000000E+00 0. -1.
         25    2    1    2    0    0  0.68784942990E+02  0.74832418933E+00  0.18755574321E+03  0.23565916443E+03  0.12500462631E+03 0.  0.
          2    1    1    2  501    0  0.23218226275E+02  0.57377961595E+02 -0.42759228893E+02  0.75230766071E+02  0.00000000000E+00 0. -1.
          1    1    1    2  502    0 -0.92003169265E+02 -0.58126285784E+02  0.12614625057E+04  0.12661480567E+04  0.00000000000E+00 0. -1.
         22    1    3    3    0    0  0.37425386860E+02 -0.56672748974E+02  0.53381422978E+02  0.86383079229E+02  0.00000000000E+00 0.  1.
         22    1    3    3    0    0  0.31359556130E+02  0.57421073163E+02  0.13417432023E+03  0.14927608520E+03  0.00000000000E+00 0.  1.
</event>
<event>
 7    1  0.5970484E-006  0.6244052E+02  0.7818608E-02  0.1416821E+00
          2   -1    0    0  502    0  0.00000000000E+00  0.00000000000E+00  0.21494350654E+03  0.21494350654E+03  0.00000000000E+00 0. -1.
          1   -1    0    0  501    0 -0.00000000000E+00 -0.00000000000E+00 -0.36066005786E+03  0.36066005786E+03  0.00000000000E+00 0. -1.
         25    2    1    2    0    0 -0.37278396460E+02 -0.68656904239E+02 -0.95902926016E+02  0.17585552845E+03  0.12499738527E+03 0.  0.
          2    1    1    2  501    0 -0.11862639332E+02  0.61320215011E+02 -0.21675277202E+03  0.22557184035E+03  0.00000000000E+00 0. -1.
          1    1    1    2  502    0  0.49141035793E+02  0.73366892286E+01  0.16693914672E+03  0.17417619561E+03  0.00000000000E+00 0. -1.
         22    1    3    3    0    0  0.64102091638E+01  0.24490239260E+01  0.26686952699E+02  0.27555071114E+02  0.00000000000E+00 0.  1.
         22    1    3    3    0    0 -0.43688605624E+02 -0.71105928165E+02 -0.12258987872E+03  0.14830045733E+03  0.00000000000E+00 0.  1.
</event>
<event>
 7    1  0.5970484E-006  0.1052764E+03  0.7818608E-02  0.1383754E+00
          2   -1    0    0  502    0  0.00000000000E+00  0.00000000000E+00  0.12892408743E+04  0.12892408743E+04  0.00000000000E+00 0. -1.
          1   -1    0    0  501    0 -0.00000000000E+00 -0.00000000000E+00 -0.63307748467E+03  0.63307748467E+03  0.00000000000E+00 0. -1.
         25    2    1    2    0    0 -0.35538613817E+02  0.78012450506E+02  0.53948829570E+02  0.16089053202E+03  0.12500540619E+03 0.  0.
          2    1    1    2  501    0  0.73799228076E+02 -0.76617913315E+02 -0.57441147827E+03  0.58417906250E+03  0.00000000000E+00 0. -1.
          1    1    1    2  502    0 -0.38260614259E+02 -0.13945371911E+01  0.11766260383E+04  0.11772487644E+04  0.00000000000E+00 0. -1.
         22    1    3    3    0    0 -0.63315266365E+02  0.95434525123E+02  0.57060449283E+02  0.12795493899E+03  0.00000000000E+00 0. -1.
         22    1    3    3    0    0  0.27776652548E+02 -0.17422074617E+02 -0.31116197131E+01  0.32935593026E+02  0.00000000000E+00 0. -1.
</event>
<event>
 7    1  0.5970484E-006  0.1176723E+03  0.7818608E-02  0.1305884E+00
          2   -1    0    0  502    0  0.00000000000E+00  0.00000000000E+00  0.21124329014E+03  0.21124329014E+03  0.00000000000E+00 0. -1.
          1   -1    0    0  501    0 -0.00000000000E+00 -0.00000000000E+00 -0.33386749309E+03  0.33386749309E+03  0.00000000000E+00 0. -1.
         25    2    1    2    0    0 -0.13593220100E+03  0.89799580745E+02  0.93131324667E+02  0.22547628505E+03  0.12499833404E+03 0.  0.
          2    1    1    2  501    0  0.11110496858E+03 -0.27622583294E+02 -0.22460601304E+03  0.25210153162E+03  0.00000000000E+00 0. -1.
          1    1    1    2  502    0  0.24827232426E+02 -0.62176997451E+02  0.88504854224E+01  0.67532966573E+02  0.00000000000E+00 0. -1.
         22    1    3    3    0    0 -0.61704916420E+02  0.11658884377E+02 -0.23151676823E+02  0.66928517353E+02  0.00000000000E+00 0. -1.
         22    1    3    3    0    0 -0.74227284584E+02  0.78140696368E+02  0.11628300149E+03  0.15854776769E+03  0.00000000000E+00 0. -1.
</event>
<event>
 7    1  0.5970484E-006  0.9235917E+02  0.7818608E-02  0.1448944E+00
          2   -1    0    0  502    0  0.00000000000E+00  0.00000000000E+00  0.24078000033E+04  0.24078000033E+04  0.00000000000E+00 0. -1.
          1   -1    0    0  501    0 -0.00000000000E+00 -0.00000000000E+00 -0.18093131881E+03  0.18093131881E+03  0.00000000000E+00 0. -1.
         25    2    1    2    0    0 -0.97349873999E+02 -0.12420032694E+02  0.12338541242E+04  0.12440468091E+04  0.12500083314E+03 0.  0.
          2    1    1    2  501    0  0.70354811241E+01  0.25400016568E+02 -0.17305505162E+03  0.17505059190E+03  0.00000000000E+00 0. -1.
          1    1    1    2  502    0  0.90314392875E+02 -0.12979983875E+02  0.11660696119E+04  0.11696339211E+04  0.00000000000E+00 0. -1.
         22    1    3    3    0    0 -0.51399743132E+02 -0.55787052577E+02  0.35966092626E+03  0.36757327257E+03  0.00000000000E+00 0.  1.
         22    1    3    3    0    0 -0.45950130867E+02  0.43367019883E+02  0.87419319794E+03  0.87647353654E+03  0.00000000000E+00 0.  1.
</event>
<event>
 7    1  0.5970484E-006  0.5838783E+02  0.7818608E-02  0.1425009E+00
          2   -1    0    0  502    0  0.00000000000E+00  0.00000000000E+00  0.24249834375E+03  0.24249834375E+03  0.00000000000E+00 0. -1.
          1   -1    0    0  501    0 -0.00000000000E+00 -0.00000000000E+00 -0.47287157216E+03  0.47287157216E+03  0.00000000000E+00 0. -1.
         25    2    1    2    0    0 -0.69452287451E+02  0.11736426373E+02  0.14384226183E+03  0.20316709110E+03  0.12499962672E+03 0.  0.
          2    1    1    2  501    0  0.34424325021E+02 -0.47269764736E+02 -0.43195287443E+03  0.43589304943E+03  0.00000000000E+00 0. -1.
          1    1    1    2  502    0  0.35027962430E+02  0.35533338363E+02  0.57737384184E+02  0.76309775387E+02  0.00000000000E+00 0. -1.
         22    1    3    3    0    0 -0.92142175611E+02 -0.28054443172E+02  0.83964813221E+02  0.12777841041E+03  0.00000000000E+00 0.  1.
         22    1    3    3    0    0  0.22689888160E+02  0.39790869546E+02  0.59877448609E+02  0.75388680688E+02  0.00000000000E+00 0.  1.
</event>
<event>
 7    1  0.5970484E-006  0.1043787E+03  0.7818608E-02  0.1391408E+00
          2   -1    0    0  502    0  0.00000000000E+00  0.00000000000E+00  0.22540975136E+04  0.22540975136E+04  0.00000000000E+00 0. -1.
          1   -1    0    0  501    0 -0.00000000000E+00 -0.00000000000E+00 -0.11153013311E+03  0.11153013311E+03  0.00000000000E+00 0. -1.
         25    2    1    2    0    0 -0.12655644687E+03 -0.18328406674E+01  0.50127501943E+03  0.53190307975E+03  0.12499739034E+03 0.  0.
          2    1    1    2  501    0  0.26631681581E+02  0.24672602093E+02 -0.91222017330E+02  0.98180650861E+02  0.00000000000E+00 0. -1.
          1    1    1    2  502    0  0.99924765290E+02 -0.22839761426E+02  0.17325143783E+04  0.17355439161E+04  0.00000000000E+00 0. -1.
         22    1    3    3    0    0 -0.56308168541E+02 -0.53103470338E+02  0.33973536039E+03  0.34844038731E+03  0.00000000000E+00 0.  1.
         22    1    3    3    0    0 -0.70248278330E+02  0.51270629671E+02  0.16153965904E+03  0.18346269244E+03  0.00000000000E+00 0.  1.
</event>
<event>
 7    1  0.5970484E-006  0.9429523E+02  0.7818608E-02  0.1357743E+00
          2   -1    0    0  502    0  0.00000000000E+00  0.00000000000E+00  0.10263486485E+04  0.10263486485E+04  0.00000000000E+00 0. -1.
          1   -1    0    0  501    0 -0.00000000000E+00 -0.00000000000E+00 -0.32687412257E+03  0.32687412257E+03  0.00000000000E+00 0. -1.
         25    2    1    2    0    0 -0.35182138893E+02 -0.62338521397E+02  0.41739750020E+02  0.14998072202E+03  0.12501254376E+03 0.  0.
          2    1    1    2  501    0  0.85654906591E+02  0.46158912127E+02 -0.26328979807E+03  0.28069365145E+03  0.00000000000E+00 0. -1.
          1    1    1    2  502    0 -0.50472767698E+02  0.16179609270E+02  0.92102457394E+03  0.92254839756E+03  0.00000000000E+00 0. -1.
         22    1    3    3    0    0  0.20684323201E+02  0.19553905313E+02  0.42132818525E+02  0.50846542028E+02  0.00000000000E+00 0. -1.
         22    1    3    3    0    0 -0.55866462094E+02 -0.81892426710E+02 -0.39306850516E+00  0.99134179990E+02  0.00000000000E+00 0. -1.
</event>
<event>
 7    1  0.5970484E-006  0.9096273E+02  0.7818608E-02  0.1396695E+00
          2   -1    0    0  502    0  0.00000000000E+00  0.00000000000E+00  0.22231051388E+04  0.22231051388E+04  0.00000000000E+00 0. -1.
          1   -1    0    0  501    0 -0.00000000000E+00 -0.00000000000E+00 -0.50645233069E+03  0.50645233069E+03  0.00000000000E+00 0. -1.
         25    2    1    2    0    0 -0.68625390097E+02 -0.40294336510E+02  0.22272499582E+03  0.26751798611E+03  0.12500548551E+03 0.  0.
          2    1    1    2  501    0  0.50656107582E+02  0.75959365258E+02 -0.47954679846E+03  0.48816083243E+03  0.00000000000E+00 0. -1.
          1    1    1    2  502    0  0.17969282515E+02 -0.35665028748E+02  0.19734746108E+04  0.19738786510E+04  0.00000000000E+00 0. -1.
         22    1    3    3    0    0 -0.49542217693E+02  0.16950630104E+02  0.19352236915E+03  0.20048107780E+03  0.00000000000E+00 0.  1.
         22    1    3    3    0    0 -0.19083172404E+02 -0.57244966614E+02  0.29202626676E+02  0.67036908314E+02  0.00000000000E+00 0.  1.
</event>
<event>
 7    1  0.5970484E-006  0.1356412E+03  0.7818608E-02  0.1305169E+00
          2   -1    0    0  502    0  0.00000000000E+00  0.00000000000E+00  0.18027275328E+03  0.18027275328E+03  0.00000000000E+00 0. -1.
          1   -1    0    0  501    0 -0.00000000000E+00 -0.00000000000E+00 -0.98280511828E+03  0.98280511828E+03  0.00000000000E+00 0. -1.
         25    2    1    2    0    0  0.15834659172E+03  0.64090022813E+02 -0.23232247247E+02  0.21294684114E+03  0.12500178281E+03 0.  0.
          2    1    1    2  501    0 -0.57959471894E+02  0.76506269982E+01 -0.81856292385E+03  0.82064797128E+03  0.00000000000E+00 0. -1.
          1    1    1    2  502    0 -0.10038711983E+03 -0.71740649811E+02  0.39262806090E+02  0.12948305914E+03  0.00000000000E+00 0. -1.
         22    1    3    3    0    0  0.12155334371E+03  0.90663933577E+02  0.16616834647E+02  0.15254928192E+03  0.00000000000E+00 0. -1.
         22    1    3    3    0    0  0.36793248009E+02 -0.26573910764E+02 -0.39849081894E+02  0.60397559223E+02  0.00000000000E+00 0. -1.
</event>
<event>
 7    1  0.5970484E-006  0.8756772E+02  0.7818608E-02  0.1458190E+00
          2   -1    0    0  502    0  0.00000000000E+00  0.00000000000E+00  0.16628245751E+03  0.16628245751E+03  0.00000000000E+00 0. -1.
          1   -1    0    0  501    0 -0.00000000000E+00 -0.00000000000E+00 -0.41294850562E+03  0.41294850562E+03  0.00000000000E+00 0. -1.
         25    2    1    2    0    0 -0.62342848810E+02  0.25855568575E+02 -0.12853154580E+03  0.19157487567E+03  0.12500173398E+03 0.  0.
          2    1    1    2  501    0  0.83812482739E+02 -0.40479361910E+02 -0.24294855468E+03  0.26016746765E+03  0.00000000000E+00 0. -1.
          1    1    1    2  502    0 -0.21469633929E+02  0.14623793334E+02  0.12481405237E+03  0.12748861981E+03  0.00000000000E+00 0. -1.
         22    1    3    3    0    0 -0.40771367749E+02 -0.47805528320E+02 -0.40366265655E+02  0.74680039964E+02  0.00000000000E+00 0.  1.
         22    1    3    3    0    0 -0.21571481061E+02  0.73661096895E+02 -0.88165280148E+02  0.11689483571E+03  0.00000000000E+00 0.  1.
</event>
<event>
 7    1  0.5970484E-006  0.7280406E+02  0.7818608E-02  0.1395024E+00
          2   -1    0    0  502    0  0.00000000000E+00  0.00000000000E+00  0.10544984023E+04  0.10544984023E+04  0.00000000000E+00 0. -1.
          1   -1    0    0  501    0 -0.00000000000E+00 -0.00000000000E+00 -0.84028087420E+02  0.84028087420E+02  0.00000000000E+00 0. -1.
         25    2    1    2    0    0  0.43889687838E+02 -0.88253678277E+02  0.81819605982E+02  0.17898145183E+03  0.12499958300E+03 0.  0.
          2    1    1    2  501    0  0.26110842838E+01  0.68391450037E+02 -0.10097936838E+01  0.68448724477E+02  0.00000000000E+00 0. -1.
          1    1    1    2  502    0 -0.46500772122E+02  0.19862228240E+02  0.88966050262E+03  0.89109631345E+03  0.00000000000E+00 0. -1.
         22    1    3    3    0    0  0.82866728569E+02 -0.55113487010E+02  0.25181030697E+02  0.10265707701E+03  0.00000000000E+00 0.  1.
         22    1    3    3    0    0 -0.38977040730E+02 -0.33140191267E+02  0.56638575286E+02  0.76324374820E+02  0.00000000000E+00 0.  1.
</event>
<event>
 7    1  0.5970484E-006  0.6171419E+02  0.7818608E-02  0.1414341E+00
          2   -1    0    0  502    0  0.00000000000E+00  0.00000000000E+00  0.33764991835E+02  0.33764991835E+02  0.00000000000E+00 0. -1.
          1   -1    0    0  501    0 -0.00000000000E+00 -0.00000000000E+00 -0.15991256806E+04  0.15991256806E+04  0.00000000000E+00 0. -1.
         25    2    1    2    0    0  0.76389870535E+02  0.84320087472E+01 -0.31266799428E+03  0.34537314356E+03  0.12495928357E+03 0.  0.
          2    1    1    2  501    0 -0.50477482388E+02  0.35778667142E+02 -0.12298613455E+04  0.12314166713E+04  0.00000000000E+00 0. -1.
          1    1    1    2  502    0 -0.25912388147E+02 -0.44210675890E+02 -0.22831348980E+02  0.56100857555E+02  0.00000000000E+00 0. -1.
         22    1    3    3    0    0  0.94145116772E+02 -0.28370724059E+02 -0.26463002844E+03  0.28230701895E+03  0.00000000000E+00 0.  1.
         22    1    3    3    0    0 -0.17755246237E+02  0.36802732806E+02 -0.48037965845E+02  0.63066124611E+02  0.00000000000E+00 0.  1.
</event>
<event>
 7    1  0.5970484E-006  0.1016557E+03  0.7818608E-02  0.1373790E+00
          2   -1    0    0  502    0  0.00000000000E+00  0.00000000000E+00  0.26535100722E+03  0.26535100722E+03  0.00000000000E+00 0. -1.
          1   -1    0    0  501    0 -0.00000000000E+00 -0.00000000000E+00 -0.27490948366E+04  0.27490948366E+04  0.00000000000E+00 0. -1.
         25    2    1    2    0    0 -0.89108708297E+02 -0.76583619593E+02  0.18919280738E+02  0.17258503618E+03  0.12498897089E+03 0.  0.
          2    1    1    2  501    0  0.48074089332E+02  0.89477489553E+02 -0.26685529574E+04  0.26704853914E+04  0.00000000000E+00 0. -1.
          1    1    1    2  502    0  0.41034618964E+02 -0.12893869959E+02  0.16588984733E+03  0.17137541621E+03  0.00000000000E+00 0. -1.
         22    1    3    3    0    0 -0.86833067920E+02 -0.10717699623E+03  0.27664918261E+02  0.14068488870E+03  0.00000000000E+00 0. -1.
         22    1    3    3    0    0 -0.22756403769E+01  0.30593376640E+02 -0.87456375230E+01  0.31900147477E+02  0.00000000000E+00 0. -1.
</event>
<event>
 7    1  0.5970484E-006  0.1064425E+03  0.7818608E-02  0.1384439E+00
          2   -1    0    0  502    0  0.00000000000E+00  0.00000000000E+00  0.20158141961E+03  0.20158141961E+03  0.00000000000E+00 0. -1.
          1   -1    0    0  501    0 -0.00000000000E+00 -0.00000000000E+00 -0.82288387429E+03  0.82288387429E+03  0.00000000000E+00 0. -1.
         25    2    1    2    0    0 -0.79427345991E+02 -0.48543432122E+02 -0.15476418413E+03  0.21964033341E+03  0.12499902110E+03 0.  0.
          2    1    1    2  501    0  0.11712962999E+02 -0.35789168870E+02 -0.61776055102E+03  0.61890722770E+03  0.00000000000E+00 0. -1.
          1    1    1    2  502    0  0.67714382992E+02  0.84332600993E+02  0.15122228047E+03  0.18591773279E+03  0.00000000000E+00 0. -1.
         22    1    3    3    0    0 -0.90289567727E+02 -0.74720619486E+02 -0.86306452899E+02  0.14554786439E+03  0.00000000000E+00 0. -1.
         22    1    3    3    0    0  0.10862221736E+02  0.26177187364E+02 -0.68457731232E+02  0.74092469015E+02  0.00000000000E+00 0. -1.
</event>
<event>
 7    1  0.5970484E-006  0.8914938E+02  0.7818608E-02  0.1429643E+00
          2   -1    0    0  502    0  0.00000000000E+00  0.00000000000E+00  0.31202024491E+02  0.31202024491E+02  0.00000000000E+00 0. -1.
          1   -1    0    0  501    0 -0.00000000000E+00 -0.00000000000E+00 -0.72730750333E+03  0.72730750333E+03  0.00000000000E+00 0. -1.
         25    2    1    2    0    0  0.31836799482E+02 -0.58303299604E+02 -0.37265581715E+03  0.39863634372E+03  0.12500287968E+03 0.  0.
          2    1    1    2  501    0  0.85585756785E+01 -0.30363396227E+02 -0.20064806482E+03  0.20311285278E+03  0.00000000000E+00 0. -1.
          1    1    1    2  502    0 -0.40395375161E+02  0.88666695831E+02 -0.12280159687E+03  0.15676033133E+03  0.00000000000E+00 0. -1.
         22    1    3    3    0    0  0.65000642678E+02 -0.41906640802E+02 -0.11657100543E+03  0.13989299267E+03  0.00000000000E+00 0.  1.
         22    1    3    3    0    0 -0.33163843196E+02 -0.16396658801E+02 -0.25608481172E+03  0.25874335104E+03  0.00000000000E+00 0.  1.
</event>
<event>
 7    1  0.5970484E-006  0.6737731E+02  0.7818608E-02  0.1454219E+00
          2   -1    0    0  502    0  0.00000000000E+00  0.00000000000E+00  0.28861293852E+04  0.28861293852E+04  0.00000000000E+00 0. -1.
          1   -1    0    0  501    0 -0.00000000000E+00 -0.00000000000E+00 -0.92807053685E+02  0.92807053685E+02  0.00000000000E+00 0. -1.
         25    2    1    2    0    0  0.17576967220E+02  0.62678714881E+02  0.33587000218E+03  0.36424022575E+03  0.12499885047E+03 0.  0.
          2    1    1    2  501    0  0.31074691355E+02 -0.15564699688E+02 -0.74306017693E+02  0.82032192368E+02  0.00000000000E+00 0. -1.
          1    1    1    2  502    0 -0.48651658575E+02 -0.47114015192E+02  0.25317583470E+04  0.25326640208E+04  0.00000000000E+00 0. -1.
         22    1    3    3    0    0 -0.20092287017E+02  0.35912214025E+02  0.21380166564E+02  0.46373469097E+02  0.00000000000E+00 0. -1.
         22    1    3    3    0    0  0.37669254237E+02  0.26766500855E+02  0.31448983561E+03  0.31786675666E+03  0.00000000000E+00 0. -1.
</event>
<event>
 7    1  0.5970484E-006  0.1514203E+03  0.7818608E-02  0.1364810E+00
          2   -1    0    0  502    0  0.00000000000E+00  0.00000000000E+00  0.12294732062E+04  0.12294732062E+04  0.00000000000E+00 0. -1.
          1   -1    0    0  501    0 -0.00000000000E+00 -0.00000000000E+00 -0.73873032030E+03  0.73873032030E+03  0.00000000000E+00 0. -1.
         25    2    1    2    0    0  0.65855173919E+02  0.13833671737E+03 -0.19672268824E+03  0.27892323636E+03  0.12499761761E+03 0.  0.
          2    1    1    2  501    0  0.25623051802E+02 -0.17638759248E+02 -0.49559258090E+03  0.49656789350E+03  0.00000000000E+00 0. -1.
          1    1    1    2  502    0 -0.91478225722E+02 -0.12069795813E+03  0.11830581551E+04  0.11927123967E+04  0.00000000000E+00 0. -1.
         22    1    3    3    0    0  0.87050658533E+02  0.54807302734E+02 -0.14704123932E+03  0.17945134061E+03  0.00000000000E+00 0.  1.
         22    1    3    3    0    0 -0.21195484613E+02  0.83529414641E+02 -0.49681448918E+02  0.99471895754E+02  0.00000000000E+00 0.  1.
</event>
<event>
 7    1  0.5970484E-006  0.9423775E+02  0.7818608E-02  0.1394288E+00
          2   -1    0    0  502    0  0.00000000000E+00  0.00000000000E+00  0.12630742945E+04  0.12630742945E+04  0.00000000000E+00 0. -1.
          1   -1    0    0  501    0 -0.00000000000E+00 -0.00000000000E+00 -0.26773135730E+03  0.26773135730E+03  0.00000000000E+00 0. -1.
         25    2    1    2    0    0 -0.98377061697E+02 -0.88223731910E+02  0.40036759369E+03  0.43974733827E+03  0.12498815264E+03 0.  0.
          2    1    1    2  501    0  0.73276637360E+02  0.57990596098E+02 -0.23876096840E+03  0.25639651879E+03  0.00000000000E+00 0. -1.
          1    1    1    2  502    0  0.25100424337E+02  0.30233135811E+02  0.83373631191E+03  0.83466179474E+03  0.00000000000E+00 0. -1.
         22    1    3    3    0    0 -0.93546662761E+02 -0.10909514619E+01  0.23085241879E+03  0.24908835290E+03  0.00000000000E+00 0. -1.
         22    1    3    3    0    0 -0.48303989362E+01 -0.87132780448E+02  0.16951517490E+03  0.19065898538E+03  0.00000000000E+00 0. -1.
</event>
<event>
 7    1  0.5970484E-006  0.1059999E+03  0.7818608E-02  0.1418991E+00
          2   -1    0    0  502    0  0.00000000000E+00  0.00000000000E+00  0.38469246811E+03  0.38469246811E+03  0.00000000000E+00 0. -1.
          1   -1    0    0  501    0 -0.00000000000E+00 -0.00000000000E+00 -0.13324564199E+04  0.13324564199E+04  0.00000000000E+00 0. -1.
         25    2    1    2    0    0 -0.92177297963E+02 -0.89089086947E+02  0.15045942354E+03  0.23387387960E+03  0.12500173500E+03 0.  0.
          2    1    1    2  501    0  0.86492387958E+02  0.60873948595E+02 -0.12874927122E+04  0.12918297313E+04  0.00000000000E+00 0. -1.
          1    1    1    2  502    0  0.56849100044E+01  0.28215138353E+02  0.18926933688E+03  0.19144527708E+03  0.00000000000E+00 0. -1.
         22    1    3    3    0    0  0.29952940566E+02 -0.23497433204E+02  0.17905613953E+02  0.42070405593E+02  0.00000000000E+00 0.  1.
         22    1    3    3    0    0 -0.12213023853E+03 -0.65591653743E+02  0.13255380959E+03  0.19180347400E+03  0.00000000000E+00 0.  1.
</event>
<event>
 7    1  0.5970484E-006  0.1298314E+03  0.7818608E-02  0.1246491E+00
          2   -1    0    0  502    0  0.00000000000E+00  0.00000000000E+00  0.15555283269E+04  0.15555283269E+04  0.00000000000E+00 0. -1.
          1   -1    0    0  501    0 -0.00000000000E+00 -0.00000000000E+00 -0.38727940676E+03  0.38727940676E+03  0.00000000000E+00 0. -1.
         25    2    1    2    0    0 -0.27421339823E+02  0.10556303018E+03  0.62454146532E+03  0.64619840086E+03  0.12499939261E+03 0.  0.
          2    1    1    2  501    0  0.10263976762E+03  0.30881722387E+02 -0.36203269005E+03  0.37756624762E+03  0.00000000000E+00 0. -1.
          1    1    1    2  502    0 -0.75218427792E+02 -0.13644475256E+03  0.90574014484E+03  0.91904308514E+03  0.00000000000E+00 0. -1.
         22    1    3    3    0    0 -0.43557899299E+02  0.20249956748E+01  0.34350782645E+03  0.34626437592E+03  0.00000000000E+00 0.  1.
         22    1    3    3    0    0  0.16136559476E+02  0.10353803450E+03  0.28103363887E+03  0.29993402494E+03  0.00000000000E+00 0.  1.
</event>
<event>
 7    1  0.5970484E-006  0.5518043E+02  0.7818608E-02  0.1480768E+00
          2   -1    0    0  502    0  0.00000000000E+00  0.00000000000E+00  0.14454344878E+03  0.14454344878E+03  0.00000000000E+00 0. -1.
          1   -1    0    0  501    0 -0.00000000000E+00 -0.00000000000E+00 -0.49988807148E+03  0.49988807148E+03  0.00000000000E+00 0. -1.
         25    2    1    2    0    0  0.78307249672E+02  0.66867191646E+01  0.18307907438E+02  0.14878084225E+03  0.12499528783E+03 0.  0.
          2    1    1    2  501    0 -0.28359353274E+02 -0.20620712453E+02 -0.42277267346E+03  0.42422423331E+03  0.00000000000E+00 0. -1.
          1    1    1    2  502    0 -0.49947896399E+02  0.13933993289E+02  0.49120143325E+02  0.71426444710E+02  0.00000000000E+00 0. -1.
         22    1    3    3    0    0 -0.33813924280E+02  0.19167089714E+01  0.13486753495E+02  0.36454735883E+02  0.00000000000E+00 0. -1.
         22    1    3    3    0    0  0.11212117395E+03  0.47700101932E+01  0.48211539436E+01  0.11232610636E+03  0.00000000000E+00 0. -1.
</event>
<event>
 7    1  0.5970484E-006  0.1517697E+03  0.7818608E-02  0.1221352E+00
          2   -1    0    0  502    0  0.00000000000E+00  0.00000000000E+00  0.18642695568E+04  0.18642695568E+04  0.00000000000E+00 0. -1.
          1   -1    0    0  501    0 -0.00000000000E+00 -0.00000000000E+00 -0.14741601740E+04  0.14741601740E+04  0.00000000000E+00 0. -1.
         25    2    1    2    0    0 -0.30646451594E+02 -0.26385517790E+02  0.48943475464E+03  0.50676138335E+03  0.12500128023E+03 0.  0.
          2    1    1    2  501    0  0.15476874384E+02 -0.15097852956E+03 -0.14557363102E+04  0.14636264054E+04  0.00000000000E+00 0. -1.
          1    1    1    2  502    0  0.15169577210E+02  0.17736404735E+03  0.13564109384E+04  0.13680419420E+04  0.00000000000E+00 0. -1.
         22    1    3    3    0    0 -0.51952442385E+02 -0.21455623131E+02  0.86031810260E+02  0.10276610536E+03  0.00000000000E+00 0. -1.
         22    1    3    3    0    0  0.21305990791E+02 -0.49298946580E+01  0.40340294438E+03  0.40399527799E+03  0.00000000000E+00 0. -1.
</event>
<event>
 7    1  0.5970484E-006  0.8566253E+02  0.7818608E-02  0.1412457E+00
          2   -1    0    0  502    0  0.00000000000E+00  0.00000000000E+00  0.62433994228E+03  0.62433994228E+03  0.00000000000E+00 0. -1.
          1   -1    0    0  501    0 -0.00000000000E+00 -0.00000000000E+00 -0.10661676665E+04  0.10661676665E+04  0.00000000000E+00 0. -1.
         25    2    1    2    0    0  0.46038654771E+02 -0.17538991471E+02 -0.33503917489E+01  0.13440045291E+03  0.12500033066E+03 0.  0.
          2    1    1    2  501    0 -0.80459229690E+02  0.32326350256E+02 -0.99477628768E+03  0.99854821771E+03  0.00000000000E+00 0. -1.
          1    1    1    2  502    0  0.34420574920E+02 -0.14787358785E+02  0.55629895520E+03  0.55755893816E+03  0.00000000000E+00 0. -1.
         22    1    3    3    0    0  0.36801198522E+02 -0.14701601959E+02 -0.62752098474E+02  0.74217862915E+02  0.00000000000E+00 0.  1.
         22    1    3    3    0    0  0.92374562483E+01 -0.28373895123E+01  0.59401706725E+02  0.60182589999E+02  0.00000000000E+00 0.  1.
</event>
<event>
 7    1  0.5970484E-006  0.1157214E+03  0.7818608E-02  0.1322177E+00
          2   -1    0    0  502    0  0.00000000000E+00  0.00000000000E+00  0.13612875557E+04  0.13612875557E+04  0.00000000000E+00 0. -1.
          1   -1    0    0  501    0 -0.00000000000E+00 -0.00000000000E+00 -0.34286609804E+03  0.34286609804E+03  0.00000000000E+00 0. -1.
         25    2    1    2    0    0  0.40281158346E+02  0.76489036216E+02 -0.83116912130E+02  0.17322714272E+03  0.12500430998E+03 0.  0.
          2    1    1    2  501    0 -0.98265914401E+02 -0.86106439286E+02 -0.19408820728E+03  0.23396739308E+03  0.00000000000E+00 0. -1.
          1    1    1    2  502    0  0.57984756055E+02  0.96174030700E+01  0.12956265770E+04  0.12969591179E+04  0.00000000000E+00 0. -1.
         22    1    3    3    0    0 -0.29604205943E+02  0.74861018836E+02 -0.56844240857E+02  0.98548713179E+02  0.00000000000E+00 0.  1.
         22    1    3    3    0    0  0.69885364289E+02  0.16280173796E+01 -0.26272671273E+02  0.74678429537E+02  0.00000000000E+00 0.  1.
</event>
<event>
 7    1  0.5970484E-006  0.5194737E+02  0.7818608E-02  0.1455534E+00
          2   -1    0    0  502    0  0.00000000000E+00  0.00000000000E+00  0.21446408798E+04  0.21446408798E+04  0.00000000000E+00 0. -1.
          1   -1    0    0  501    0 -0.00000000000E+00 -0.00000000000E+00 -0.60262119466E+03  0.60262119466E+03  0.00000000000E+00 0. -1.
         25    2    1    2    0    0 -0.32344229221E+02  0.56954785450E+02 -0.90586170889E+02  0.16769440560E+03  0.12500225024E+03 0.  0.
          2    1    1    2  501    0 -0.11861280483E+02 -0.50696286762E+02 -0.47181210184E+03  0.47467616635E+03  0.00000000000E+00 0. -1.
          1    1    1    2  502    0  0.44205509703E+02 -0.62584986880E+01  0.21044179579E+04  0.21048915025E+04  0.00000000000E+00 0. -1.
         22    1    3    3    0    0  0.13846756715E+01  0.73438275099E+02 -0.42788261019E+01  0.73575851534E+02  0.00000000000E+00 0. -1.
         22    1    3    3    0    0 -0.33728904892E+02 -0.16483489648E+02 -0.86307344787E+02  0.94118554071E+02  0.00000000000E+00 0. -1.
</event>
<event>
 7    1  0.5970484E-006  0.8658904E+02  0.7818608E-02  0.1386093E+00
          2   -1    0    0  502    0  0.00000000000E+00  0.00000000000E+00  0.42664814057E+03  0.42664814057E+03  0.00000000000E+00 0. -1.
          1   -1    0    0  501    0 -0.00000000000E+00 -0.00000000000E+00 -0.93580516469E+03  0.93580516469E+03  0.00000000000E+00 0. -1.
         25    2    1    2    0    0 -0.76479818980E+02  0.12861434267E+02 -0.39029522831E+03  0.41708903502E+03  0.12497327190E+03 0.  0.
          2    1    1    2  501    0 -0.39710875806E+01 -0.45502889904E+02 -0.52655334964E+03  0.52853071107E+03  0.00000000000E+00 0. -1.
          1    1    1    2  502    0  0.80450906560E+02  0.32641455637E+02  0.40769155383E+03  0.41683355918E+03  0.00000000000E+00 0. -1.
         22    1    3    3    0    0  0.33439746289E+02  0.15656851514E+02 -0.88886208067E+02  0.96250255146E+02  0.00000000000E+00 0. -1.
         22    1    3    3    0    0 -0.10991956527E+03 -0.27954172475E+01 -0.30140902024E+03  0.32083877987E+03  0.00000000000E+00 0. -1.
</event>
<event>
 7    1  0.5970484E-006  0.9011551E+02  0.7818608E-02  0.1442004E+00
          2   -1    0    0  502    0  0.00000000000E+00  0.00000000000E+00  0.81745949618E+02  0.81745949618E+02  0.00000000000E+00 0. -1.
          1   -1    0    0  501    0 -0.00000000000E+00 -0.00000000000E+00 -0.98585684665E+03  0.98585684665E+03  0.00000000000E+00 0. -1.
         25    2    1    2    0    0 -0.47206845200E+02 -0.91085109741E+02 -0.82122922708E+02  0.18136673897E+03  0.12499894448E+03 0.  0.
          2    1    1    2  501    0  0.60676779639E+02  0.66038416845E+02 -0.84494280900E+03  0.84968882220E+03  0.00000000000E+00 0. -1.
          1    1    1    2  502    0 -0.13469934439E+02  0.25046692896E+02  0.22954834674E+02  0.36547235103E+02  0.00000000000E+00 0. -1.
         22    1    3    3    0    0 -0.46588616381E+02 -0.97340018471E+02 -0.93457041775E+01  0.10831860671E+03  0.00000000000E+00 0. -1.
         22    1    3    3    0    0 -0.61822881861E+00  0.62549087303E+01 -0.72777218531E+02  0.73048132263E+02  0.00000000000E+00 0. -1.
</event>
<event>
 7    1  0.5970484E-006  0.7367440E+02  0.7818608E-02  0.1415303E+00
          2   -1    0    0  502    0  0.00000000000E+00  0.00000000000E+00  0.26838369638E+04  0.26838369638E+04  0.00000000000E+00 0. -1.
          1   -1    0    0  501    0 -0.00000000000E+00 -0.00000000000E+00 -0.43527813288E+03  0.43527813288E+03  0.00000000000E+00 0. -1.
         25    2    1    2    0    0 -0.30955359810E+02  0.75927910851E+02  0.77656104011E+03  0.79081982728E+03  0.12500267301E+03 0.  0.
          2    1    1    2  501    0 -0.28348628826E+02 -0.31807281330E+02 -0.42636771694E+03  0.42849128107E+03  0.00000000000E+00 0. -1.
          1    1    1    2  502    0  0.59303988636E+02 -0.44120629522E+02  0.18983655077E+04  0.18998039883E+04  0.00000000000E+00 0. -1.
         22    1    3    3    0    0  0.70811799131E+01  0.10271191152E+03  0.54073602596E+03  0.55045011550E+03  0.00000000000E+00 0. -1.
         22    1    3    3    0    0 -0.38036539723E+02 -0.26784000673E+02  0.23582501414E+03  0.24036971178E+03  0.00000000000E+00 0. -1.
</event>
<event>
 7    1  0.5970484E-006  0.2389076E+03  0.7818608E-02  0.1274048E+00
          2   -1    0    0  502    0  0.00000000000E+00  0.00000000000E+00  0.13414354947E+04  0.13414354947E+04  0.00000000000E+00 0. -1.
          1   -1    0    0  501    0 -0.00000000000E+00 -0.00000000000E+00 -0.22517440294E+03  0.22517440294E+03  0.00000000000E+00 0. -1.
         25    2    1    2    0    0  0.95235403863E+02  0.20469075384E+03  0.35909724622E+03  0.44220237850E+03  0.12499609774E+03 0.  0.
          2    1    1    2  501    0  0.44300334177E+02 -0.34308184901E+01 -0.16468977133E+03  0.17057845967E+03  0.00000000000E+00 0. -1.
          1    1    1    2  502    0 -0.13953573804E+03 -0.20125993535E+03  0.92185361682E+03  0.95382905943E+03  0.00000000000E+00 0. -1.
         22    1    3    3    0    0 -0.21170106942E+02  0.94795514898E+02  0.11861411378E+03  0.15330907038E+03  0.00000000000E+00 0.  1.
         22    1    3    3    0    0  0.11640551080E+03  0.10989523894E+03  0.24048313244E+03  0.28889330812E+03  0.00000000000E+00 0.  1.
</event>
<event>
 7    1  0.5970484E-006  0.8486999E+02  0.7818608E-02  0.1338607E+00
          2   -1    0    0  502    0  0.00000000000E+00  0.00000000000E+00  0.35437219363E+03  0.35437219363E+03  0.00000000000E+00 0. -1.
          1   -1    0    0  501    0 -0.00000000000E+00 -0.00000000000E+00 -0.32580332370E+03  0.32580332370E+03  0.00000000000E+00 0. -1.
         25    2    1    2    0    0 -0.82499396799E+01 -0.51876073370E+02  0.13213051067E+02  0.13619090699E+03  0.12495675226E+03 0.  0.
          2    1    1    2  501    0 -0.59229616538E+02  0.67935607399E+02 -0.25207554287E+03  0.26770407831E+03  0.00000000000E+00 0. -1.
          1    1    1    2  502    0  0.67479556218E+02 -0.16059534029E+02  0.26743136173E+03  0.27628053203E+03  0.00000000000E+00 0. -1.
         22    1    3    3    0    0  0.51919025723E+02  0.16266009713E+01 -0.88815503919E+01  0.52698320658E+02  0.00000000000E+00 0.  1.
         22    1    3    3    0    0 -0.60168965403E+02 -0.53502674341E+02  0.22094601459E+02  0.83492586335E+02  0.00000000000E+00 0.  1.
</event>
<event>
 7    1  0.5970484E-006  0.1147617E+03  0.7818608E-02  0.1270435E+00
          2   -1    0    0  502    0  0.00000000000E+00  0.00000000000E+00  0.17651450396E+03  0.17651450396E+03  0.00000000000E+00 0. -1.
          1   -1    0    0  501    0 -0.00000000000E+00 -0.00000000000E+00 -0.49035511420E+03  0.49035511420E+03  0.00000000000E+00 0. -1.
         25    2    1    2    0    0  0.13982548956E+03 -0.10005938747E+03 -0.24554665032E+02  0.21396580359E+03  0.12496153400E+03 0.  0.
          2    1    1    2  501    0 -0.11099815986E+03  0.87248027974E+01 -0.33041522363E+03  0.34867023630E+03  0.00000000000E+00 0. -1.
          1    1    1    2  502    0 -0.28827329694E+02  0.91334584671E+02  0.41129278429E+02  0.10423357827E+03  0.00000000000E+00 0. -1.
         22    1    3    3    0    0 -0.48861198965E+01  0.16495772343E+02 -0.22266337178E+02  0.28138486885E+02  0.00000000000E+00 0.  1.
         22    1    3    3    0    0  0.14471160945E+03 -0.11655515981E+03 -0.22883278535E+01  0.18582731671E+03  0.00000000000E+00 0.  1.
</event>
<event>
 7    1  0.5970484E-006  0.6105627E+02  0.7818608E-02  0.1435554E+00
          2   -1    0    0  502    0  0.00000000000E+00  0.00000000000E+00  0.67236869452E+03  0.67236869452E+03  0.00000000000E+00 0. -1.
          1   -1    0    0  501    0 -0.00000000000E+00 -0.00000000000E+00 -0.27932046944E+04  0.27932046944E+04  0.00000000000E+00 0. -1.
         25    2    1    2    0    0 -0.81160786297E+01  0.92392309353E+02 -0.41395986286E+02  0.16106132247E+03  0.12499964942E+03 0.  0.
          2    1    1    2  501    0 -0.20615838285E+02 -0.38928921890E+02 -0.26902917609E+04  0.26906523805E+04  0.00000000000E+00 0. -1.
          1    1    1    2  502    0  0.28731916915E+02 -0.53463387463E+02  0.61085174732E+03  0.61385968596E+03  0.00000000000E+00 0. -1.
         22    1    3    3    0    0 -0.47753943231E+02  0.61443210450E+02 -0.68729250265E+02  0.10382397144E+03  0.00000000000E+00 0.  1.
         22    1    3    3    0    0  0.39637864601E+02  0.30949098903E+02  0.27333263979E+02  0.57237351028E+02  0.00000000000E+00 0.  1.
</event>
<event>
 7    1  0.1047442E-005  0.9239844E+02  0.7818608E-02  0.1342912E+00
          2   -1    0    0  502    0  0.00000000000E+00  0.00000000000E+00  0.14661230183E+04  0.14661230183E+04  0.00000000000E+00 0. -1.
          1   -1    0    0  501    0 -0.00000000000E+00 -0.00000000000E+00 -0.92643639914E+03  0.92643639914E+03  0.00000000000E+00 0. -1.
         25    2    1    2    0    0 -0.10060050933E+03  0.57108969891E+02 -0.62570196692E+02  0.18144596804E+03  0.12500285151E+03 0.  0.
          2    1    1    2  501    0  0.83518954141E+01 -0.60811994291E+02 -0.80173904550E+03  0.80408541206E+03  0.00000000000E+00 0. -1.
          1    1    1    2  502    0  0.92248613919E+02  0.37030244006E+01  0.14039958613E+04  0.14070280373E+04  0.00000000000E+00 0. -1.
         22    1    3    3    0    0 -0.36680006476E+02  0.79026775219E+02 -0.72247345423E+02  0.11318274161E+03  0.00000000000E+00 0. -1.
         22    1    3    3    0    0 -0.63920502857E+02 -0.21917805329E+02  0.96771487312E+01  0.68263226436E+02  0.00000000000E+00 0. -1.
</event>
<event>
 7    1  0.5970484E-006  0.1826307E+03  0.7818608E-02  0.1327775E+00
          2   -1    0    0  502    0  0.00000000000E+00  0.00000000000E+00  0.11116695621E+04  0.11116695621E+04  0.00000000000E+00 0. -1.
          1   -1    0    0  501    0 -0.00000000000E+00 -0.00000000000E+00 -0.11292908105E+04  0.11292908105E+04  0.00000000000E+00 0. -1.
         25    2    1    2    0    0 -0.18940993987E+03 -0.96222479124E+02  0.14942557428E+03  0.28824838010E+03  0.12499694224E+03 0.  0.
          2    1    1    2  501    0  0.25596338549E+02  0.24511975378E+02 -0.10506237347E+04  0.10512213094E+04  0.00000000000E+00 0. -1.
          1    1    1    2  502    0  0.16381360132E+03  0.71710503746E+02  0.88357691197E+03  0.90149068309E+03  0.00000000000E+00 0. -1.
         22    1    3    3    0    0 -0.22716004131E+00 -0.46439212507E+02  0.86525408882E+01  0.47238951341E+02  0.00000000000E+00 0.  1.
         22    1    3    3    0    0 -0.18918277983E+03 -0.49783266617E+02  0.14077303339E+03  0.24100942876E+03  0.00000000000E+00 0.  1.
</event>
<event>
 7    1  0.5970484E-006  0.6126616E+02  0.7818608E-02  0.1395833E+00
          2   -1    0    0  502    0  0.00000000000E+00  0.00000000000E+00  0.23700844199E+03  0.23700844199E+03  0.00000000000E+00 0. -1.
          1   -1    0    0  501    0 -0.00000000000E+00 -0.00000000000E+00 -0.38875316347E+03  0.38875316347E+03  0.00000000000E+00 0. -1.
         25    2    1    2    0    0 -0.49489428243E+01  0.82387333586E+02 -0.77504461007E+02  0.16864068909E+03  0.12498230183E+03 0.  0.
          2    1    1    2  501    0 -0.41812132842E+02 -0.42614808641E+02 -0.25725155331E+03  0.26408831486E+03  0.00000000000E+00 0. -1.
          1    1    1    2  502    0  0.46761075667E+02 -0.39772524945E+02  0.18301129283E+03  0.19303260150E+03  0.00000000000E+00 0. -1.
         22    1    3    3    0    0  0.44922890346E+02  0.85776850449E+02 -0.34787208210E+02  0.10288772524E+03  0.00000000000E+00 0. -1.
         22    1    3    3    0    0 -0.49871833170E+02 -0.33895168628E+01 -0.42717252797E+02  0.65752963848E+02  0.00000000000E+00 0. -1.
</event>
<event>
 7    1  0.5970484E-006  0.1003253E+03  0.7818608E-02  0.1335804E+00
          2   -1    0    0  502    0  0.00000000000E+00  0.00000000000E+00  0.33251893962E+03  0.33251893962E+03  0.00000000000E+00 0. -1.
          1   -1    0    0  501    0 -0.00000000000E+00 -0.00000000000E+00 -0.33899815878E+03  0.33899815878E+03  0.00000000000E+00 0. -1.
         25    2    1    2    0    0 -0.56262730389E+02 -0.11150239173E+03 -0.25721522787E+02  0.17858248071E+03  0.12502730698E+03 0.  0.
          2    1    1    2  501    0 -0.25090727243E+02  0.54641234196E+02 -0.22309680808E+03  0.23105712463E+03  0.00000000000E+00 0. -1.
          1    1    1    2  502    0  0.81353457632E+02  0.56861157538E+02  0.24233911171E+03  0.26187749306E+03  0.00000000000E+00 0. -1.
         22    1    3    3    0    0  0.26485100574E+02 -0.20233300491E+02 -0.42758756743E+02  0.54214004458E+02  0.00000000000E+00 0. -1.
         22    1    3    3    0    0 -0.82747830963E+02 -0.91269091243E+02  0.17037233956E+02  0.12436847626E+03  0.00000000000E+00 0. -1.
</event>
<event>
 7    1  0.5970484E-006  0.6487476E+02  0.7818608E-02  0.1418353E+00
          2   -1    0    0  502    0  0.00000000000E+00  0.00000000000E+00  0.15880715368E+04  0.15880715368E+04  0.00000000000E+00 0. -1.
          1   -1    0    0  501    0 -0.00000000000E+00 -0.00000000000E+00 -0.50486150117E+02  0.50486150117E+02  0.00000000000E+00 0. -1.
         25    2    1    2    0    0 -0.74818569255E+02 -0.44500250303E+02  0.57752102082E+03  0.59727048210E+03  0.12499363470E+03 0.  0.
          2    1    1    2  501    0  0.45651556031E+02 -0.12221839204E+02 -0.25473629134E+02  0.53687463181E+02  0.00000000000E+00 0. -1.
          1    1    1    2  502    0  0.29167013224E+02  0.56722089507E+02  0.98553799503E+03  0.98759974167E+03  0.00000000000E+00 0. -1.
         22    1    3    3    0    0 -0.56550446345E+02  0.36277701521E+02  0.20797304020E+03  0.21855619429E+03  0.00000000000E+00 0. -1.
         22    1    3    3    0    0 -0.18268122909E+02 -0.80777951824E+02  0.36954798062E+03  0.37871428782E+03  0.00000000000E+00 0. -1.
</event>
<event>
 7    1  0.5970484E-006  0.3148902E+03  0.7818608E-02  0.1180651E+00
          2   -1    0    0  502    0  0.00000000000E+00  0.00000000000E+00  0.26325448495E+04  0.26325448495E+04  0.00000000000E+00 0. -1.
          1   -1    0    0  501    0 -0.00000000000E+00 -0.00000000000E+00 -0.14297743696E+03  0.14297743696E+03  0.00000000000E+00 0. -1.
         25    2    1    2    0    0 -0.28143336341E+03 -0.75846977594E+02  0.66069304877E+03  0.73287029395E+03  0.12500424398E+03 0.  0.
          2    1    1    2  501    0  0.28147699999E+03  0.16477453437E+03  0.14585770591E+03  0.35728758595E+03  0.00000000000E+00 0. -1.
          1    1    1    2  502    0 -0.43636579618E-01 -0.88927556775E+02  0.16830166578E+04  0.16853644065E+04  0.00000000000E+00 0. -1.
         22    1    3    3    0    0 -0.15633320616E+03 -0.76591310852E+02  0.25837834259E+03  0.31155363610E+03  0.00000000000E+00 0. -1.
         22    1    3    3    0    0 -0.12510015725E+03  0.74433325821E+00  0.40231470618E+03  0.42131665786E+03  0.00000000000E+00 0. -1.
</event>
<event>
 7    1  0.5970484E-006  0.3214696E+02  0.7818608E-02  0.1583998E+00
          2   -1    0    0  502    0  0.00000000000E+00  0.00000000000E+00  0.13168083342E+04  0.13168083342E+04  0.00000000000E+00 0. -1.
          1   -1    0    0  501    0 -0.00000000000E+00 -0.00000000000E+00 -0.48899435551E+02  0.48899435551E+02  0.00000000000E+00 0. -1.
         25    2    1    2    0    0  0.68407088243E+01  0.20006220878E+02  0.16387091226E+03  0.20718571404E+03  0.12500080018E+03 0.  0.
          2    1    1    2  501    0  0.23426432082E+02 -0.23795101881E+02 -0.16723590623E+02  0.37345455907E+02  0.00000000000E+00 0. -1.
          1    1    1    2  502    0 -0.30267140906E+02  0.37888810032E+01  0.11207615770E+04  0.11211765998E+04  0.00000000000E+00 0. -1.
         22    1    3    3    0    0 -0.47747320978E+02 -0.18925744483E+02  0.10918980829E+03  0.12066650198E+03  0.00000000000E+00 0. -1.
         22    1    3    3    0    0  0.54588029802E+02  0.38931965361E+02  0.54681103965E+02  0.86519212060E+02  0.00000000000E+00 0. -1.
</event>
<event>
 7    1  0.5970484E-006  0.9087376E+02  0.7818608E-02  0.1337336E+00
          2   -1    0    0  502    0  0.00000000000E+00  0.00000000000E+00  0.22712481331E+04  0.22712481331E+04  0.00000000000E+00 0. -1.
          1   -1    0    0  501    0 -0.00000000000E+00 -0.00000000000E+00 -0.24668768444E+03  0.24668768444E+03  0.00000000000E+00 0. -1.
         25    2    1    2    0    0  0.25627415057E+02 -0.30906168066E+02 -0.97245364695E+02  0.16337653155E+03  0.12499309772E+03 0.  0.
          2    1    1    2  501    0  0.51497674734E+02  0.78966144931E+02 -0.96200022985E+02  0.13469263889E+03  0.00000000000E+00 0. -1.
          1    1    1    2  502    0 -0.77125089791E+02 -0.48059976864E+02  0.22180058364E+04  0.22198666471E+04  0.00000000000E+00 0. -1.
         22    1    3    3    0    0  0.59617703793E+02 -0.36726383658E+02 -0.10669504418E+03  0.12762025825E+03  0.00000000000E+00 0. -1.
         22    1    3    3    0    0 -0.33990288736E+02  0.58202155919E+01  0.94496794868E+01  0.35756273299E+02  0.00000000000E+00 0. -1.
</event>
<event>
 7    1  0.5970484E-006  0.9609267E+02  0.7818608E-02  0.1367089E+00
          2   -1    0    0  502    0  0.00000000000E+00  0.00000000000E+00  0.11125942214E+04  0.11125942214E+04  0.00000000000E+00 0. -1.
          1   -1    0    0  501    0 -0.00000000000E+00 -0.00000000000E+00 -0.13658279925E+03  0.13658279925E+03  0.00000000000E+00 0. -1.
         25    2    1    2    0    0  0.74863899780E+02  0.70275542213E+02  0.13419117987E+03  0.21017787233E+03  0.12499683972E+03 0.  0.
          2    1    1    2  501    0  0.18035337723E+02 -0.44586810644E+02 -0.90086233325E+02  0.10212143029E+03  0.00000000000E+00 0. -1.
          1    1    1    2  502    0 -0.92899237503E+02 -0.25688731569E+02  0.93190647559E+03  0.93687771801E+03  0.00000000000E+00 0. -1.
         22    1    3    3    0    0 -0.34771462436E+02  0.20896975507E+02  0.24326174451E+02  0.47302229849E+02  0.00000000000E+00 0. -1.
         22    1    3    3    0    0  0.10963536222E+03  0.49378566706E+02  0.10986500542E+03  0.16287564248E+03  0.00000000000E+00 0. -1.
</event>
<event>
 7    1  0.5970484E-006  0.6737433E+02  0.7818608E-02  0.1471986E+00
          2   -1    0    0  502    0  0.00000000000E+00  0.00000000000E+00  0.42948276819E+03  0.42948276819E+03  0.00000000000E+00 0. -1.
          1   -1    0    0  501    0 -0.00000000000E+00 -0.00000000000E+00 -0.51105483389E+03  0.51105483389E+03  0.00000000000E+00 0. -1.
         25    2    1    2    0    0 -0.29540992070E+02 -0.31060402512E+02 -0.11568772677E+03  0.17563062644E+03  0.12500019201E+03 0.  0.
          2    1    1    2  501    0  0.59410174801E+02  0.37545578057E+02 -0.36142121757E+03  0.36819089589E+03  0.00000000000E+00 0. -1.
          1    1    1    2  502    0 -0.29869182731E+02 -0.64851755447E+01  0.39553687864E+03  0.39671607976E+03  0.00000000000E+00 0. -1.
         22    1    3    3    0    0 -0.14099669711E+02  0.23842913360E+02  0.16094488668E+02  0.32036194670E+02  0.00000000000E+00 0.  1.
         22    1    3    3    0    0 -0.15441322359E+02 -0.54903315872E+02 -0.13178221543E+03  0.14359443177E+03  0.00000000000E+00 0.  1.
</event>
<event>
 7    1  0.5970484E-006  0.7753060E+02  0.7818608E-02  0.1463881E+00
          2   -1    0    0  502    0  0.00000000000E+00  0.00000000000E+00  0.78965928023E+03  0.78965928023E+03  0.00000000000E+00 0. -1.
          1   -1    0    0  501    0 -0.00000000000E+00 -0.00000000000E+00 -0.18986467625E+03  0.18986467625E+03  0.00000000000E+00 0. -1.
         25    2    1    2    0    0 -0.31241340654E+02 -0.48851785394E+02 -0.11603985963E+02  0.13828450264E+03  0.12500173150E+03 0.  0.
          2    1    1    2  501    0  0.29316350925E+02  0.76939400414E+02 -0.99858697781E+02  0.12942518800E+03  0.00000000000E+00 0. -1.
          1    1    1    2  502    0  0.19249897290E+01 -0.28087615020E+02  0.71125728773E+03  0.71181426583E+03  0.00000000000E+00 0. -1.
         22    1    3    3    0    0 -0.46255909127E+02 -0.24600203708E+02  0.48728758057E+02  0.71549081150E+02  0.00000000000E+00 0. -1.
         22    1    3    3    0    0  0.15014568473E+02 -0.24251581686E+02 -0.60332744020E+02  0.66735421492E+02  0.00000000000E+00 0. -1.
</event>
<event>
 7    1  0.5970484E-006  0.1836689E+03  0.7818608E-02  0.1375482E+00
          2   -1    0    0  502    0  0.00000000000E+00  0.00000000000E+00  0.85368833361E+03  0.85368833361E+03  0.00000000000E+00 0. -1.
          1   -1    0    0  501    0 -0.00000000000E+00 -0.00000000000E+00 -0.41801439039E+03  0.41801439039E+03  0.00000000000E+00 0. -1.
         25    2    1    2    0    0 -0.13752467588E+03  0.12617187671E+03  0.59289083391E+03  0.63401914560E+03  0.12501342766E+03 0.  0.
          2    1    1    2  501    0 -0.87155497396E+01 -0.21799829006E+02 -0.36342636137E+03  0.36418390065E+03  0.00000000000E+00 0. -1.
          1    1    1    2  502    0  0.14624022562E+03 -0.10437204771E+03  0.20620947068E+03  0.27349967776E+03  0.00000000000E+00 0. -1.
         22    1    3    3    0    0 -0.83410007149E+02  0.12099803542E+03  0.27784515714E+03  0.31431780926E+03  0.00000000000E+00 0.  1.
         22    1    3    3    0    0 -0.54114668734E+02  0.51738412896E+01  0.31504567677E+03  0.31970133634E+03  0.00000000000E+00 0.  1.
</event>
<event>
 7    1  0.5970484E-006  0.8232138E+02  0.7818608E-02  0.1367398E+00
          2   -1    0    0  502    0  0.00000000000E+00  0.00000000000E+00  0.21655280962E+04  0.21655280962E+04  0.00000000000E+00 0. -1.
          1   -1    0    0  501    0 -0.00000000000E+00 -0.00000000000E+00 -0.28737643873E+03  0.28737643873E+03  0.00000000000E+00 0. -1.
         25    2    1    2    0    0  0.10170458316E+02 -0.10593613514E+03  0.79262382791E+03  0.80944635515E+03  0.12499986540E+03 0.  0.
          2    1    1    2  501    0 -0.45131655023E+02  0.33150237421E+02 -0.27494578059E+03  0.28059042533E+03  0.00000000000E+00 0. -1.
          1    1    1    2  502    0  0.34961196707E+02  0.72785897715E+02  0.13604736102E+04  0.13628677545E+04  0.00000000000E+00 0. -1.
         22    1    3    3    0    0 -0.46380014165E+02 -0.22862088946E+02  0.43193856912E+03  0.43502265265E+03  0.00000000000E+00 0.  1.
         22    1    3    3    0    0  0.56550472481E+02 -0.83074046190E+02  0.36068525879E+03  0.37442370250E+03  0.00000000000E+00 0.  1.
</event>
<event>
 7    1  0.5970484E-006  0.1132967E+03  0.7818608E-02  0.1349077E+00
          2   -1    0    0  502    0  0.00000000000E+00  0.00000000000E+00  0.23199300061E+04  0.23199300061E+04  0.00000000000E+00 0. -1.
          1   -1    0    0  501    0 -0.00000000000E+00 -0.00000000000E+00 -0.31776408149E+04  0.31776408149E+04  0.00000000000E+00 0. -1.
         25    2    1    2    0    0 -0.79960250061E+02  0.26478077909E+02  0.46726809109E+02  0.15780488946E+03  0.12499703296E+03 0.  0.
          2    1    1    2  501    0  0.11342337473E+03  0.72057983676E+01 -0.31208131304E+04  0.31228819030E+04  0.00000000000E+00 0. -1.
          1    1    1    2  502    0 -0.33463124672E+02 -0.33683876276E+02  0.22163755124E+04  0.22168840285E+04  0.00000000000E+00 0. -1.
         22    1    3    3    0    0  0.21019686451E+02  0.30405543412E+02 -0.14433949107E+02  0.39682025849E+02  0.00000000000E+00 0. -1.
         22    1    3    3    0    0 -0.10097993651E+03 -0.39274655027E+01  0.61160758216E+02  0.11812286362E+03  0.00000000000E+00 0. -1.
</event>
<event>
 7    1  0.5970484E-006  0.9376012E+02  0.7818608E-02  0.1359665E+00
          2   -1    0    0  502    0  0.00000000000E+00  0.00000000000E+00  0.11521611126E+03  0.11521611126E+03  0.00000000000E+00 0. -1.
          1   -1    0    0  501    0 -0.00000000000E+00 -0.00000000000E+00 -0.10076310246E+04  0.10076310246E+04  0.00000000000E+00 0. -1.
         25    2    1    2    0    0 -0.79788178623E+02  0.61511768574E+02 -0.51472951073E+02  0.16859249479E+03  0.12499645389E+03 0.  0.
          2    1    1    2  501    0  0.93421134163E+02 -0.10865157018E+02 -0.88240044735E+03  0.88739850655E+03  0.00000000000E+00 0. -1.
          1    1    1    2  502    0 -0.13632955540E+02 -0.50646611556E+02  0.41458485075E+02  0.66856134525E+02  0.00000000000E+00 0. -1.
         22    1    3    3    0    0 -0.75223040669E+02  0.26354668483E+01  0.18021291549E+02  0.77396501743E+02  0.00000000000E+00 0.  1.
         22    1    3    3    0    0 -0.45651379540E+01  0.58876301726E+02 -0.69494242623E+02  0.91195993043E+02  0.00000000000E+00 0.  1.
</event>
<event>
 7    1  0.5970484E-006  0.5738058E+02  0.7818608E-02  0.1442375E+00
          2   -1    0    0  502    0  0.00000000000E+00  0.00000000000E+00  0.79537662576E+03  0.79537662576E+03  0.00000000000E+00 0. -1.
          1   -1    0    0  501    0 -0.00000000000E+00 -0.00000000000E+00 -0.31218985371E+03  0.31218985371E+03  0.00000000000E+00 0. -1.
         25    2    1    2    0    0  0.13859015275E+02  0.24596920267E+02  0.25227453602E+03  0.28295589073E+03  0.12499805511E+03 0.  0.
          2    1    1    2  501    0  0.19118850493E+02 -0.54534453049E+02 -0.29308293764E+03  0.29872586990E+03  0.00000000000E+00 0. -1.
          1    1    1    2  502    0 -0.32977865768E+02  0.29937532781E+02  0.52399517365E+03  0.52588471884E+03  0.00000000000E+00 0. -1.
         22    1    3    3    0    0  0.38446641781E+02  0.28811305524E+02  0.25346803841E+03  0.25798116614E+03  0.00000000000E+00 0.  1.
         22    1    3    3    0    0 -0.24587626507E+02 -0.42143852562E+01 -0.11935023817E+01  0.24974724588E+02  0.00000000000E+00 0.  1.
</event>
<event>
 7    1  0.5970484E-006  0.3956603E+02  0.7818608E-02  0.1511471E+00
          2   -1    0    0  502    0  0.00000000000E+00  0.00000000000E+00  0.73920493766E+03  0.73920493766E+03  0.00000000000E+00 0. -1.
          1   -1    0    0  501    0 -0.00000000000E+00 -0.00000000000E+00 -0.38864354037E+03  0.38864354037E+03  0.00000000000E+00 0. -1.
         25    2    1    2    0    0 -0.28409166754E+02 -0.93624563521E+01  0.23850806256E+03  0.27093424724E+03  0.12499813630E+03 0.  0.
          2    1    1    2  501    0  0.25848633883E+02 -0.30109605040E+02 -0.37056195314E+03  0.37268069618E+03  0.00000000000E+00 0. -1.
          1    1    1    2  502    0  0.25605328705E+01  0.39472061392E+02  0.48261528787E+03  0.48423353462E+03  0.00000000000E+00 0. -1.
         22    1    3    3    0    0 -0.26785851401E+00  0.17691508588E+02  0.23038259002E+03  0.23106102876E+03  0.00000000000E+00 0.  1.
         22    1    3    3    0    0 -0.28141308240E+02 -0.27053964940E+02  0.81254725339E+01  0.39873218485E+02  0.00000000000E+00 0.  1.
</event>
<event>
 7    1  0.5970484E-006  0.9770725E+02  0.7818608E-02  0.1458723E+00
          2   -1    0    0  502    0  0.00000000000E+00  0.00000000000E+00  0.61261428133E+03  0.61261428133E+03  0.00000000000E+00 0. -1.
          1   -1    0    0  501    0 -0.00000000000E+00 -0.00000000000E+00 -0.17954205256E+03  0.17954205256E+03  0.00000000000E+00 0. -1.
         25    2    1    2    0    0 -0.56234309086E+02  0.65770351899E+02 -0.15039810196E+02  0.15276498531E+03  0.12499163228E+03 0.  0.
          2    1    1    2  501    0  0.79411122155E+02 -0.64955136461E+02 -0.67791122257E+02  0.12296720023E+03  0.00000000000E+00 0. -1.
          1    1    1    2  502    0 -0.23176813068E+02 -0.81521543820E+00  0.51590316122E+03  0.51642414835E+03  0.00000000000E+00 0. -1.
         22    1    3    3    0    0 -0.48280022596E+02  0.20396603181E+02 -0.65862810743E+02  0.84171799566E+02  0.00000000000E+00 0. -1.
         22    1    3    3    0    0 -0.79542864900E+01  0.45373748717E+02  0.50823000547E+02  0.68593185746E+02  0.00000000000E+00 0. -1.
</event>
<event>
 7    1  0.5970484E-006  0.1023522E+03  0.7818608E-02  0.1341306E+00
          2   -1    0    0  502    0  0.00000000000E+00  0.00000000000E+00  0.11557897283E+04  0.11557897283E+04  0.00000000000E+00 0. -1.
          1   -1    0    0  501    0 -0.00000000000E+00 -0.00000000000E+00 -0.55568249942E+03  0.55568249942E+03  0.00000000000E+00 0. -1.
         25    2    1    2    0    0  0.57840638046E+02 -0.12637255849E+03 -0.24367995754E+03  0.30711655214E+03  0.12500036779E+03 0.  0.
          2    1    1    2  501    0 -0.62742073734E+02  0.70399614625E+02 -0.27162521121E+03  0.28752900536E+03  0.00000000000E+00 0. -1.
          1    1    1    2  502    0  0.49014356889E+01  0.55972943862E+02  0.11154123977E+04  0.11168266702E+04  0.00000000000E+00 0. -1.
         22    1    3    3    0    0  0.69853045793E+02 -0.57201996881E+02 -0.54809969677E+02  0.10562030690E+03  0.00000000000E+00 0. -1.
         22    1    3    3    0    0 -0.12012407747E+02 -0.69170561605E+02 -0.18886998786E+03  0.20149624524E+03  0.00000000000E+00 0. -1.
</event>
<event>
 7    1  0.5970484E-006  0.1362557E+03  0.7818608E-02  0.1259866E+00
          2   -1    0    0  502    0  0.00000000000E+00  0.00000000000E+00  0.12871018874E+04  0.12871018874E+04  0.00000000000E+00 0. -1.
          1   -1    0    0  501    0 -0.00000000000E+00 -0.00000000000E+00 -0.27484521568E+04  0.27484521568E+04  0.00000000000E+00 0. -1.
         25    2    1    2    0    0  0.13056989228E+03  0.16133001568E+03 -0.54858229307E+03  0.59969759304E+03  0.12497519790E+03 0.  0.
          2    1    1    2  501    0 -0.10788345486E+03 -0.74835596765E+02 -0.21707415679E+04  0.21747087531E+04  0.00000000000E+00 0. -1.
          1    1    1    2  502    0 -0.22686437422E+02 -0.86494418916E+02  0.12579735916E+04  0.12611476980E+04  0.00000000000E+00 0. -1.
         22    1    3    3    0    0  0.35628773983E+02  0.13977486106E+03 -0.30539440284E+03  0.33774570702E+03  0.00000000000E+00 0.  1.
         22    1    3    3    0    0  0.94941118302E+02  0.21555154618E+02 -0.24318789023E+03  0.26195188602E+03  0.00000000000E+00 0.  1.
</event>
<event>
 7    1  0.5970484E-006  0.9026978E+02  0.7818608E-02  0.1322518E+00
          2   -1    0    0  502    0  0.00000000000E+00  0.00000000000E+00  0.54642807017E+03  0.54642807017E+03  0.00000000000E+00 0. -1.
          1   -1    0    0  501    0 -0.00000000000E+00 -0.00000000000E+00 -0.61885508319E+03  0.61885508319E+03  0.00000000000E+00 0. -1.
         25    2    1    2    0    0  0.47070681029E+02 -0.17217751225E+02  0.28579074275E+03  0.31593048919E+03  0.12499450144E+03 0.  0.
          2    1    1    2  501    0 -0.74019652600E+02 -0.52903090099E+02 -0.59449725023E+03  0.60141884444E+03  0.00000000000E+00 0. -1.
          1    1    1    2  502    0  0.26948971572E+02  0.70120841325E+02  0.23627949447E+03  0.24793381972E+03  0.00000000000E+00 0. -1.
         22    1    3    3    0    0  0.80118783583E+02  0.20506681556E+02  0.15188919225E+03  0.17294470271E+03  0.00000000000E+00 0. -1.
         22    1    3    3    0    0 -0.33048102554E+02 -0.37724432781E+02  0.13390155050E+03  0.14298578649E+03  0.00000000000E+00 0. -1.
</event>
<event>
 7    1  0.5970484E-006  0.6689114E+02  0.7818608E-02  0.1398918E+00
          2   -1    0    0  502    0  0.00000000000E+00  0.00000000000E+00  0.16654442405E+03  0.16654442405E+03  0.00000000000E+00 0. -1.
          1   -1    0    0  501    0 -0.00000000000E+00 -0.00000000000E+00 -0.58085341169E+03  0.58085341169E+03  0.00000000000E+00 0. -1.
         25    2    1    2    0    0 -0.11606282220E+03  0.13174806467E+02 -0.80490158565E+02  0.18907133781E+03  0.12500060373E+03 0.  0.
          2    1    1    2  501    0  0.53201507878E+02 -0.40666079061E+01 -0.43532628865E+03  0.43858398891E+03  0.00000000000E+00 0. -1.
          1    1    1    2  502    0  0.62861314321E+02 -0.91081985612E+01  0.10150745957E+03  0.11974250902E+03  0.00000000000E+00 0. -1.
         22    1    3    3    0    0 -0.10734124510E+02  0.25705640247E+02  0.26474686243E+02  0.38430591735E+02  0.00000000000E+00 0.  1.
         22    1    3    3    0    0 -0.10532869769E+03 -0.12530833780E+02 -0.10696484481E+03  0.15064074607E+03  0.00000000000E+00 0.  1.
</event>
<event>
 7    1  0.6330735E-006  0.1756899E+03  0.7818608E-02  0.1207906E+00
          2   -1    0    0  502    0  0.00000000000E+00  0.00000000000E+00  0.15167117731E+04  0.15167117731E+04  0.00000000000E+00 0. -1.
          1   -1    0    0  501    0 -0.00000000000E+00 -0.00000000000E+00 -0.13069194309E+04  0.13069194309E+04  0.00000000000E+00 0. -1.
         25    2    1    2    0    0 -0.22836956328E+02  0.70541458677E+02 -0.27532801311E+03  0.31133268779E+03  0.12499961486E+03 0.  0.
          2    1    1    2  501    0 -0.10649236375E+03  0.51295973702E+02 -0.10048464241E+04  0.10117747953E+04  0.00000000000E+00 0. -1.
          1    1    1    2  502    0  0.12932932008E+03 -0.12183743238E+03  0.14899667794E+04  0.15005237208E+04  0.00000000000E+00 0. -1.
         22    1    3    3    0    0 -0.31399708045E+02  0.94717505019E+02 -0.13064618896E+03  0.16439517667E+03  0.00000000000E+00 0. -1.
         22    1    3    3    0    0  0.85627517173E+01 -0.24176046343E+02 -0.14468182415E+03  0.14693751112E+03  0.00000000000E+00 0. -1.
</event>
<event>
 7    1  0.5970484E-006  0.1507940E+03  0.7818608E-02  0.1247200E+00
          2   -1    0    0  502    0  0.00000000000E+00  0.00000000000E+00  0.21232877065E+04  0.21232877065E+04  0.00000000000E+00 0. -1.
          1   -1    0    0  501    0 -0.00000000000E+00 -0.00000000000E+00 -0.17021519813E+04  0.17021519813E+04  0.00000000000E+00 0. -1.
         25    2    1    2    0    0 -0.10657523659E+03 -0.12594794748E+02  0.84098553695E+03  0.85697073817E+03  0.12500105121E+03 0.  0.
          2    1    1    2  501    0 -0.84045968700E+02  0.36499884063E+02 -0.16856672593E+04  0.16881558208E+04  0.00000000000E+00 0. -1.
          1    1    1    2  502    0  0.19062120529E+03 -0.23905089314E+02  0.12658174476E+04  0.12803131288E+04  0.00000000000E+00 0. -1.
         22    1    3    3    0    0 -0.28189292386E+01  0.35013962248E+02  0.78686323782E+02  0.86171117346E+02  0.00000000000E+00 0. -1.
         22    1    3    3    0    0 -0.10375630736E+03 -0.47608756996E+02  0.76229921317E+03  0.77079962082E+03  0.00000000000E+00 0. -1.
</event>
<event>
 7    1  0.5970484E-006  0.8342574E+02  0.7818608E-02  0.1420325E+00
          2   -1    0    0  502    0  0.00000000000E+00  0.00000000000E+00  0.17867683941E+04  0.17867683941E+04  0.00000000000E+00 0. -1.
          1   -1    0    0  501    0 -0.00000000000E+00 -0.00000000000E+00 -0.26611565641E+03  0.26611565641E+03  0.00000000000E+00 0. -1.
         25    2    1    2    0    0 -0.47444543418E+02 -0.10291789570E+03  0.68347716672E+03  0.70399494130E+03  0.12499904795E+03 0.  0.
          2    1    1    2  501    0  0.50760392156E+01  0.35839159438E+02 -0.25312787722E+03  0.25570282311E+03  0.00000000000E+00 0. -1.
          1    1    1    2  502    0  0.42368504202E+02  0.67078736264E+02  0.10903034482E+04  0.10931862861E+04  0.00000000000E+00 0. -1.
         22    1    3    3    0    0 -0.75614182082E+01 -0.45655092087E+02  0.55988831433E+02  0.72638224951E+02  0.00000000000E+00 0.  1.
         22    1    3    3    0    0 -0.39883125210E+02 -0.57262803615E+02  0.62748833529E+03  0.63135671635E+03  0.00000000000E+00 0.  1.
</event>
<event>
 7    1  0.5970484E-006  0.1057966E+03  0.7818608E-02  0.1363567E+00
          2   -1    0    0  502    0  0.00000000000E+00  0.00000000000E+00  0.32862189575E+03  0.32862189575E+03  0.00000000000E+00 0. -1.
          1   -1    0    0  501    0 -0.00000000000E+00 -0.00000000000E+00 -0.18616245015E+03  0.18616245015E+03  0.00000000000E+00 0. -1.
         25    2    1    2    0    0 -0.11541322813E+03  0.90879840070E+02 -0.44735105848E+02  0.19801040042E+03  0.12501012126E+03 0.  0.
          2    1    1    2  501    0  0.32762071653E+02 -0.30829082080E+02 -0.44671631839E+02  0.63398267579E+02  0.00000000000E+00 0. -1.
          1    1    1    2  502    0  0.82651156479E+02 -0.60050757990E+02  0.23186618328E+03  0.25337567790E+03  0.00000000000E+00 0. -1.
         22    1    3    3    0    0 -0.11130353749E+03  0.20865682200E+02 -0.57052421647E+02  0.12680233817E+03  0.00000000000E+00 0. -1.
         22    1    3    3    0    0 -0.41096906452E+01  0.70014157870E+02  0.12317315799E+02  0.71208062240E+02  0.00000000000E+00 0. -1.
</event>
<event>
 7    1  0.5970484E-006  0.1215860E+03  0.7818608E-02  0.1321412E+00
          2   -1    0    0  502    0  0.00000000000E+00  0.00000000000E+00  0.42008750437E+04  0.42008750437E+04  0.00000000000E+00 0. -1.
          1   -1    0    0  501    0 -0.00000000000E+00 -0.00000000000E+00 -0.22817240119E+02  0.22817240119E+02  0.00000000000E+00 0. -1.
         25    2    1    2    0    0  0.60195155245E+02  0.43600842472E+02  0.18556226180E+04  0.18613126968E+04  0.12500065864E+03 0.  0.
          2    1    1    2  501    0 -0.85399822621E+02 -0.93971426759E+02  0.18604843593E+03  0.22525048116E+03  0.00000000000E+00 0. -1.
          1    1    1    2  502    0  0.25204667376E+02  0.50370584287E+02  0.21363867497E+04  0.21371291059E+04  0.00000000000E+00 0. -1.
         22    1    3    3    0    0 -0.14919056136E+02  0.40180529415E+02  0.23047287551E+03  0.23442440045E+03  0.00000000000E+00 0. -1.
         22    1    3    3    0    0  0.75114211381E+02  0.34203130569E+01  0.16251497425E+04  0.16268882964E+04  0.00000000000E+00 0. -1.
</event>
<event>
 7    1  0.5970484E-006  0.8575265E+02  0.7818608E-02  0.1385081E+00
          2   -1    0    0  502    0  0.00000000000E+00  0.00000000000E+00  0.27177394690E+04  0.27177394690E+04  0.00000000000E+00 0. -1.
          1   -1    0    0  501    0 -0.00000000000E+00 -0.00000000000E+00 -0.82626505677E+02  0.82626505677E+02  0.00000000000E+00 0. -1.
         25    2    1    2    0    0 -0.44138125446E+02  0.61126224036E+02  0.28920611641E+03  0.32396031562E+03  0.12500207577E+03 0.  0.
          2    1    1    2  501    0  0.58967058456E+01 -0.87581682029E+02 -0.35396784027E+02  0.94648055903E+02  0.00000000000E+00 0. -1.
          1    1    1    2  502    0  0.38241419600E+02  0.26455457992E+02  0.23813036310E+04  0.23817576032E+04  0.00000000000E+00 0. -1.
         22    1    3    3    0    0 -0.21381952663E+02 -0.33520558918E+02  0.39918890838E+02  0.56341224833E+02  0.00000000000E+00 0. -1.
         22    1    3    3    0    0 -0.22756172783E+02  0.94646782954E+02  0.24928722557E+03  0.26761909079E+03  0.00000000000E+00 0. -1.
</event>
<event>
 7    1  0.5970484E-006  0.8612086E+02  0.7818608E-02  0.1401359E+00
          2   -1    0    0  502    0  0.00000000000E+00  0.00000000000E+00  0.50097413368E+03  0.50097413368E+03  0.00000000000E+00 0. -1.
          1   -1    0    0  501    0 -0.00000000000E+00 -0.00000000000E+00 -0.61524724144E+03  0.61524724144E+03  0.00000000000E+00 0. -1.
         25    2    1    2    0    0  0.53185722612E+02 -0.87007531821E+02 -0.39930108577E+03  0.43065709149E+03  0.12500056669E+03 0.  0.
          2    1    1    2  501    0 -0.13301994544E+02  0.79153744942E+02 -0.19132556387E+03  0.20747946835E+03  0.00000000000E+00 0. -1.
          1    1    1    2  502    0 -0.39883728068E+02  0.78537868783E+01  0.47635354188E+03  0.47808481528E+03  0.00000000000E+00 0. -1.
         22    1    3    3    0    0 -0.19097587409E+02  0.19631997686E+02 -0.36301076587E+02  0.45474183218E+02  0.00000000000E+00 0.  1.
         22    1    3    3    0    0  0.72283310021E+02 -0.10663952951E+03 -0.36300000918E+03  0.38518290828E+03  0.00000000000E+00 0.  1.
</event>
<event>
 7    1  0.5970484E-006  0.9619403E+02  0.7818608E-02  0.1405628E+00
          2   -1    0    0  502    0  0.00000000000E+00  0.00000000000E+00  0.15294546935E+03  0.15294546935E+03  0.00000000000E+00 0. -1.
          1   -1    0    0  501    0 -0.00000000000E+00 -0.00000000000E+00 -0.54706889135E+03  0.54706889135E+03  0.00000000000E+00 0. -1.
         25    2    1    2    0    0  0.60123689287E+02 -0.22073057589E+02  0.76019392102E+02  0.15970418290E+03  0.12499760068E+03 0.  0.
          2    1    1    2  501    0 -0.86097350214E+02  0.45814733010E+02 -0.49019881250E+03  0.49980658184E+03  0.00000000000E+00 0. -1.
          1    1    1    2  502    0  0.25973660927E+02 -0.23741675420E+02  0.20055998401E+02  0.40503595958E+02  0.00000000000E+00 0. -1.
         22    1    3    3    0    0 -0.38247867791E+02 -0.13369737323E+02  0.12990022433E+02  0.42548677412E+02  0.00000000000E+00 0. -1.
         22    1    3    3    0    0  0.98371557079E+02 -0.87033202661E+01  0.63029369669E+02  0.11715550549E+03  0.00000000000E+00 0. -1.
</event>
<event>
 7    1  0.5970484E-006  0.1415305E+03  0.7818608E-02  0.1246437E+00
          2   -1    0    0  502    0  0.00000000000E+00  0.00000000000E+00  0.34620194548E+03  0.34620194548E+03  0.00000000000E+00 0. -1.
          1   -1    0    0  501    0 -0.00000000000E+00 -0.00000000000E+00 -0.21452655525E+03  0.21452655525E+03  0.00000000000E+00 0. -1.
         25    2    1    2    0    0  0.73552109245E+01  0.60575997397E+02  0.13158195298E+03  0.19145959427E+03  0.12497765920E+03 0.  0.
          2    1    1    2  501    0 -0.92820711153E+02  0.10684189026E+03 -0.82645857490E+02  0.16389390377E+03  0.00000000000E+00 0. -1.
          1    1    1    2  502    0  0.85465500229E+02 -0.16741788766E+03  0.82739294736E+02  0.20537500269E+03  0.00000000000E+00 0. -1.
         22    1    3    3    0    0 -0.41018747900E+02  0.77033007831E+02  0.92138683367E+02  0.12691004274E+03  0.00000000000E+00 0.  1.
         22    1    3    3    0    0  0.48373958825E+02 -0.16457010434E+02  0.39443269614E+02  0.64549551529E+02  0.00000000000E+00 0.  1.
</event>
<event>
 7    1  0.5970484E-006  0.6202792E+02  0.7818608E-02  0.1438632E+00
          2   -1    0    0  502    0  0.00000000000E+00  0.00000000000E+00  0.36448930117E+03  0.36448930117E+03  0.00000000000E+00 0. -1.
          1   -1    0    0  501    0 -0.00000000000E+00 -0.00000000000E+00 -0.23754340650E+04  0.23754340650E+04  0.00000000000E+00 0. -1.
         25    2    1    2    0    0 -0.75566596039E+02  0.62411469154E+02 -0.13691452160E+04  0.13783298111E+04  0.12501577458E+03 0.  0.
          2    1    1    2  501    0  0.18577355554E+02 -0.38080844659E+02 -0.99857670484E+03  0.99947521446E+03  0.00000000000E+00 0. -1.
          1    1    1    2  502    0  0.56989240485E+02 -0.24330624494E+02  0.35677715700E+03  0.36211834057E+03  0.00000000000E+00 0. -1.
         22    1    3    3    0    0 -0.68495409557E+02  0.70185954415E+02 -0.13622164183E+04  0.13657420180E+04  0.00000000000E+00 0.  1.
         22    1    3    3    0    0 -0.70711864826E+01 -0.77744852608E+01 -0.69287976477E+01  0.12587793142E+02  0.00000000000E+00 0.  1.
</event>
<event>
 7    1  0.5970484E-006  0.2037144E+03  0.7818608E-02  0.1162738E+00
          2   -1    0    0  502    0  0.00000000000E+00  0.00000000000E+00  0.15274340785E+04  0.15274340785E+04  0.00000000000E+00 0. -1.
          1   -1    0    0  501    0 -0.00000000000E+00 -0.00000000000E+00 -0.42581700633E+03  0.42581700633E+03  0.00000000000E+00 0. -1.
         25    2    1    2    0    0  0.59723192480E+02 -0.23002593434E+02  0.14525889821E+03  0.20203977542E+03  0.12499577721E+03 0.  0.
          2    1    1    2  501    0 -0.22683098823E+03  0.45482404205E+02 -0.35791090302E+03  0.42617034249E+03  0.00000000000E+00 0. -1.
          1    1    1    2  502    0  0.16710779575E+03 -0.22479810771E+02  0.13142690769E+04  0.13250409669E+04  0.00000000000E+00 0. -1.
         22    1    3    3    0    0  0.84804735859E+02  0.12607465089E+02  0.13031772133E+03  0.15599198663E+03  0.00000000000E+00 0.  1.
         22    1    3    3    0    0 -0.25081543379E+02 -0.35610058523E+02  0.14941176872E+02  0.46047788791E+02  0.00000000000E+00 0.  1.
</event>
<event>
 7    1  0.5970484E-006  0.4960882E+02  0.7818608E-02  0.1531923E+00
          2   -1    0    0  502    0  0.00000000000E+00  0.00000000000E+00  0.10177589923E+04  0.10177589923E+04  0.00000000000E+00 0. -1.
          1   -1    0    0  501    0 -0.00000000000E+00 -0.00000000000E+00 -0.32273664638E+02  0.32273664638E+02  0.00000000000E+00 0. -1.
         25    2    1    2    0    0  0.60508319232E+02 -0.26342762497E+02  0.30789209722E+03  0.33880634057E+03  0.12504797099E+03 0.  0.
          2    1    1    2  501    0 -0.34111881418E+02  0.34139130230E+02  0.18697754924E+02  0.51756223838E+02  0.00000000000E+00 0. -1.
          1    1    1    2  502    0 -0.26396437814E+02 -0.77963677339E+01  0.65889547552E+03  0.65947009253E+03  0.00000000000E+00 0. -1.
         22    1    3    3    0    0  0.43469944168E+02 -0.19498337482E+02  0.31539338097E+03  0.31897148144E+03  0.00000000000E+00 0. -1.
         22    1    3    3    0    0  0.17038375064E+02 -0.68444250144E+01 -0.75012837583E+01  0.19834859128E+02  0.00000000000E+00 0. -1.
</event>
<event>
 7    1  0.5970484E-006  0.1573526E+03  0.7818608E-02  0.1320208E+00
          2   -1    0    0  502    0  0.00000000000E+00  0.00000000000E+00  0.35415094255E+03  0.35415094255E+03  0.00000000000E+00 0. -1.
          1   -1    0    0  501    0 -0.00000000000E+00 -0.00000000000E+00 -0.15895583757E+04  0.15895583757E+04  0.00000000000E+00 0. -1.
         25    2    1    2    0    0 -0.53843611921E+02  0.10456924997E+03 -0.22036937589E+03  0.27932284739E+03  0.12499891464E+03 0.  0.
          2    1    1    2  501    0 -0.29500486432E+02  0.32634666463E+02 -0.13194794004E+04  0.13202125542E+04  0.00000000000E+00 0. -1.
          1    1    1    2  502    0  0.83344098353E+02 -0.13720391644E+03  0.30444134321E+03  0.34417391660E+03  0.00000000000E+00 0. -1.
         22    1    3    3    0    0  0.51888078930E+01  0.72704677749E+02 -0.19400303703E+03  0.20724399212E+03  0.00000000000E+00 0.  1.
         22    1    3    3    0    0 -0.59032419814E+02  0.31864572224E+02 -0.26366338856E+02  0.72078855269E+02  0.00000000000E+00 0.  1.
</event>
<event>
 7    1  0.5970484E-006  0.7298335E+02  0.7818608E-02  0.1365510E+00
          2   -1    0    0  502    0  0.00000000000E+00  0.00000000000E+00  0.10781191223E+04  0.10781191223E+04  0.00000000000E+00 0. -1.
          1   -1    0    0  501    0 -0.00000000000E+00 -0.00000000000E+00 -0.48362872753E+02  0.48362872753E+02  0.00000000000E+00 0. -1.
         25    2    1    2    0    0 -0.22834225791E+02 -0.49869739299E+02  0.15159457894E+03  0.20398694630E+03  0.12498545968E+03 0.  0.
          2    1    1    2  501    0 -0.49275887528E+02  0.61125912377E+02  0.54428669324E+02  0.95535178338E+02  0.00000000000E+00 0. -1.
          1    1    1    2  502    0  0.72110113319E+02 -0.11256173078E+02  0.82373300130E+03  0.82695987044E+03  0.00000000000E+00 0. -1.
         22    1    3    3    0    0  0.19001232709E+02 -0.78869395982E+01 -0.16101826966E+02  0.26125074015E+02  0.00000000000E+00 0.  1.
         22    1    3    3    0    0 -0.41835458500E+02 -0.41982799701E+02  0.16769640590E+03  0.17786187228E+03  0.00000000000E+00 0.  1.
</event>
<event>
 7    1  0.5970484E-006  0.4047356E+02  0.7818608E-02  0.1542308E+00
          2   -1    0    0  502    0  0.00000000000E+00  0.00000000000E+00  0.94744711319E+03  0.94744711319E+03  0.00000000000E+00 0. -1.
          1   -1    0    0  501    0 -0.00000000000E+00 -0.00000000000E+00 -0.62243754418E+03  0.62243754418E+03  0.00000000000E+00 0. -1.
         25    2    1    2    0    0  0.37908675900E+02 -0.15084826511E+02  0.36147778448E+03  0.38465047420E+03  0.12500071573E+03 0.  0.
          2    1    1    2  501    0 -0.21766131397E+02 -0.22801759888E+02 -0.60970533030E+03  0.61051967579E+03  0.00000000000E+00 0. -1.
          1    1    1    2  502    0 -0.16142544503E+02  0.37886586400E+02  0.57323711483E+03  0.57471450738E+03  0.00000000000E+00 0. -1.
         22    1    3    3    0    0 -0.40136947615E+02 -0.30962055070E+02  0.16610271814E+03  0.17366558782E+03  0.00000000000E+00 0.  1.
         22    1    3    3    0    0  0.78045623515E+02  0.15877228559E+02  0.19537506634E+03  0.21098488639E+03  0.00000000000E+00 0.  1.
</event>
<event>
 7    1  0.5970484E-006  0.3809925E+02  0.7818608E-02  0.1569819E+00
          2   -1    0    0  502    0  0.00000000000E+00  0.00000000000E+00  0.37712631059E+03  0.37712631059E+03  0.00000000000E+00 0. -1.
          1   -1    0    0  501    0 -0.00000000000E+00 -0.00000000000E+00 -0.47598884300E+03  0.47598884300E+03  0.00000000000E+00 0. -1.
         25    2    1    2    0    0 -0.62306356206E+02 -0.14653506607E+02  0.10752377521E+03  0.17687192272E+03  0.12500203012E+03 0.  0.
          2    1    1    2  501    0  0.25353323796E+02  0.12123149082E+02 -0.43940315144E+03  0.44030090991E+03  0.00000000000E+00 0. -1.
          1    1    1    2  502    0  0.36953032410E+02  0.25303575244E+01  0.23301684383E+03  0.23594232096E+03  0.00000000000E+00 0. -1.
         22    1    3    3    0    0 -0.15782196861E+02 -0.44385256546E+02 -0.89719461931E+01  0.47954400788E+02  0.00000000000E+00 0. -1.
         22    1    3    3    0    0 -0.46524159345E+02  0.29731749939E+02  0.11649572140E+03  0.12891752193E+03  0.00000000000E+00 0. -1.
</event>
<event>
 7    1  0.5970484E-006  0.1264437E+03  0.7818608E-02  0.1261154E+00
          2   -1    0    0  502    0  0.00000000000E+00  0.00000000000E+00  0.22445475178E+03  0.22445475178E+03  0.00000000000E+00 0. -1.
          1   -1    0    0  501    0 -0.00000000000E+00 -0.00000000000E+00 -0.74319163648E+03  0.74319163648E+03  0.00000000000E+00 0. -1.
         25    2    1    2    0    0 -0.51580330167E+02  0.93054680128E+02 -0.52185328557E+02  0.17224108453E+03  0.12499591486E+03 0.  0.
          2    1    1    2  501    0 -0.37346841944E+02 -0.12689255817E+03 -0.60949922898E+03  0.62368727584E+03  0.00000000000E+00 0. -1.
          1    1    1    2  502    0  0.88927172111E+02  0.33837878042E+02  0.14294767283E+03  0.17171802788E+03  0.00000000000E+00 0. -1.
         22    1    3    3    0    0 -0.45240848022E+02  0.73593495202E+02  0.26956626331E+02  0.90495284789E+02  0.00000000000E+00 0. -1.
         22    1    3    3    0    0 -0.63394821449E+01  0.19461184926E+02 -0.79141954888E+02  0.81745799746E+02  0.00000000000E+00 0. -1.
</event>
<event>
 7    1  0.5970484E-006  0.5308388E+02  0.7818608E-02  0.1559898E+00
          2   -1    0    0  502    0  0.00000000000E+00  0.00000000000E+00  0.65248647829E+02  0.65248647829E+02  0.00000000000E+00 0. -1.
          1   -1    0    0  501    0 -0.00000000000E+00 -0.00000000000E+00 -0.61579061454E+03  0.61579061454E+03  0.00000000000E+00 0. -1.
         25    2    1    2    0    0  0.10291375356E+02  0.32862837535E+02 -0.18447072525E+03  0.22547943307E+03  0.12500259102E+03 0.  0.
          2    1    1    2  501    0 -0.24365100921E+02 -0.49077028103E+02 -0.40629055541E+03  0.40996856982E+03  0.00000000000E+00 0. -1.
          1    1    1    2  502    0  0.14073725566E+02  0.16214190567E+02  0.40219313947E+02  0.45591259484E+02  0.00000000000E+00 0. -1.
         22    1    3    3    0    0  0.26951184324E+02 -0.33160873758E+02 -0.19426942407E+02  0.46940557902E+02  0.00000000000E+00 0.  1.
         22    1    3    3    0    0 -0.16659808969E+02  0.66023711294E+02 -0.16504378285E+03  0.17853887516E+03  0.00000000000E+00 0.  1.
</event>
<event>
 7    1  0.5970484E-006  0.2129286E+03  0.7818608E-02  0.1176946E+00
          2   -1    0    0  502    0  0.00000000000E+00  0.00000000000E+00  0.74679771672E+03  0.74679771672E+03  0.00000000000E+00 0. -1.
          1   -1    0    0  501    0 -0.00000000000E+00 -0.00000000000E+00 -0.14624610888E+04  0.14624610888E+04  0.00000000000E+00 0. -1.
         25    2    1    2    0    0 -0.14557710646E+02 -0.10902756605E+03  0.30377711965E+03  0.34642033284E+03  0.12501028550E+03 0.  0.
          2    1    1    2  501    0 -0.21138756282E+03  0.25571363954E+02 -0.13980136655E+04  0.14141360632E+04  0.00000000000E+00 0. -1.
          1    1    1    2  502    0  0.22594527347E+03  0.83456202093E+02  0.37857317382E+03  0.44870240940E+03  0.00000000000E+00 0. -1.
         22    1    3    3    0    0 -0.13244265926E+02  0.16078485658E+02  0.35024340411E+01  0.21123336034E+02  0.00000000000E+00 0.  1.
         22    1    3    3    0    0 -0.13134447197E+01 -0.12510605171E+03  0.30027468561E+03  0.32529699681E+03  0.00000000000E+00 0.  1.
</event>
<event>
 7    1  0.5970484E-006  0.1531950E+03  0.7818608E-02  0.1394558E+00
          2   -1    0    0  502    0  0.00000000000E+00  0.00000000000E+00  0.12464034904E+04  0.12464034904E+04  0.00000000000E+00 0. -1.
          1   -1    0    0  501    0 -0.00000000000E+00 -0.00000000000E+00 -0.72950278037E+03  0.72950278037E+03  0.00000000000E+00 0. -1.
         25    2    1    2    0    0 -0.60021356855E+02 -0.11574047048E+03 -0.62423999809E+03  0.64984554966E+03  0.12500097368E+03 0.  0.
          2    1    1    2  501    0 -0.17514278873E+02 -0.16583960899E+02 -0.86028062098E+02  0.89345426250E+02  0.00000000000E+00 0. -1.
          1    1    1    2  502    0  0.77535635729E+02  0.13232443138E+03  0.12271687702E+04  0.12367152948E+04  0.00000000000E+00 0. -1.
         22    1    3    3    0    0 -0.79491318565E+02 -0.79815028975E+02 -0.57466109483E+03  0.58559771387E+03  0.00000000000E+00 0. -1.
         22    1    3    3    0    0  0.19469961709E+02 -0.35925441501E+02 -0.49578903255E+02  0.64247835792E+02  0.00000000000E+00 0. -1.
</event>
<event>
 7    1  0.5970484E-006  0.1047397E+04  0.7818608E-02  0.1022669E+00
          2   -1    0    0  502    0  0.00000000000E+00  0.00000000000E+00  0.15497418303E+04  0.15497418303E+04  0.00000000000E+00 0. -1.
          1   -1    0    0  501    0 -0.00000000000E+00 -0.00000000000E+00 -0.10063165600E+04  0.10063165600E+04  0.00000000000E+00 0. -1.
         25    2    1    2    0    0 -0.97910020401E+03 -0.36436810828E+03  0.59801933546E+03  0.12102287586E+04  0.12500077929E+03 0.  0.
          2    1    1    2  501    0  0.73947681233E+02 -0.19498826529E+03 -0.17862865842E+03  0.27458492451E+03  0.00000000000E+00 0. -1.
          1    1    1    2  502    0  0.90515252278E+03  0.55935637357E+03  0.12403459324E+03  0.10712447071E+04  0.00000000000E+00 0. -1.
         22    1    3    3    0    0 -0.60770474005E+03 -0.19307867607E+03  0.42407840420E+03  0.76578516514E+03  0.00000000000E+00 0. -1.
         22    1    3    3    0    0 -0.37139546396E+03 -0.17128943221E+03  0.17394093126E+03  0.44444359350E+03  0.00000000000E+00 0. -1.
</event>
<event>
 7    1  0.5970484E-006  0.1256158E+03  0.7818608E-02  0.1248508E+00
          2   -1    0    0  502    0  0.00000000000E+00  0.00000000000E+00  0.11688528605E+04  0.11688528605E+04  0.00000000000E+00 0. -1.
          1   -1    0    0  501    0 -0.00000000000E+00 -0.00000000000E+00 -0.32786192925E+03  0.32786192925E+03  0.00000000000E+00 0. -1.
         25    2    1    2    0    0 -0.49488328487E+02  0.70662974711E+02  0.28177859730E+03  0.32010404282E+03  0.12500027874E+03 0.  0.
          2    1    1    2  501    0  0.81180997141E+02  0.72080560682E+02 -0.29272939188E+03  0.31221220091E+03  0.00000000000E+00 0. -1.
          1    1    1    2  502    0 -0.31692668655E+02 -0.14274353539E+03  0.85194172584E+03  0.86439854603E+03  0.00000000000E+00 0. -1.
         22    1    3    3    0    0 -0.20633031603E+02 -0.15365284689E+01  0.21953155370E+03  0.22050438994E+03  0.00000000000E+00 0.  1.
         22    1    3    3    0    0 -0.28855296884E+02  0.72199503180E+02  0.62247043599E+02  0.99599652883E+02  0.00000000000E+00 0.  1.
</event>
<event>
 7    1  0.5970484E-006  0.2039679E+03  0.7818608E-02  0.1260077E+00
          2   -1    0    0  502    0  0.00000000000E+00  0.00000000000E+00  0.10432325449E+04  0.10432325449E+04  0.00000000000E+00 0. -1.
          1   -1    0    0  501    0 -0.00000000000E+00 -0.00000000000E+00 -0.26616146894E+03  0.26616146894E+03  0.00000000000E+00 0. -1.
         25    2    1    2    0    0  0.14993878756E+03 -0.93897247095E+02  0.42795803150E+03  0.47965688017E+03  0.12499725175E+03 0.  0.
          2    1    1    2  501    0  0.59530402850E+02  0.31024059403E+01 -0.21397730192E+03  0.22212559403E+03  0.00000000000E+00 0. -1.
          1    1    1    2  502    0 -0.20946919041E+03  0.90794841155E+02  0.56309034642E+03  0.60761153967E+03  0.00000000000E+00 0. -1.
         22    1    3    3    0    0  0.15053968972E+02 -0.74203531809E+02  0.10825503038E+03  0.13210578230E+03  0.00000000000E+00 0. -1.
         22    1    3    3    0    0  0.13488481859E+03 -0.19693715286E+02  0.31970300111E+03  0.34755109787E+03  0.00000000000E+00 0. -1.
</event>
<event>
 7    1  0.5970484E-006  0.5642641E+02  0.7818608E-02  0.1424575E+00
          2   -1    0    0  502    0  0.00000000000E+00  0.00000000000E+00  0.24252817817E+04  0.24252817817E+04  0.00000000000E+00 0. -1.
          1   -1    0    0  501    0 -0.00000000000E+00 -0.00000000000E+00 -0.46483831014E+02  0.46483831014E+02  0.00000000000E+00 0. -1.
         25    2    1    2    0    0  0.11658495318E+02  0.39485070743E+02  0.28381864703E+03  0.31284577944E+03  0.12499786393E+03 0.  0.
          2    1    1    2  501    0  0.39920113984E+02 -0.44286614547E+02 -0.35712722740E+01  0.59730006816E+02  0.00000000000E+00 0. -1.
          1    1    1    2  502    0 -0.51578609302E+02  0.48015438048E+01  0.20985505759E+04  0.20991898265E+04  0.00000000000E+00 0. -1.
         22    1    3    3    0    0 -0.56041457898E+02  0.68991900264E+01  0.12310619699E+03  0.13543773316E+03  0.00000000000E+00 0.  1.
         22    1    3    3    0    0  0.67699953217E+02  0.32585880716E+02  0.16071245003E+03  0.17740804628E+03  0.00000000000E+00 0.  1.
</event>
<event>
 7    1  0.5970484E-006  0.6053790E+02  0.7818608E-02  0.1466837E+00
          2   -1    0    0  502    0  0.00000000000E+00  0.00000000000E+00  0.63228834348E+03  0.63228834348E+03  0.00000000000E+00 0. -1.
          1   -1    0    0  501    0 -0.00000000000E+00 -0.00000000000E+00 -0.14341090175E+04  0.14341090175E+04  0.00000000000E+00 0. -1.
         25    2    1    2    0    0 -0.56091977501E+02  0.42162154303E+02 -0.35662789369E+03  0.38435810701E+03  0.12499497057E+03 0.  0.
          2    1    1    2  501    0  0.23511420942E+02 -0.55737815744E+02 -0.10622511382E+04  0.10639722607E+04  0.00000000000E+00 0. -1.
          1    1    1    2  502    0  0.32580556559E+02  0.13575661441E+02  0.61705835781E+03  0.61806699329E+03  0.00000000000E+00 0. -1.
         22    1    3    3    0    0 -0.21172411915E+02  0.77027073247E+02 -0.29381324072E+03  0.30447932847E+03  0.00000000000E+00 0. -1.
         22    1    3    3    0    0 -0.34919565586E+02 -0.34864918944E+02 -0.62814652964E+02  0.79878778538E+02  0.00000000000E+00 0. -1.
</event>
<event>
 7    1  0.5970484E-006  0.1732026E+03  0.7818608E-02  0.1231327E+00
          2   -1    0    0  502    0  0.00000000000E+00  0.00000000000E+00  0.13771528570E+04  0.13771528570E+04  0.00000000000E+00 0. -1.
          1   -1    0    0  501    0 -0.00000000000E+00 -0.00000000000E+00 -0.44368859322E+03  0.44368859322E+03  0.00000000000E+00 0. -1.
         25    2    1    2    0    0  0.11315067797E+03 -0.22770205896E+03  0.40468481181E+03  0.49401289828E+03  0.12501057226E+03 0.  0.
          2    1    1    2  501    0 -0.42432313938E+02  0.83594318699E+02 -0.38643468331E+03  0.39764340288E+03  0.00000000000E+00 0. -1.
          1    1    1    2  502    0 -0.70718364029E+02  0.14410774027E+03  0.91521413526E+03  0.92918514904E+03  0.00000000000E+00 0. -1.
         22    1    3    3    0    0  0.40714616614E+02 -0.47420763808E+02  0.24636682508E+02  0.67181656508E+02  0.00000000000E+00 0.  1.
         22    1    3    3    0    0  0.72436061353E+02 -0.18028129516E+03  0.38004812930E+03  0.42683124177E+03  0.00000000000E+00 0.  1.
</event>
<event>
 7    1  0.5970484E-006  0.1211012E+03  0.7818608E-02  0.1281332E+00
          2   -1    0    0  502    0  0.00000000000E+00  0.00000000000E+00  0.12048206373E+04  0.12048206373E+04  0.00000000000E+00 0. -1.
          1   -1    0    0  501    0 -0.00000000000E+00 -0.00000000000E+00 -0.22579812791E+03  0.22579812791E+03  0.00000000000E+00 0. -1.
         25    2    1    2    0    0 -0.54591042810E+02 -0.13133917947E+03  0.11791564792E+03  0.22306496194E+03  0.12499486070E+03 0.  0.
          2    1    1    2  501    0 -0.47813450980E+02  0.66330006753E+02 -0.15977981680E+03  0.17948645004E+03  0.00000000000E+00 0. -1.
          1    1    1    2  502    0  0.10240449379E+03  0.65009172720E+02  0.10208866783E+04  0.10280673532E+04  0.00000000000E+00 0. -1.
         22    1    3    3    0    0 -0.22051697903E+02 -0.13860014116E+03  0.12616885432E+03  0.18871898768E+03  0.00000000000E+00 0. -1.
         22    1    3    3    0    0 -0.32539344906E+02  0.72609616866E+01 -0.82532064079E+01  0.34345974255E+02  0.00000000000E+00 0. -1.
</event>
<event>
 7    1  0.5970484E-006  0.1842196E+03  0.7818608E-02  0.1316454E+00
          2   -1    0    0  502    0  0.00000000000E+00  0.00000000000E+00  0.30112851845E+04  0.30112851845E+04  0.00000000000E+00 0. -1.
          1   -1    0    0  501    0 -0.00000000000E+00 -0.00000000000E+00 -0.14466343216E+03  0.14466343216E+03  0.00000000000E+00 0. -1.
         25    2    1    2    0    0  0.17331311009E+03 -0.90865397336E+02  0.66386930992E+03  0.70330722336E+03  0.12499854084E+03 0.  0.
          2    1    1    2  501    0  0.18081404092E+01  0.38818999088E+02 -0.11824390099E+03  0.12446607644E+03  0.00000000000E+00 0. -1.
          1    1    1    2  502    0 -0.17512125050E+03  0.52046398248E+02  0.23209963434E+04  0.23281753168E+04  0.00000000000E+00 0. -1.
         22    1    3    3    0    0  0.81795804734E+01 -0.40856663430E+02  0.27147964984E+03  0.27465864770E+03  0.00000000000E+00 0.  1.
         22    1    3    3    0    0  0.16513352961E+03 -0.50008733906E+02  0.39238966009E+03  0.42864857566E+03  0.00000000000E+00 0.  1.
</event>
<event>
 7    1  0.5970484E-006  0.1002498E+03  0.7818608E-02  0.1281134E+00
          2   -1    0    0  502    0  0.00000000000E+00  0.00000000000E+00  0.48993877465E+03  0.48993877465E+03  0.00000000000E+00 0. -1.
          1   -1    0    0  501    0 -0.00000000000E+00 -0.00000000000E+00 -0.27321023635E+03  0.27321023635E+03  0.00000000000E+00 0. -1.
         25    2    1    2    0    0 -0.10249486903E+03 -0.11025652410E+03 -0.25143389802E+02  0.19727680307E+03  0.12499699075E+03 0.  0.
          2    1    1    2  501    0  0.98340350968E+02  0.11051574068E+02 -0.13992097860E+03  0.17137923495E+03  0.00000000000E+00 0. -1.
          1    1    1    2  502    0  0.41545180584E+01  0.99204950035E+02  0.38179290670E+03  0.39449297298E+03  0.00000000000E+00 0. -1.
         22    1    3    3    0    0 -0.57371003896E+02 -0.16948134925E+02  0.42613511125E+02  0.73447822948E+02  0.00000000000E+00 0. -1.
         22    1    3    3    0    0 -0.45123865131E+02 -0.93308389178E+02 -0.67756900927E+02  0.12382898012E+03  0.00000000000E+00 0. -1.
</event>
<event>
 7    1  0.5970484E-006  0.2319621E+03  0.7818608E-02  0.1239136E+00
          2   -1    0    0  502    0  0.00000000000E+00  0.00000000000E+00  0.56459076051E+03  0.56459076051E+03  0.00000000000E+00 0. -1.
          1   -1    0    0  501    0 -0.00000000000E+00 -0.00000000000E+00 -0.25121390089E+04  0.25121390089E+04  0.00000000000E+00 0. -1.
         25    2    1    2    0    0  0.29235540611E+03  0.17857774235E+02 -0.55213597361E+03  0.63739335004E+03  0.12500226293E+03 0.  0.
          2    1    1    2  501    0 -0.64279064735E+02  0.66533207199E+01 -0.18915931194E+04  0.18926966461E+04  0.00000000000E+00 0. -1.
          1    1    1    2  502    0 -0.22807634138E+03 -0.24511094955E+02  0.49618084456E+03  0.54663977332E+03  0.00000000000E+00 0. -1.
         22    1    3    3    0    0  0.18350010804E+03 -0.32625516095E+02 -0.41649888279E+03  0.45629818465E+03  0.00000000000E+00 0. -1.
         22    1    3    3    0    0  0.10885529807E+03  0.50483290330E+02 -0.13563709082E+03  0.18109516539E+03  0.00000000000E+00 0. -1.
</event>
<event>
 7    1  0.5970484E-006  0.6732965E+02  0.7818608E-02  0.1386017E+00
          2   -1    0    0  502    0  0.00000000000E+00  0.00000000000E+00  0.26479703737E+04  0.26479703737E+04  0.00000000000E+00 0. -1.
          1   -1    0    0  501    0 -0.00000000000E+00 -0.00000000000E+00 -0.52164050416E+02  0.52164050416E+02  0.00000000000E+00 0. -1.
         25    2    1    2    0    0  0.82754296245E+02  0.86661797356E+02  0.48976691915E+03  0.51947518074E+03  0.12499715051E+03 0.  0.
          2    1    1    2  501    0 -0.26793456507E+02 -0.52315061963E+02 -0.13332622876E+02  0.60270339741E+02  0.00000000000E+00 0. -1.
          1    1    1    2  502    0 -0.55960839738E+02 -0.34346735393E+02  0.21193720270E+04  0.21203889036E+04  0.00000000000E+00 0. -1.
         22    1    3    3    0    0  0.59045749780E+02  0.34693995400E+01  0.73642705330E+02  0.94454673513E+02  0.00000000000E+00 0.  1.
         22    1    3    3    0    0  0.23708546466E+02  0.83192397816E+02  0.41612421382E+03  0.42502050722E+03  0.00000000000E+00 0.  1.
</event>
<event>
 7    1  0.5970484E-006  0.9419159E+02  0.7818608E-02  0.1320872E+00
          2   -1    0    0  502    0  0.00000000000E+00  0.00000000000E+00  0.14471193296E+04  0.14471193296E+04  0.00000000000E+00 0. -1.
          1   -1    0    0  501    0 -0.00000000000E+00 -0.00000000000E+00 -0.65025408243E+02  0.65025408243E+02  0.00000000000E+00 0. -1.
         25    2    1    2    0    0 -0.28126512068E+02 -0.28128621175E+02  0.22929447692E+03  0.26416209466E+03  0.12499334022E+03 0.  0.
          2    1    1    2  501    0  0.44729870555E+02  0.99273739865E+02  0.17437755582E+02  0.11027289815E+03  0.00000000000E+00 0. -1.
          1    1    1    2  502    0 -0.16603358487E+02 -0.71145118690E+02  0.11353616889E+04  0.11377097450E+04  0.00000000000E+00 0. -1.
         22    1    3    3    0    0  0.34217826824E+02  0.30311850705E+02  0.78806596891E+02  0.91105146284E+02  0.00000000000E+00 0.  1.
         22    1    3    3    0    0 -0.62344338892E+02 -0.58440471880E+02  0.15048788003E+03  0.17305694838E+03  0.00000000000E+00 0.  1.
</event>
<event>
 7    1  0.5970484E-006  0.5507394E+02  0.7818608E-02  0.1513630E+00
          2   -1    0    0  502    0  0.00000000000E+00  0.00000000000E+00  0.65434292870E+03  0.65434292870E+03  0.00000000000E+00 0. -1.
          1   -1    0    0  501    0 -0.00000000000E+00 -0.00000000000E+00 -0.63863481950E+03  0.63863481950E+03  0.00000000000E+00 0. -1.
         25    2    1    2    0    0  0.22861092841E+02  0.23672295116E+02  0.33854990681E+03  0.36238493780E+03  0.12499518639E+03 0.  0.
          2    1    1    2  501    0  0.16212867780E+02  0.22835293311E+02 -0.62336421171E+03  0.62399298725E+03  0.00000000000E+00 0. -1.
          1    1    1    2  502    0 -0.39073960620E+02 -0.46507588426E+02  0.30052241410E+03  0.30659982315E+03  0.00000000000E+00 0. -1.
         22    1    3    3    0    0 -0.51560687282E+02  0.18298664674E+01  0.14230055321E+03  0.15136479224E+03  0.00000000000E+00 0.  1.
         22    1    3    3    0    0  0.74421780123E+02  0.21842428648E+02  0.19624935360E+03  0.21102014556E+03  0.00000000000E+00 0.  1.
</event>
<event>
 7    1  0.5970484E-006  0.3060028E+02  0.7818608E-02  0.1607106E+00
          2   -1    0    0  502    0  0.00000000000E+00  0.00000000000E+00  0.68706521910E+03  0.68706521910E+03  0.00000000000E+00 0. -1.
          1   -1    0    0  501    0 -0.00000000000E+00 -0.00000000000E+00 -0.17640459733E+02  0.17640459733E+02  0.00000000000E+00 0. -1.
         25    2    1    2    0    0  0.51741324534E+02 -0.11359985310E+02  0.45380958177E+03  0.47368133669E+03  0.12499863315E+03 0.  0.
          2    1    1    2  501    0 -0.23459979652E+02  0.15033261867E+02  0.22497135783E+02  0.35811879678E+02  0.00000000000E+00 0. -1.
          1    1    1    2  502    0 -0.28281344882E+02 -0.36732765567E+01  0.19311804182E+03  0.19521246247E+03  0.00000000000E+00 0. -1.
         22    1    3    3    0    0  0.55291076124E+02  0.16021382824E+02  0.78434203247E+02  0.97291890955E+02  0.00000000000E+00 0.  1.
         22    1    3    3    0    0 -0.35497515900E+01 -0.27381368134E+02  0.37537537852E+03  0.37638944573E+03  0.00000000000E+00 0.  1.
</event>
<event>
 7    1  0.5970484E-006  0.1859642E+03  0.7818608E-02  0.1303748E+00
          2   -1    0    0  502    0  0.00000000000E+00  0.00000000000E+00  0.68122942589E+03  0.68122942589E+03  0.00000000000E+00 0. -1.
          1   -1    0    0  501    0 -0.00000000000E+00 -0.00000000000E+00 -0.24620383905E+03  0.24620383905E+03  0.00000000000E+00 0. -1.
         25    2    1    2    0    0  0.14517443772E+03  0.65419894814E+02  0.32863539894E+03  0.38598146399E+03  0.12500034043E+03 0.  0.
          2    1    1    2  501    0 -0.18369809661E+03 -0.45870077973E+02 -0.17436341368E+03  0.25739396804E+03  0.00000000000E+00 0. -1.
          1    1    1    2  502    0  0.38523658897E+02 -0.19549816840E+02  0.28075360159E+03  0.28405783291E+03  0.00000000000E+00 0. -1.
         22    1    3    3    0    0  0.16822795609E+03  0.53902211218E+02  0.28825537818E+03  0.33807877282E+03  0.00000000000E+00 0. -1.
         22    1    3    3    0    0 -0.23053518375E+02  0.11517683596E+02  0.40380020758E+02  0.47902691170E+02  0.00000000000E+00 0. -1.
</event>
<event>
 7    1  0.5970484E-006  0.3086576E+02  0.7818608E-02  0.1601970E+00
          2   -1    0    0  502    0  0.00000000000E+00  0.00000000000E+00  0.43463227097E+03  0.43463227097E+03  0.00000000000E+00 0. -1.
          1   -1    0    0  501    0 -0.00000000000E+00 -0.00000000000E+00 -0.42247460617E+03  0.42247460617E+03  0.00000000000E+00 0. -1.
         25    2    1    2    0    0  0.49263649112E+01  0.20690725864E+02 -0.36834265169E+03  0.38955617050E+03  0.12500130283E+03 0.  0.
          2    1    1    2  501    0 -0.28477207771E+02 -0.69019508752E+00 -0.38233563030E+02  0.47678434052E+02  0.00000000000E+00 0. -1.
          1    1    1    2  502    0  0.23550842860E+02 -0.20000530776E+02  0.41873387952E+03  0.41987227259E+03  0.00000000000E+00 0. -1.
         22    1    3    3    0    0 -0.13879095682E+02  0.62815511710E+02 -0.30184195428E+03  0.30862109969E+03  0.00000000000E+00 0. -1.
         22    1    3    3    0    0  0.18805460593E+02 -0.42124785846E+02 -0.66500697408E+02  0.80935070807E+02  0.00000000000E+00 0. -1.
</event>
<event>
 7    1  0.5970484E-006  0.1148996E+03  0.7818608E-02  0.1302988E+00
          2   -1    0    0  502    0  0.00000000000E+00  0.00000000000E+00  0.69128036873E+03  0.69128036873E+03  0.00000000000E+00 0. -1.
          1   -1    0    0  501    0 -0.00000000000E+00 -0.00000000000E+00 -0.25271751501E+03  0.25271751501E+03  0.00000000000E+00 0. -1.
         25    2    1    2    0    0 -0.47687465075E+02  0.23601262192E+02  0.53516038963E+02  0.14600787520E+03  0.12499287696E+03 0.  0.
          2    1    1    2  501    0 -0.62256580658E+02  0.32884476188E+02 -0.19374770366E+03  0.20614422932E+03  0.00000000000E+00 0. -1.
          1    1    1    2  502    0  0.10994404573E+03 -0.56485738380E+02  0.57879451842E+03  0.59184577922E+03  0.00000000000E+00 0. -1.
         22    1    3    3    0    0 -0.87472312303E+02  0.30107083710E+02  0.22666112695E+02  0.95244918887E+02  0.00000000000E+00 0. -1.
         22    1    3    3    0    0  0.39784847227E+02 -0.65058215183E+01  0.30849926268E+02  0.50762956310E+02  0.00000000000E+00 0. -1.
</event>
<event>
 7    1  0.5970484E-006  0.9889628E+02  0.7818608E-02  0.1424041E+00
          2   -1    0    0  502    0  0.00000000000E+00  0.00000000000E+00  0.18267658430E+04  0.18267658430E+04  0.00000000000E+00 0. -1.
          1   -1    0    0  501    0 -0.00000000000E+00 -0.00000000000E+00 -0.36139473883E+03  0.36139473883E+03  0.00000000000E+00 0. -1.
         25    2    1    2    0    0 -0.51786985931E+02  0.60160928479E+02  0.20003636304E+02  0.14942338173E+03  0.12500388920E+03 0.  0.
          2    1    1    2  501    0  0.73842290907E+01  0.28743428557E+02 -0.29452133357E+03  0.29601271502E+03  0.00000000000E+00 0. -1.
          1    1    1    2  502    0  0.44402756840E+02 -0.88904357036E+02  0.17398888014E+04  0.17427244851E+04  0.00000000000E+00 0. -1.
         22    1    3    3    0    0  0.26835463430E+02  0.54233332708E+02  0.33906078258E+02  0.69361506738E+02  0.00000000000E+00 0.  1.
         22    1    3    3    0    0 -0.78622449361E+02  0.59275957702E+01 -0.13902441954E+02  0.80061874993E+02  0.00000000000E+00 0.  1.
</event>
<event>
 7    1  0.5970484E-006  0.5973642E+02  0.7818608E-02  0.1441002E+00
          2   -1    0    0  502    0  0.00000000000E+00  0.00000000000E+00  0.15482354253E+04  0.15482354253E+04  0.00000000000E+00 0. -1.
          1   -1    0    0  501    0 -0.00000000000E+00 -0.00000000000E+00 -0.15404631103E+04  0.15404631103E+04  0.00000000000E+00 0. -1.
         25    2    1    2    0    0  0.30754908244E+02 -0.27760282943E+02  0.33734932883E+02  0.13593987177E+03  0.12500042140E+03 0.  0.
          2    1    1    2  501    0 -0.59806336430E+02 -0.42443351540E+01 -0.14884377961E+04  0.14896448856E+04  0.00000000000E+00 0. -1.
          1    1    1    2  502    0  0.29051428186E+02  0.32004618097E+02  0.14624751783E+04  0.14631137783E+04  0.00000000000E+00 0. -1.
         22    1    3    3    0    0 -0.29147302339E+02  0.32466387207E+02 -0.22482147830E+01  0.43688511094E+02  0.00000000000E+00 0.  1.
         22    1    3    3    0    0  0.59902210582E+02 -0.60226670151E+02  0.35983147666E+02  0.92251360673E+02  0.00000000000E+00 0.  1.
</event>
<event>
 7    1  0.5970484E-006  0.4379155E+02  0.7818608E-02  0.1518842E+00
          2   -1    0    0  502    0  0.00000000000E+00  0.00000000000E+00  0.33780261222E+03  0.33780261222E+03  0.00000000000E+00 0. -1.
          1   -1    0    0  501    0 -0.00000000000E+00 -0.00000000000E+00 -0.79076156030E+02  0.79076156030E+02  0.00000000000E+00 0. -1.
         25    2    1    2    0    0  0.24236464270E+02 -0.51738731591E+02  0.64738904776E+02  0.15192288358E+03  0.12500053686E+03 0.  0.
          2    1    1    2  501    0 -0.38074849296E+02  0.20673101003E+02 -0.20400004590E+02  0.47887696137E+02  0.00000000000E+00 0. -1.
          1    1    1    2  502    0  0.13838385026E+02  0.31065630588E+02  0.21438755601E+03  0.21706818854E+03  0.00000000000E+00 0. -1.
         22    1    3    3    0    0  0.71795143558E+02 -0.22222357855E+02  0.14150939489E+02  0.76476302968E+02  0.00000000000E+00 0. -1.
         22    1    3    3    0    0 -0.47558679288E+02 -0.29516373735E+02  0.50587965286E+02  0.75446580611E+02  0.00000000000E+00 0. -1.
</event>
<event>
 7    1  0.5970484E-006  0.1149604E+03  0.7818608E-02  0.1388957E+00
          2   -1    0    0  502    0  0.00000000000E+00  0.00000000000E+00  0.22586670088E+04  0.22586670088E+04  0.00000000000E+00 0. -1.
          1   -1    0    0  501    0 -0.00000000000E+00 -0.00000000000E+00 -0.27485085914E+03  0.27485085914E+03  0.00000000000E+00 0. -1.
         25    2    1    2    0    0 -0.93348455040E+01 -0.81719166404E+02  0.45822015685E+03  0.48203299356E+03  0.12499973296E+03 0.  0.
          2    1    1    2  501    0  0.14502315727E+02  0.11493756353E+03 -0.25001734313E+03  0.27555332068E+03  0.00000000000E+00 0. -1.
          1    1    1    2  502    0 -0.51674702228E+01 -0.33218397129E+02  0.17756133360E+04  0.17759315537E+04  0.00000000000E+00 0. -1.
         22    1    3    3    0    0  0.14027004394E+02 -0.95246902877E+02  0.19539932276E+03  0.21782934765E+03  0.00000000000E+00 0.  1.
         22    1    3    3    0    0 -0.23361849898E+02  0.13527736473E+02  0.26282083408E+03  0.26420364591E+03  0.00000000000E+00 0.  1.
</event>
<event>
 7    1  0.5970484E-006  0.3230402E+03  0.7818608E-02  0.1203247E+00
          2   -1    0    0  502    0  0.00000000000E+00  0.00000000000E+00  0.14264446687E+04  0.14264446687E+04  0.00000000000E+00 0. -1.
          1   -1    0    0  501    0 -0.00000000000E+00 -0.00000000000E+00 -0.65066505746E+03  0.65066505746E+03  0.00000000000E+00 0. -1.
         25    2    1    2    0    0  0.26287586677E+03 -0.89397954843E+02 -0.33208523965E+02  0.30632359955E+03  0.12504249647E+03 0.  0.
          2    1    1    2  501    0  0.29924669291E+02 -0.60605073383E+02 -0.45739779392E+03  0.46236479390E+03  0.00000000000E+00 0. -1.
          1    1    1    2  502    0 -0.29280053606E+03  0.15000302823E+03  0.12663859292E+04  0.13084213328E+04  0.00000000000E+00 0. -1.
         22    1    3    3    0    0  0.21953991529E+03 -0.11743387973E+03 -0.45903604543E+02  0.25317115045E+03  0.00000000000E+00 0. -1.
         22    1    3    3    0    0  0.43335951477E+02  0.28035924883E+02  0.12695080578E+02  0.53152449101E+02  0.00000000000E+00 0. -1.
</event>
<event>
 7    1  0.5970484E-006  0.1169359E+03  0.7818608E-02  0.1275968E+00
          2   -1    0    0  502    0  0.00000000000E+00  0.00000000000E+00  0.24773192659E+04  0.24773192659E+04  0.00000000000E+00 0. -1.
          1   -1    0    0  501    0 -0.00000000000E+00 -0.00000000000E+00 -0.18866731777E+04  0.18866731777E+04  0.00000000000E+00 0. -1.
         25    2    1    2    0    0  0.90410113175E+02 -0.14289565849E+03  0.37942690877E+03  0.43380052516E+03  0.12499983502E+03 0.  0.
          2    1    1    2  501    0 -0.10320252032E+03  0.54695419770E+02 -0.18566914521E+04  0.18603616577E+04  0.00000000000E+00 0. -1.
          1    1    1    2  502    0  0.12792407143E+02  0.88200238718E+02  0.20679106316E+04  0.20698302607E+04  0.00000000000E+00 0. -1.
         22    1    3    3    0    0  0.24803602340E+01 -0.74854457083E+02  0.61230570819E+02  0.96739468341E+02  0.00000000000E+00 0. -1.
         22    1    3    3    0    0  0.87929752941E+02 -0.68041201405E+02  0.31819633795E+03  0.33706105682E+03  0.00000000000E+00 0. -1.
</event>
<event>
 7    1  0.5970484E-006  0.1279696E+03  0.7818608E-02  0.1300035E+00
          2   -1    0    0  502    0  0.00000000000E+00  0.00000000000E+00  0.12660111171E+04  0.12660111171E+04  0.00000000000E+00 0. -1.
          1   -1    0    0  501    0 -0.00000000000E+00 -0.00000000000E+00 -0.85919700693E+03  0.85919700693E+03  0.00000000000E+00 0. -1.
         25    2    1    2    0    0  0.10441920046E+03  0.15621347353E+03  0.21686366564E+03  0.31298852197E+03  0.12500378666E+03 0.  0.
          2    1    1    2  501    0 -0.31765578157E+02 -0.56660641069E+02 -0.80602980301E+03  0.80864301366E+03  0.00000000000E+00 0. -1.
          1    1    1    2  502    0 -0.72653622299E+02 -0.99552832458E+02  0.99598024759E+03  0.10035765884E+04  0.00000000000E+00 0. -1.
         22    1    3    3    0    0 -0.95720757069E+01  0.95286698597E+02  0.80537804715E+02  0.12513000260E+03  0.00000000000E+00 0.  1.
         22    1    3    3    0    0  0.11399127616E+03  0.60926774930E+02  0.13632586092E+03  0.18785851937E+03  0.00000000000E+00 0.  1.
</event>
<event>
 7    1  0.5970484E-006  0.1261244E+03  0.7818608E-02  0.1396288E+00
          2   -1    0    0  502    0  0.00000000000E+00  0.00000000000E+00  0.12007958715E+04  0.12007958715E+04  0.00000000000E+00 0. -1.
          1   -1    0    0  501    0 -0.00000000000E+00 -0.00000000000E+00 -0.63160356208E+02  0.63160356208E+02  0.00000000000E+00 0. -1.
         25    2    1    2    0    0  0.48041239601E+02  0.10219186581E+03  0.10166856751E+04  0.10305457711E+04  0.12499474491E+03 0.  0.
          2    1    1    2  501    0 -0.28984343910E+02 -0.12391289678E+03  0.20513892780E+02  0.12890041884E+03  0.00000000000E+00 0. -1.
          1    1    1    2  502    0 -0.19056895691E+02  0.21721030969E+02  0.10043594748E+03  0.10451003782E+03  0.00000000000E+00 0. -1.
         22    1    3    3    0    0  0.36855339743E+02  0.12715750581E+03  0.93673251652E+03  0.94604183568E+03  0.00000000000E+00 0. -1.
         22    1    3    3    0    0  0.11185899858E+02 -0.24965639991E+02  0.79953158549E+02  0.84503935398E+02  0.00000000000E+00 0. -1.
</event>
<event>
 7    1  0.5970484E-006  0.7230967E+02  0.7818608E-02  0.1398202E+00
          2   -1    0    0  502    0  0.00000000000E+00  0.00000000000E+00  0.14197752234E+04  0.14197752234E+04  0.00000000000E+00 0. -1.
          1   -1    0    0  501    0 -0.00000000000E+00 -0.00000000000E+00 -0.78534649329E+02  0.78534649329E+02  0.00000000000E+00 0. -1.
         25    2    1    2    0    0  0.64215510944E+02  0.42388424341E+02  0.73214168333E+03  0.74671068566E+03  0.12499997296E+03 0.  0.
          2    1    1    2  501    0 -0.40653566875E+02  0.28484593891E+02 -0.60267738212E+02  0.78078709377E+02  0.00000000000E+00 0. -1.
          1    1    1    2  502    0 -0.23561944069E+02 -0.70873018232E+02  0.66936662890E+03  0.67352047765E+03  0.00000000000E+00 0. -1.
         22    1    3    3    0    0  0.44549985304E+02  0.55793617923E+02  0.17422986929E+03  0.18829146647E+03  0.00000000000E+00 0. -1.
         22    1    3    3    0    0  0.19665525641E+02 -0.13405193583E+02  0.55791181404E+03  0.55841921919E+03  0.00000000000E+00 0. -1.
</event>
<event>
 7    1  0.5970484E-006  0.5171800E+02  0.7818608E-02  0.1573003E+00
          2   -1    0    0  502    0  0.00000000000E+00  0.00000000000E+00  0.13177020770E+04  0.13177020770E+04  0.00000000000E+00 0. -1.
          1   -1    0    0  501    0 -0.00000000000E+00 -0.00000000000E+00 -0.24698128197E+02  0.24698128197E+02  0.00000000000E+00 0. -1.
         25    2    1    2    0    0  0.25166642481E+02 -0.38713178492E+02  0.61651135017E+03  0.63074862059E+03  0.12500202963E+03 0.  0.
          2    1    1    2  501    0 -0.15316044033E+02 -0.13315565900E+02 -0.10342434415E+02  0.22778310949E+02  0.00000000000E+00 0. -1.
          1    1    1    2  502    0 -0.98505984486E+01  0.52028744391E+02  0.68683503308E+03  0.68887327369E+03  0.00000000000E+00 0. -1.
         22    1    3    3    0    0 -0.32560405965E+02 -0.47508531829E+02  0.46191405470E+03  0.46549096077E+03  0.00000000000E+00 0. -1.
         22    1    3    3    0    0  0.57727048446E+02  0.87953533372E+01  0.15459729547E+03  0.16525765982E+03  0.00000000000E+00 0. -1.
</event>
<event>
 7    1  0.5970484E-006  0.7467351E+02  0.7818608E-02  0.1463652E+00
          2   -1    0    0  502    0  0.00000000000E+00  0.00000000000E+00  0.22275932451E+02  0.22275932451E+02  0.00000000000E+00 0. -1.
          1   -1    0    0  501    0 -0.00000000000E+00 -0.00000000000E+00 -0.14268448038E+04  0.14268448038E+04  0.00000000000E+00 0. -1.
         25    2    1    2    0    0  0.54345782568E+01 -0.61903285061E+02 -0.94449422282E+03  0.95475507490E+03  0.12500545900E+03 0.  0.
          2    1    1    2  501    0 -0.27068673517E+02 -0.11160576724E+02 -0.38920200119E+03  0.39030176696E+03  0.00000000000E+00 0. -1.
          1    1    1    2  502    0  0.21634095261E+02  0.73063861785E+02 -0.70872647375E+02  0.10406389442E+03  0.00000000000E+00 0. -1.
         22    1    3    3    0    0  0.59876054290E+02 -0.43541397680E+01 -0.37427458105E+03  0.37905878492E+03  0.00000000000E+00 0.  1.
         22    1    3    3    0    0 -0.54441476033E+02 -0.57549145293E+02 -0.57021964177E+03  0.57569628998E+03  0.00000000000E+00 0.  1.
</event>
<event>
 7    1  0.5970484E-006  0.3509941E+02  0.7818608E-02  0.1600280E+00
          2   -1    0    0  502    0  0.00000000000E+00  0.00000000000E+00  0.54564636865E+03  0.54564636865E+03  0.00000000000E+00 0. -1.
          1   -1    0    0  501    0 -0.00000000000E+00 -0.00000000000E+00 -0.31153285202E+03  0.31153285202E+03  0.00000000000E+00 0. -1.
         25    2    1    2    0    0 -0.54701910160E+02 -0.93730342126E+01 -0.32487918417E+02  0.14056280779E+03  0.12498914091E+03 0.  0.
          2    1    1    2  501    0  0.24131474160E+02 -0.76177801900E+01 -0.22367106446E+03  0.22509798688E+03  0.00000000000E+00 0. -1.
          1    1    1    2  502    0  0.30570436001E+02  0.16990814403E+02  0.49027249950E+03  0.49151842600E+03  0.00000000000E+00 0. -1.
         22    1    3    3    0    0  0.27130032868E+02  0.29088252749E+00  0.27506165045E+02  0.38635636549E+02  0.00000000000E+00 0.  1.
         22    1    3    3    0    0 -0.81831943028E+02 -0.96639167400E+01 -0.59994083462E+02  0.10192717124E+03  0.00000000000E+00 0.  1.
</event>
<event>
 7    1  0.5970484E-006  0.8425661E+02  0.7818608E-02  0.1487726E+00
          2   -1    0    0  502    0  0.00000000000E+00  0.00000000000E+00  0.49037323240E+02  0.49037323240E+02  0.00000000000E+00 0. -1.
          1   -1    0    0  501    0 -0.00000000000E+00 -0.00000000000E+00 -0.29079745496E+04  0.29079745496E+04  0.00000000000E+00 0. -1.
         25    2    1    2    0    0 -0.49763670088E+02 -0.77056604060E+02 -0.15380576793E+04  0.15458519002E+04  0.12499011708E+03 0.  0.
          2    1    1    2  501    0  0.21750307485E+02 -0.22706462532E+01 -0.13266535884E+04  0.13268338160E+04  0.00000000000E+00 0. -1.
          1    1    1    2  502    0  0.28013362603E+02  0.79327250313E+02  0.57740414125E+01  0.84326156564E+02  0.00000000000E+00 0. -1.
         22    1    3    3    0    0 -0.18090230000E+02  0.31387022161E+02 -0.58519937813E+03  0.58631963446E+03  0.00000000000E+00 0.  1.
         22    1    3    3    0    0 -0.31673440087E+02 -0.10844362622E+03 -0.95285830120E+03  0.95953226576E+03  0.00000000000E+00 0.  1.
</event>
<event>
 7    1  0.5970484E-006  0.5831705E+02  0.7818608E-02  0.1439048E+00
          2   -1    0    0  502    0  0.00000000000E+00  0.00000000000E+00  0.17958398681E+03  0.17958398681E+03  0.00000000000E+00 0. -1.
          1   -1    0    0  501    0 -0.00000000000E+00 -0.00000000000E+00 -0.54132392313E+03  0.54132392313E+03  0.00000000000E+00 0. -1.
         25    2    1    2    0    0 -0.11230588789E+02  0.90950521029E+01 -0.35775188820E+03  0.37924752066E+03  0.12503368475E+03 0.  0.
          2    1    1    2  501    0 -0.41401221482E+02  0.17446167378E+02 -0.16457491720E+03  0.17059699079E+03  0.00000000000E+00 0. -1.
          1    1    1    2  502    0  0.52631810271E+02 -0.26541219481E+02  0.16058686908E+03  0.17106339849E+03  0.00000000000E+00 0. -1.
         22    1    3    3    0    0 -0.63083718313E+02  0.11901762473E+02 -0.12216620773E+03  0.13800648455E+03  0.00000000000E+00 0.  1.
         22    1    3    3    0    0  0.51853129524E+02 -0.28067103705E+01 -0.23558568047E+03  0.24124103611E+03  0.00000000000E+00 0.  1.
</event>
<event>
 7    1  0.5970484E-006  0.1014802E+03  0.7818608E-02  0.1434555E+00
          2   -1    0    0  502    0  0.00000000000E+00  0.00000000000E+00  0.12182346069E+04  0.12182346069E+04  0.00000000000E+00 0. -1.
          1   -1    0    0  501    0 -0.00000000000E+00 -0.00000000000E+00 -0.72098734992E+03  0.72098734992E+03  0.00000000000E+00 0. -1.
         25    2    1    2    0    0  0.11359760684E+03 -0.51827224381E+01  0.13663310828E+03  0.21731308870E+03  0.12500038140E+03 0.  0.
          2    1    1    2  501    0 -0.99729381611E+02 -0.17637291251E+02 -0.67670720258E+03  0.68424386123E+03  0.00000000000E+00 0. -1.
          1    1    1    2  502    0 -0.13868225225E+02  0.22820013689E+02  0.10373213512E+04  0.10376650069E+04  0.00000000000E+00 0. -1.
         22    1    3    3    0    0  0.75084666244E+02  0.17292741780E+02  0.37429993537E+01  0.77141143804E+02  0.00000000000E+00 0. -1.
         22    1    3    3    0    0  0.38512940592E+02 -0.22475464218E+02  0.13289010893E+03  0.14017194489E+03  0.00000000000E+00 0. -1.
</event>
<event>
 7    1  0.5970484E-006  0.6930317E+02  0.7818608E-02  0.1371408E+00
          2   -1    0    0  502    0  0.00000000000E+00  0.00000000000E+00  0.73468367092E+03  0.73468367092E+03  0.00000000000E+00 0. -1.
          1   -1    0    0  501    0 -0.00000000000E+00 -0.00000000000E+00 -0.33395644026E+03  0.33395644026E+03  0.00000000000E+00 0. -1.
         25    2    1    2    0    0 -0.19842580863E+01  0.50182302170E+01 -0.73747421477E+02  0.14523456748E+03  0.12500111000E+03 0.  0.
          2    1    1    2  501    0  0.34449819954E+02 -0.66246630556E+02 -0.21647401567E+03  0.22898996837E+03  0.00000000000E+00 0. -1.
          1    1    1    2  502    0 -0.32465561867E+02  0.61228400339E+02  0.69094866781E+03  0.69441557533E+03  0.00000000000E+00 0. -1.
         22    1    3    3    0    0 -0.48284650926E+02  0.24056754244E+02  0.25200931891E+01  0.54004498049E+02  0.00000000000E+00 0. -1.
         22    1    3    3    0    0  0.46300392840E+02 -0.19038524027E+02 -0.76267514666E+02  0.91230069427E+02  0.00000000000E+00 0. -1.
</event>
<event>
 7    1  0.5970484E-006  0.1227729E+03  0.7818608E-02  0.1335881E+00
          2   -1    0    0  502    0  0.00000000000E+00  0.00000000000E+00  0.26050793291E+04  0.26050793291E+04  0.00000000000E+00 0. -1.
          1   -1    0    0  501    0 -0.00000000000E+00 -0.00000000000E+00 -0.24699242682E+03  0.24699242682E+03  0.00000000000E+00 0. -1.
         25    2    1    2    0    0  0.46143330599E+02  0.73805522446E+02  0.84539823044E+03  0.85901088934E+03  0.12500031155E+03 0.  0.
          2    1    1    2  501    0 -0.94970482763E+02 -0.78980076374E+02 -0.22393547907E+03  0.25574272980E+03  0.00000000000E+00 0. -1.
          1    1    1    2  502    0  0.48827152164E+02  0.51745539276E+01  0.17366241509E+04  0.17373181367E+04  0.00000000000E+00 0. -1.
         22    1    3    3    0    0 -0.15221654213E+02  0.70446288566E+02  0.24236298434E+03  0.25285211984E+03  0.00000000000E+00 0. -1.
         22    1    3    3    0    0  0.61364984812E+02  0.33592338801E+01  0.60303524609E+03  0.60615876950E+03  0.00000000000E+00 0. -1.
</event>
<event>
 7    1  0.5970484E-006  0.2304411E+03  0.7818608E-02  0.1262671E+00
          2   -1    0    0  502    0  0.00000000000E+00  0.00000000000E+00  0.32133750119E+03  0.32133750119E+03  0.00000000000E+00 0. -1.
          1   -1    0    0  501    0 -0.00000000000E+00 -0.00000000000E+00 -0.88605601034E+03  0.88605601034E+03  0.00000000000E+00 0. -1.
         25    2    1    2    0    0  0.19082415907E+03 -0.98441873287E+01 -0.18524992640E+03  0.29403374112E+03  0.12501015150E+03 0.  0.
          2    1    1    2  501    0  0.46456760456E+02 -0.22081410474E+02 -0.59138962884E+03  0.59362236513E+03  0.00000000000E+00 0. -1.
          1    1    1    2  502    0 -0.23728091953E+03  0.31925597803E+02  0.21192104608E+03  0.31973740529E+03  0.00000000000E+00 0. -1.
         22    1    3    3    0    0  0.11642685102E+03  0.25087885885E+02 -0.17431869976E+03  0.21111992503E+03  0.00000000000E+00 0. -1.
         22    1    3    3    0    0  0.74397308047E+02 -0.34932073213E+02 -0.10931226638E+02  0.82913816095E+02  0.00000000000E+00 0. -1.
</event>
<event>
 7    1  0.5970484E-006  0.4729500E+02  0.7818608E-02  0.1490407E+00
          2   -1    0    0  502    0  0.00000000000E+00  0.00000000000E+00  0.30471034496E+03  0.30471034496E+03  0.00000000000E+00 0. -1.
          1   -1    0    0  501    0 -0.00000000000E+00 -0.00000000000E+00 -0.25490363341E+03  0.25490363341E+03  0.00000000000E+00 0. -1.
         25    2    1    2    0    0 -0.46608712544E+00  0.61605476560E+02  0.25553246199E+02  0.14168003935E+03  0.12499925271E+03 0.  0.
          2    1    1    2  501    0 -0.29029089035E+02 -0.37271647542E+02 -0.19230637965E+03  0.19802425956E+03  0.00000000000E+00 0. -1.
          1    1    1    2  502    0  0.29495176160E+02 -0.24333829019E+02  0.21655984501E+03  0.21990967946E+03  0.00000000000E+00 0. -1.
         22    1    3    3    0    0 -0.25984064367E+02  0.35916765399E+01  0.62876496978E+02  0.68128742933E+02  0.00000000000E+00 0. -1.
         22    1    3    3    0    0  0.25517977242E+02  0.58013800020E+02 -0.37323250779E+02  0.73551296413E+02  0.00000000000E+00 0. -1.
</event>
<event>
 7    1  0.5970484E-006  0.1216169E+03  0.7818608E-02  0.1285803E+00
          2   -1    0    0  502    0  0.00000000000E+00  0.00000000000E+00  0.20102673129E+04  0.20102673129E+04  0.00000000000E+00 0. -1.
          1   -1    0    0  501    0 -0.00000000000E+00 -0.00000000000E+00 -0.30271505160E+03  0.30271505160E+03  0.00000000000E+00 0. -1.
         25    2    1    2    0    0 -0.11963471074E+03  0.10312876371E+03  0.14946691443E+04  0.15081809657E+04  0.12500387364E+03 0.  0.
          2    1    1    2  501    0  0.76954893438E+02 -0.13015611282E+02 -0.28579100868E+03  0.29625658204E+03  0.00000000000E+00 0. -1.
          1    1    1    2  502    0  0.42679817301E+02 -0.90113152431E+02  0.49867412569E+03  0.50854481679E+03  0.00000000000E+00 0. -1.
         22    1    3    3    0    0 -0.13239948039E+03  0.85273721296E+02  0.14487662146E+04  0.14573005093E+04  0.00000000000E+00 0. -1.
         22    1    3    3    0    0  0.12764769651E+02  0.17855042418E+02  0.45902929761E+02  0.50880456412E+02  0.00000000000E+00 0. -1.
</event>
<event>
 7    1  0.5970484E-006  0.5619007E+02  0.7818608E-02  0.1531322E+00
          2   -1    0    0  502    0  0.00000000000E+00  0.00000000000E+00  0.67612167981E+02  0.67612167981E+02  0.00000000000E+00 0. -1.
          1   -1    0    0  501    0 -0.00000000000E+00 -0.00000000000E+00 -0.55650437560E+03  0.55650437560E+03  0.00000000000E+00 0. -1.
         25    2    1    2    0    0 -0.48523177658E+02  0.32673035631E+02 -0.12400747522E+03  0.18553933455E+03  0.12499985891E+03 0.  0.
          2    1    1    2  501    0  0.55583732253E+02 -0.93207789293E+01 -0.39546323337E+03  0.39945913077E+03  0.00000000000E+00 0. -1.
          1    1    1    2  502    0 -0.70605545951E+01 -0.23352256701E+02  0.30578500975E+02  0.39118078252E+02  0.00000000000E+00 0. -1.
         22    1    3    3    0    0  0.36086926802E+02  0.28252637779E+01 -0.50611872793E+01  0.36549473568E+02  0.00000000000E+00 0. -1.
         22    1    3    3    0    0 -0.84610104460E+02  0.29847771853E+02 -0.11894628794E+03  0.14898986099E+03  0.00000000000E+00 0. -1.
</event>
<event>
 7    1  0.5970484E-006  0.1926264E+03  0.7818608E-02  0.1160841E+00
          2   -1    0    0  502    0  0.00000000000E+00  0.00000000000E+00  0.22317418082E+04  0.22317418082E+04  0.00000000000E+00 0. -1.
          1   -1    0    0  501    0 -0.00000000000E+00 -0.00000000000E+00 -0.69095038706E+03  0.69095038706E+03  0.00000000000E+00 0. -1.
         25    2    1    2    0    0  0.11579349362E+03 -0.26065488199E+03  0.42111341494E+03  0.52374689215E+03  0.12500079247E+03 0.  0.
          2    1    1    2  501    0 -0.16469526930E+03  0.78127407370E+02 -0.62142958918E+03  0.64761343240E+03  0.00000000000E+00 0. -1.
          1    1    1    2  502    0  0.48901775682E+02  0.18252747462E+03  0.17411075954E+04  0.17513318707E+04  0.00000000000E+00 0. -1.
         22    1    3    3    0    0  0.96855420005E+02 -0.27197119603E+03  0.39915960271E+03  0.49262327624E+03  0.00000000000E+00 0. -1.
         22    1    3    3    0    0  0.18938073616E+02  0.11316314041E+02  0.21953812228E+02  0.31123615906E+02  0.00000000000E+00 0. -1.
</event>
<event>
 7    1  0.5970484E-006  0.4492660E+02  0.7818608E-02  0.1538671E+00
          2   -1    0    0  502    0  0.00000000000E+00  0.00000000000E+00  0.66831627631E+03  0.66831627631E+03  0.00000000000E+00 0. -1.
          1   -1    0    0  501    0 -0.00000000000E+00 -0.00000000000E+00 -0.82136970259E+03  0.82136970259E+03  0.00000000000E+00 0. -1.
         25    2    1    2    0    0  0.47182872122E+02 -0.20573142949E+02  0.28187205240E+03  0.31261104271E+03  0.12499732984E+03 0.  0.
          2    1    1    2  501    0 -0.23928111402E+02  0.38030165220E+02 -0.80480295638E+03  0.80605623041E+03  0.00000000000E+00 0. -1.
          1    1    1    2  502    0 -0.23254760720E+02 -0.17457022271E+02  0.36987747770E+03  0.37101870577E+03  0.00000000000E+00 0. -1.
         22    1    3    3    0    0 -0.44567065477E+01  0.24696157200E+02  0.28430287670E+01  0.25255597919E+02  0.00000000000E+00 0.  1.
         22    1    3    3    0    0  0.51639578670E+02 -0.45269300149E+02  0.27902902364E+03  0.28735544479E+03  0.00000000000E+00 0.  1.
</event>
<event>
 7    1  0.5970484E-006  0.4201718E+02  0.7818608E-02  0.1562323E+00
          2   -1    0    0  502    0  0.00000000000E+00  0.00000000000E+00  0.33277323361E+03  0.33277323361E+03  0.00000000000E+00 0. -1.
          1   -1    0    0  501    0 -0.00000000000E+00 -0.00000000000E+00 -0.13932834797E+04  0.13932834797E+04  0.00000000000E+00 0. -1.
         25    2    1    2    0    0 -0.57796342585E+00 -0.40843587844E+02 -0.11242315543E+03  0.17300896344E+03  0.12499841137E+03 0.  0.
          2    1    1    2  501    0 -0.25545155983E+02  0.78090512895E+01 -0.12489579564E+04  0.12492435764E+04  0.00000000000E+00 0. -1.
          1    1    1    2  502    0  0.26123119409E+02  0.33034536554E+02  0.30087086574E+03  0.30380417348E+03  0.00000000000E+00 0. -1.
         22    1    3    3    0    0 -0.13788044166E+02 -0.73277512987E+02 -0.11590269669E+03  0.13781559843E+03  0.00000000000E+00 0.  1.
         22    1    3    3    0    0  0.13210080740E+02  0.32433925143E+02  0.34795412566E+01  0.35193365010E+02  0.00000000000E+00 0.  1.
</event>
<event>
 7    1  0.5970484E-006  0.3985969E+02  0.7818608E-02  0.1579119E+00
          2   -1    0    0  502    0  0.00000000000E+00  0.00000000000E+00  0.20511233465E+03  0.20511233465E+03  0.00000000000E+00 0. -1.
          1   -1    0    0  501    0 -0.00000000000E+00 -0.00000000000E+00 -0.79438917607E+02  0.79438917607E+02  0.00000000000E+00 0. -1.
         25    2    1    2    0    0 -0.11976885273E+02 -0.16707825590E+02  0.83297411883E+02  0.15161313947E+03  0.12500195205E+03 0.  0.
          2    1    1    2  501    0  0.37244964829E+02  0.18768423248E+02 -0.33146425962E+02  0.53274071277E+02  0.00000000000E+00 0. -1.
          1    1    1    2  502    0 -0.25268079557E+02 -0.20605976576E+01  0.75522431125E+02  0.79664041513E+02  0.00000000000E+00 0. -1.
         22    1    3    3    0    0 -0.38343733494E+02 -0.49707136876E+02  0.89081464134E+02  0.10897957885E+03  0.00000000000E+00 0.  1.
         22    1    3    3    0    0  0.26366848221E+02  0.32999311285E+02 -0.57840522512E+01  0.42633560617E+02  0.00000000000E+00 0.  1.
</event>
<event>
 7    1  0.5970484E-006  0.7925192E+02  0.7818608E-02  0.1340498E+00
          2   -1    0    0  502    0  0.00000000000E+00  0.00000000000E+00  0.26348389137E+03  0.26348389137E+03  0.00000000000E+00 0. -1.
          1   -1    0    0  501    0 -0.00000000000E+00 -0.00000000000E+00 -0.87153843654E+03  0.87153843654E+03  0.00000000000E+00 0. -1.
         25    2    1    2    0    0  0.26777266149E+01 -0.65485291196E+02  0.30697366487E+02  0.14443905588E+03  0.12499927588E+03 0.  0.
          2    1    1    2  501    0  0.70524427200E+02  0.19132990335E+02 -0.80223674405E+03  0.80555791825E+03  0.00000000000E+00 0. -1.
          1    1    1    2  502    0 -0.73202153815E+02  0.46352300861E+02  0.16348483240E+03  0.18502535378E+03  0.00000000000E+00 0. -1.
         22    1    3    3    0    0 -0.45678053746E+02 -0.58048321319E+02 -0.17340589516E+02  0.75873501611E+02  0.00000000000E+00 0. -1.
         22    1    3    3    0    0  0.48355780361E+02 -0.74369698770E+01  0.48037956004E+02  0.68565554269E+02  0.00000000000E+00 0. -1.
</event>
<event>
 7    1  0.5970484E-006  0.1147556E+03  0.7818608E-02  0.1314688E+00
          2   -1    0    0  502    0  0.00000000000E+00  0.00000000000E+00  0.70908916078E+03  0.70908916078E+03  0.00000000000E+00 0. -1.
          1   -1    0    0  501    0 -0.00000000000E+00 -0.00000000000E+00 -0.15371843149E+04  0.15371843149E+04  0.00000000000E+00 0. -1.
         25    2    1    2    0    0  0.15007728910E+03 -0.29335600232E+02 -0.31027336042E+03  0.36780229552E+03  0.12500080102E+03 0.  0.
          2    1    1    2  501    0 -0.94659750098E+02  0.60098231039E+02 -0.11940379464E+04  0.11992909919E+04  0.00000000000E+00 0. -1.
          1    1    1    2  502    0 -0.55417539005E+02 -0.30762630807E+02  0.67621615268E+03  0.67918018834E+03  0.00000000000E+00 0. -1.
         22    1    3    3    0    0  0.13757755448E+03 -0.17523124634E+01 -0.14543351429E+03  0.20020379910E+03  0.00000000000E+00 0.  1.
         22    1    3    3    0    0  0.12499734627E+02 -0.27583287769E+02 -0.16483984613E+03  0.16759849642E+03  0.00000000000E+00 0.  1.
</event>
<event>
 7    1  0.5970484E-006  0.7901794E+02  0.7818608E-02  0.1429104E+00
          2   -1    0    0  502    0  0.00000000000E+00  0.00000000000E+00  0.62587000784E+03  0.62587000784E+03  0.00000000000E+00 0. -1.
          1   -1    0    0  501    0 -0.00000000000E+00 -0.00000000000E+00 -0.16026849991E+03  0.16026849991E+03  0.00000000000E+00 0. -1.
         25    2    1    2    0    0  0.27862942547E+02 -0.73776847213E+02  0.26551063829E+03  0.30387653443E+03  0.12500272948E+03 0.  0.
          2    1    1    2  501    0 -0.57829597930E+02  0.54304674331E+02 -0.12888933668E+03  0.15134636157E+03  0.00000000000E+00 0. -1.
          1    1    1    2  502    0  0.29966655384E+02  0.19472172882E+02  0.32898020632E+03  0.33091561175E+03  0.00000000000E+00 0. -1.
         22    1    3    3    0    0  0.51753357016E+02 -0.40579450139E+02  0.45197798633E+02  0.79799390582E+02  0.00000000000E+00 0.  1.
         22    1    3    3    0    0 -0.23890414469E+02 -0.33197397074E+02  0.22031283966E+03  0.22407714385E+03  0.00000000000E+00 0.  1.
</event>
<event>
 7    1  0.5970484E-006  0.2576685E+03  0.7818608E-02  0.1331549E+00
          2   -1    0    0  502    0  0.00000000000E+00  0.00000000000E+00  0.15447563867E+04  0.15447563867E+04  0.00000000000E+00 0. -1.
          1   -1    0    0  501    0 -0.00000000000E+00 -0.00000000000E+00 -0.17842528816E+03  0.17842528816E+03  0.00000000000E+00 0. -1.
         25    2    1    2    0    0 -0.17582064994E+03 -0.18528374885E+03  0.50331632104E+03  0.57809690978E+03  0.12500299813E+03 0.  0.
          2    1    1    2  501    0  0.19463491405E+03  0.16990700406E+03 -0.22404599366E+02  0.25933203788E+03  0.00000000000E+00 0. -1.
          1    1    1    2  502    0 -0.18814264115E+02  0.15376744783E+02  0.88541937688E+03  0.88575272722E+03  0.00000000000E+00 0. -1.
         22    1    3    3    0    0 -0.56170792291E+02 -0.60136782313E+02  0.29983336670E+03  0.31092063019E+03  0.00000000000E+00 0.  1.
         22    1    3    3    0    0 -0.11964985765E+03 -0.12514696653E+03  0.20348295435E+03  0.26717627959E+03  0.00000000000E+00 0.  1.
</event>
<event>
 7    1  0.5970484E-006  0.1896728E+03  0.7818608E-02  0.1299626E+00
          2   -1    0    0  502    0  0.00000000000E+00  0.00000000000E+00  0.13345352573E+04  0.13345352573E+04  0.00000000000E+00 0. -1.
          1   -1    0    0  501    0 -0.00000000000E+00 -0.00000000000E+00 -0.43514480537E+03  0.43514480537E+03  0.00000000000E+00 0. -1.
         25    2    1    2    0    0 -0.20200107867E+03 -0.85669772613E+02  0.69114530507E+03  0.73583563628E+03  0.12501401993E+03 0.  0.
          2    1    1    2  501    0  0.16033482034E+03  0.99781856593E+02 -0.39035151983E+03  0.43363346567E+03  0.00000000000E+00 0. -1.
          1    1    1    2  502    0  0.41666258331E+02 -0.14112083980E+02  0.59859666667E+03  0.60021096070E+03  0.00000000000E+00 0. -1.
         22    1    3    3    0    0  0.96040501291E+01 -0.27257066922E+02  0.45595063533E+02  0.53982360958E+02  0.00000000000E+00 0. -1.
         22    1    3    3    0    0 -0.21160512880E+03 -0.58412705691E+02  0.64555024154E+03  0.68185327532E+03  0.00000000000E+00 0. -1.
</event>
<event>
 7    1  0.5970484E-006  0.5527892E+02  0.7818608E-02  0.1458758E+00
          2   -1    0    0  502    0  0.00000000000E+00  0.00000000000E+00  0.14685314695E+03  0.14685314695E+03  0.00000000000E+00 0. -1.
          1   -1    0    0  501    0 -0.00000000000E+00 -0.00000000000E+00 -0.11773982822E+04  0.11773982822E+04  0.00000000000E+00 0. -1.
         25    2    1    2    0    0 -0.32973045506E+02  0.10432084255E+02 -0.11449662341E+03  0.17300460401E+03  0.12500026450E+03 0.  0.
          2    1    1    2  501    0  0.75022592504E+01  0.40287934186E+02 -0.10263668617E+04  0.10271846651E+04  0.00000000000E+00 0. -1.
          1    1    1    2  502    0  0.25470786256E+02 -0.50720018442E+02  0.11031834986E+03  0.12406215998E+03  0.00000000000E+00 0. -1.
         22    1    3    3    0    0  0.16834774358E+02 -0.75886069579E+01 -0.11845840039E+03  0.11988907042E+03  0.00000000000E+00 0.  1.
         22    1    3    3    0    0 -0.49807819864E+02  0.18020691213E+02  0.39617769836E+01  0.53115533587E+02  0.00000000000E+00 0.  1.
</event>
<event>
 7    1  0.5970484E-006  0.1443489E+03  0.7818608E-02  0.1357722E+00
          2   -1    0    0  502    0  0.00000000000E+00  0.00000000000E+00  0.24268089955E+03  0.24268089955E+03  0.00000000000E+00 0. -1.
          1   -1    0    0  501    0 -0.00000000000E+00 -0.00000000000E+00 -0.15716472084E+04  0.15716472084E+04  0.00000000000E+00 0. -1.
         25    2    1    2    0    0  0.86500278590E+02  0.14926015491E+03 -0.10349613397E+03  0.23685002590E+03  0.12500237191E+03 0.  0.
          2    1    1    2  501    0 -0.77187483198E+01 -0.33758705354E+02 -0.13734562400E+04  0.13738927442E+04  0.00000000000E+00 0. -1.
          1    1    1    2  502    0 -0.78781530270E+02 -0.11550144955E+03  0.14798606508E+03  0.20358533793E+03  0.00000000000E+00 0. -1.
         22    1    3    3    0    0  0.71790024447E+02  0.30966957140E+02 -0.86237118379E+02  0.11640275182E+03  0.00000000000E+00 0. -1.
         22    1    3    3    0    0  0.14710254143E+02  0.11829319777E+03 -0.17259015594E+02  0.12044727408E+03  0.00000000000E+00 0. -1.
</event>
<event>
 7    1  0.5970484E-006  0.8668762E+02  0.7818608E-02  0.1317680E+00
          2   -1    0    0  502    0  0.00000000000E+00  0.00000000000E+00  0.15218069954E+03  0.15218069954E+03  0.00000000000E+00 0. -1.
          1   -1    0    0  501    0 -0.00000000000E+00 -0.00000000000E+00 -0.39446863748E+04  0.39446863748E+04  0.00000000000E+00 0. -1.
         25    2    1    2    0    0 -0.15767125550E+02  0.55278850296E+02 -0.14404452310E+04  0.14470007973E+04  0.12499796113E+03 0.  0.
          2    1    1    2  501    0  0.94524074046E+02 -0.19056122034E+02 -0.24873326782E+04  0.24892010342E+04  0.00000000000E+00 0. -1.
          1    1    1    2  502    0 -0.78756948496E+02 -0.36222728263E+02  0.13527223399E+03  0.16066524287E+03  0.00000000000E+00 0. -1.
         22    1    3    3    0    0  0.43859701238E+00 -0.36897221120E+02 -0.22982849424E+03  0.23277184980E+03  0.00000000000E+00 0. -1.
         22    1    3    3    0    0 -0.16205722562E+02  0.92176071417E+02 -0.12106167368E+04  0.12142289475E+04  0.00000000000E+00 0. -1.
</event>
<event>
 7    1  0.5970484E-006  0.7031277E+02  0.7818608E-02  0.1463640E+00
          2   -1    0    0  502    0  0.00000000000E+00  0.00000000000E+00  0.52705372545E+02  0.52705372545E+02  0.00000000000E+00 0. -1.
          1   -1    0    0  501    0 -0.00000000000E+00 -0.00000000000E+00 -0.65164383251E+03  0.65164383251E+03  0.00000000000E+00 0. -1.
         25    2    1    2    0    0  0.93664313109E+02 -0.10592345502E+02 -0.16691830636E+03  0.22884876581E+03  0.12499934113E+03 0.  0.
          2    1    1    2  501    0 -0.30846960698E+02 -0.39409792377E+01 -0.40400564318E+03  0.40520072312E+03  0.00000000000E+00 0. -1.
          1    1    1    2  502    0 -0.62817352412E+02  0.14533324739E+02 -0.28014510432E+02  0.70299716121E+02  0.00000000000E+00 0. -1.
         22    1    3    3    0    0  0.33603560610E+02  0.38621348288E+02 -0.77856906476E+01  0.51782475879E+02  0.00000000000E+00 0. -1.
         22    1    3    3    0    0  0.60060752499E+02 -0.49213693790E+02 -0.15913261571E+03  0.17706628993E+03  0.00000000000E+00 0. -1.
</event>
<event>
 7    1  0.5970484E-006  0.8364228E+02  0.7818608E-02  0.1385254E+00
          2   -1    0    0  502    0  0.00000000000E+00  0.00000000000E+00  0.87109067748E+03  0.87109067748E+03  0.00000000000E+00 0. -1.
          1   -1    0    0  501    0 -0.00000000000E+00 -0.00000000000E+00 -0.11389609762E+04  0.11389609762E+04  0.00000000000E+00 0. -1.
         25    2    1    2    0    0  0.90124341103E+02  0.25168941113E+02 -0.90498692305E+03  0.91835831261E+03  0.12499914796E+03 0.  0.
          2    1    1    2  501    0 -0.55039989413E+02 -0.57347926773E+02 -0.21965776141E+03  0.23359734007E+03  0.00000000000E+00 0. -1.
          1    1    1    2  502    0 -0.35084351690E+02  0.32178985661E+02  0.85677438575E+03  0.85809600099E+03  0.00000000000E+00 0. -1.
         22    1    3    3    0    0  0.10200994562E+03  0.51211855155E+02 -0.83465382380E+03  0.84242251198E+03  0.00000000000E+00 0. -1.
         22    1    3    3    0    0 -0.11885604514E+02 -0.26042914043E+02 -0.70333099248E+02  0.75935800623E+02  0.00000000000E+00 0. -1.
</event>
<event>
 7    1  0.5970484E-006  0.1166157E+03  0.7818608E-02  0.1419706E+00
          2   -1    0    0  502    0  0.00000000000E+00  0.00000000000E+00  0.97636028276E+03  0.97636028276E+03  0.00000000000E+00 0. -1.
          1   -1    0    0  501    0 -0.00000000000E+00 -0.00000000000E+00 -0.18609095007E+03  0.18609095007E+03  0.00000000000E+00 0. -1.
         25    2    1    2    0    0 -0.25377007131E+02  0.11922290174E+03 -0.23609645543E+02  0.17618466631E+03  0.12500211394E+03 0.  0.
          2    1    1    2  501    0  0.47026403816E+02 -0.10479178823E+03 -0.47645070725E+02  0.12434972578E+03  0.00000000000E+00 0. -1.
          1    1    1    2  502    0 -0.21649396684E+02 -0.14431113512E+02  0.86152404896E+03  0.86191684074E+03  0.00000000000E+00 0. -1.
         22    1    3    3    0    0  0.41963537138E+02  0.53593079094E+01 -0.62870420603E+01  0.42769001956E+02  0.00000000000E+00 0.  1.
         22    1    3    3    0    0 -0.67340544270E+02  0.11386359383E+03 -0.17322603482E+02  0.13341566435E+03  0.00000000000E+00 0.  1.
</event>
<event>
 7    1  0.5970484E-006  0.1179552E+03  0.7818608E-02  0.1378395E+00
          2   -1    0    0  502    0  0.00000000000E+00  0.00000000000E+00  0.11409265077E+04  0.11409265077E+04  0.00000000000E+00 0. -1.
          1   -1    0    0  501    0 -0.00000000000E+00 -0.00000000000E+00 -0.82397979369E+02  0.82397979369E+02  0.00000000000E+00 0. -1.
         25    2    1    2    0    0  0.11115422839E+03  0.48695967453E+02  0.33505776206E+03  0.37764415480E+03  0.12499937603E+03 0.  0.
          2    1    1    2  501    0  0.62349400561E+01 -0.35146107020E+02 -0.50997718267E+02  0.62248619138E+02  0.00000000000E+00 0. -1.
          1    1    1    2  502    0 -0.11738916845E+03 -0.13549860433E+02  0.77446848459E+03  0.78343171318E+03  0.00000000000E+00 0. -1.
         22    1    3    3    0    0  0.14903162302E+02 -0.16361569403E+02  0.19238728846E+03  0.19365607133E+03  0.00000000000E+00 0.  1.
         22    1    3    3    0    0  0.96251066091E+02  0.65057536855E+02  0.14267047359E+03  0.18398808347E+03  0.00000000000E+00 0.  1.
</event>
<event>
 7    1  0.5970484E-006  0.5957906E+02  0.7818608E-02  0.1407710E+00
          2   -1    0    0  502    0  0.00000000000E+00  0.00000000000E+00  0.96817889149E+02  0.96817889149E+02  0.00000000000E+00 0. -1.
          1   -1    0    0  501    0 -0.00000000000E+00 -0.00000000000E+00 -0.86602618492E+03  0.86602618492E+03  0.00000000000E+00 0. -1.
         25    2    1    2    0    0  0.31990933053E+02 -0.14356221038E+02 -0.66695663794E+01  0.13000047114E+03  0.12500447393E+03 0.  0.
          2    1    1    2  501    0 -0.45384267601E+02 -0.39910917754E+02 -0.77352185567E+03  0.77587929106E+03  0.00000000000E+00 0. -1.
          1    1    1    2  502    0  0.13393334548E+02  0.54267138792E+02  0.10983126280E+02  0.56964311862E+02  0.00000000000E+00 0. -1.
         22    1    3    3    0    0  0.20944293524E+02  0.36074382396E+02 -0.48199472805E+02  0.63743342202E+02  0.00000000000E+00 0.  1.
         22    1    3    3    0    0  0.11046639529E+02 -0.50430603434E+02  0.41529906426E+02  0.66257128940E+02  0.00000000000E+00 0.  1.
</event>
<event>
 7    1  0.5970484E-006  0.9325922E+02  0.7818608E-02  0.1396077E+00
          2   -1    0    0  502    0  0.00000000000E+00  0.00000000000E+00  0.22353492566E+04  0.22353492566E+04  0.00000000000E+00 0. -1.
          1   -1    0    0  501    0 -0.00000000000E+00 -0.00000000000E+00 -0.33182058520E+03  0.33182058520E+03  0.00000000000E+00 0. -1.
         25    2    1    2    0    0 -0.10666213348E+03 -0.49129906904E+02  0.51408675429E+02  0.17905042701E+03  0.12500258011E+03 0.  0.
          2    1    1    2  501    0  0.14597251185E+02  0.36320925830E+02 -0.26554537330E+03  0.26841504182E+03  0.00000000000E+00 0. -1.
          1    1    1    2  502    0  0.92064882290E+02  0.12808981074E+02  0.21176653692E+04  0.21197043729E+04  0.00000000000E+00 0. -1.
         22    1    3    3    0    0 -0.11957221355E+03 -0.37330423303E+02  0.54659433526E+00  0.12526521274E+03  0.00000000000E+00 0.  1.
         22    1    3    3    0    0  0.12910080079E+02 -0.11799483601E+02  0.50862081093E+02  0.53785214270E+02  0.00000000000E+00 0.  1.
</event>
<event>
 7    1  0.5970484E-006  0.1006250E+03  0.7818608E-02  0.1366098E+00
          2   -1    0    0  502    0  0.00000000000E+00  0.00000000000E+00  0.27035384574E+03  0.27035384574E+03  0.00000000000E+00 0. -1.
          1   -1    0    0  501    0 -0.00000000000E+00 -0.00000000000E+00 -0.12841523769E+04  0.12841523769E+04  0.00000000000E+00 0. -1.
         25    2    1    2    0    0 -0.81795440518E+02 -0.43388847049E+02 -0.74948545350E+03  0.76545821098E+03  0.12499896644E+03 0.  0.
          2    1    1    2  501    0 -0.19056660520E+02  0.42207820320E+02 -0.51591187645E+03  0.51798621668E+03  0.00000000000E+00 0. -1.
          1    1    1    2  502    0  0.10085210104E+03  0.11810267291E+01  0.25159879882E+03  0.27106179494E+03  0.00000000000E+00 0. -1.
         22    1    3    3    0    0 -0.37695934810E+02  0.25368807294E+02 -0.51789409236E+03  0.51988349732E+03  0.00000000000E+00 0.  1.
         22    1    3    3    0    0 -0.44099505709E+02 -0.68757654342E+02 -0.23159136114E+03  0.24557471366E+03  0.00000000000E+00 0.  1.
</event>
<event>
 7    1  0.5970484E-006  0.5367178E+02  0.7818608E-02  0.1542465E+00
          2   -1    0    0  502    0  0.00000000000E+00  0.00000000000E+00  0.86872455020E+03  0.86872455020E+03  0.00000000000E+00 0. -1.
          1   -1    0    0  501    0 -0.00000000000E+00 -0.00000000000E+00 -0.46521987068E+03  0.46521987068E+03  0.00000000000E+00 0. -1.
         25    2    1    2    0    0 -0.32488050243E+02 -0.16655775183E+02 -0.37955546769E+03  0.40126312891E+03  0.12496742502E+03 0.  0.
          2    1    1    2  501    0 -0.31446484960E+01 -0.23537829693E+02 -0.72061936948E+02  0.75873849234E+02  0.00000000000E+00 0. -1.
          1    1    1    2  502    0  0.35632698739E+02  0.40193604876E+02  0.85512208417E+03  0.85680744273E+03  0.00000000000E+00 0. -1.
         22    1    3    3    0    0 -0.33060064098E+02 -0.18501370193E+02 -0.38939604709E+03  0.39123464829E+03  0.00000000000E+00 0.  1.
         22    1    3    3    0    0  0.57201385544E+00  0.18455950100E+01  0.98405793952E+01  0.10028480624E+02  0.00000000000E+00 0.  1.
</event>
<event>
 7    1  0.5970484E-006  0.2596514E+03  0.7818608E-02  0.1235554E+00
          2   -1    0    0  502    0  0.00000000000E+00  0.00000000000E+00  0.20073709585E+04  0.20073709585E+04  0.00000000000E+00 0. -1.
          1   -1    0    0  501    0 -0.00000000000E+00 -0.00000000000E+00 -0.28491302045E+03  0.28491302045E+03  0.00000000000E+00 0. -1.
         25    2    1    2    0    0  0.11432492579E+03  0.24331662468E+03  0.25055922472E+03  0.38816964574E+03  0.12499032075E+03 0.  0.
          2    1    1    2  501    0 -0.55196759101E+02 -0.25277118994E+03 -0.13791305383E+03  0.29318930249E+03  0.00000000000E+00 0. -1.
          1    1    1    2  502    0 -0.59128166684E+02  0.94545652580E+01  0.16098117672E+04  0.16109250307E+04  0.00000000000E+00 0. -1.
         22    1    3    3    0    0  0.25170640439E+02  0.11604204737E+03  0.37616546003E+02  0.12455650296E+03  0.00000000000E+00 0. -1.
         22    1    3    3    0    0  0.89154285347E+02  0.12727457731E+03  0.21294267872E+03  0.26361314278E+03  0.00000000000E+00 0. -1.
</event>
<event>
 7    1  0.5970484E-006  0.4743219E+02  0.7818608E-02  0.1473347E+00
          2   -1    0    0  502    0  0.00000000000E+00  0.00000000000E+00  0.11019301101E+03  0.11019301101E+03  0.00000000000E+00 0. -1.
          1   -1    0    0  501    0 -0.00000000000E+00 -0.00000000000E+00 -0.12203277981E+04  0.12203277981E+04  0.00000000000E+00 0. -1.
         25    2    1    2    0    0  0.42753533071E+02 -0.59244426251E+02 -0.39098883343E+03  0.41694142413E+03  0.12502046495E+03 0.  0.
          2    1    1    2  501    0  0.15946001767E+01  0.42966430894E+02 -0.81001959473E+03  0.81115991073E+03  0.00000000000E+00 0. -1.
          1    1    1    2  502    0 -0.44348133247E+02  0.16277995356E+02  0.90873641092E+02  0.10241947423E+03  0.00000000000E+00 0. -1.
         22    1    3    3    0    0  0.65250556964E+02  0.36958223789E+01 -0.27873920828E+03  0.28629851645E+03  0.00000000000E+00 0. -1.
         22    1    3    3    0    0 -0.22497023893E+02 -0.62940248629E+02 -0.11224962515E+03  0.13064290769E+03  0.00000000000E+00 0. -1.
</event>
<event>
 7    1  0.5970484E-006  0.6594040E+02  0.7818608E-02  0.1490560E+00
          2   -1    0    0  502    0  0.00000000000E+00  0.00000000000E+00  0.43163470562E+03  0.43163470562E+03  0.00000000000E+00 0. -1.
          1   -1    0    0  501    0 -0.00000000000E+00 -0.00000000000E+00 -0.98466014789E+03  0.98466014789E+03  0.00000000000E+00 0. -1.
         25    2    1    2    0    0 -0.83521360709E+02 -0.16830279299E+02  0.15978297132E+03  0.22003537566E+03  0.12500357043E+03 0.  0.
          2    1    1    2  501    0  0.25700600350E+02 -0.94879747330E+01 -0.95015905379E+03  0.95055392800E+03  0.00000000000E+00 0. -1.
          1    1    1    2  502    0  0.57820760359E+02  0.26318254032E+02  0.23735064021E+03  0.24570554986E+03  0.00000000000E+00 0. -1.
         22    1    3    3    0    0 -0.33112595564E+02  0.48085373032E+02  0.28065786023E+02  0.64779128040E+02  0.00000000000E+00 0. -1.
         22    1    3    3    0    0 -0.50408765146E+02 -0.64915652331E+02  0.13171718530E+03  0.15525624762E+03  0.00000000000E+00 0. -1.
</event>
<event>
 7    1  0.5970484E-006  0.1752534E+03  0.7818608E-02  0.1305206E+00
          2   -1    0    0  502    0  0.00000000000E+00  0.00000000000E+00  0.21308398220E+04  0.21308398220E+04  0.00000000000E+00 0. -1.
          1   -1    0    0  501    0 -0.00000000000E+00 -0.00000000000E+00 -0.27144320905E+03  0.27144320905E+03  0.00000000000E+00 0. -1.
         25    2    1    2    0    0  0.16234938082E+03 -0.26993150170E+02  0.17733975184E+04  0.17853990901E+04  0.12500080468E+03 0.  0.
          2    1    1    2  501    0 -0.15999545853E+03  0.72164527954E+02 -0.23466655131E+03  0.29304377856E+03  0.00000000000E+00 0. -1.
          1    1    1    2  502    0 -0.23539222905E+01 -0.45171377784E+02  0.32066564582E+03  0.32384016231E+03  0.00000000000E+00 0. -1.
         22    1    3    3    0    0  0.76149592584E+02 -0.33122945799E+02  0.36389332867E+03  0.37324823461E+03  0.00000000000E+00 0. -1.
         22    1    3    3    0    0  0.86199788239E+02  0.61297956289E+01  0.14095041897E+04  0.14121508555E+04  0.00000000000E+00 0. -1.
</event>
<event>
 7    1  0.5970484E-006  0.1895582E+03  0.7818608E-02  0.1252728E+00
          2   -1    0    0  502    0  0.00000000000E+00  0.00000000000E+00  0.20944559170E+04  0.20944559170E+04  0.00000000000E+00 0. -1.
          1   -1    0    0  501    0 -0.00000000000E+00 -0.00000000000E+00 -0.47282057433E+03  0.47282057433E+03  0.00000000000E+00 0. -1.
         25    2    1    2    0    0  0.10038594575E+03 -0.11789676695E+03 -0.40086163636E+02  0.20298672542E+03  0.12497889590E+03 0.  0.
          2    1    1    2  501    0  0.65237759288E+02  0.22398277436E+02 -0.34330670308E+03  0.35016730351E+03  0.00000000000E+00 0. -1.
          1    1    1    2  502    0 -0.16562370504E+03  0.95498489514E+02  0.20050282093E+04  0.20141224624E+04  0.00000000000E+00 0. -1.
         22    1    3    3    0    0 -0.25135967388E+01 -0.12736018627E+02 -0.53682939566E+02  0.55230266516E+02  0.00000000000E+00 0.  1.
         22    1    3    3    0    0  0.10289954249E+03 -0.10516074832E+03  0.13596775930E+02  0.14775645890E+03  0.00000000000E+00 0.  1.
</event>
<event>
 7    1  0.5970484E-006  0.1321191E+03  0.7818608E-02  0.1349299E+00
          2   -1    0    0  502    0  0.00000000000E+00  0.00000000000E+00  0.13736876863E+04  0.13736876863E+04  0.00000000000E+00 0. -1.
          1   -1    0    0  501    0 -0.00000000000E+00 -0.00000000000E+00 -0.17884475525E+03  0.17884475525E+03  0.00000000000E+00 0. -1.
         25    2    1    2    0    0 -0.80612210176E+02  0.69422195071E+02  0.70975067533E+03  0.72848390677E+03  0.12500004677E+03 0.  0.
          2    1    1    2  501    0  0.75472539505E+02 -0.10973482191E+03 -0.14255378045E+03  0.19508822537E+03  0.00000000000E+00 0. -1.
          1    1    1    2  502    0  0.51396706708E+01  0.40312626837E+02  0.62764603621E+03  0.62896030946E+03  0.00000000000E+00 0. -1.
         22    1    3    3    0    0  0.21875486851E+02  0.46105684387E+02  0.34974899943E+03  0.35345244894E+03  0.00000000000E+00 0. -1.
         22    1    3    3    0    0 -0.10248769703E+03  0.23316510684E+02  0.36000167590E+03  0.37503145783E+03  0.00000000000E+00 0. -1.
</event>
<event>
 7    1  0.5970484E-006  0.1019960E+03  0.7818608E-02  0.1407130E+00
          2   -1    0    0  502    0  0.00000000000E+00  0.00000000000E+00  0.44351813127E+03  0.44351813127E+03  0.00000000000E+00 0. -1.
          1   -1    0    0  501    0 -0.00000000000E+00 -0.00000000000E+00 -0.10016111384E+04  0.10016111384E+04  0.00000000000E+00 0. -1.
         25    2    1    2    0    0 -0.66588534633E+02 -0.52959770201E+02  0.21617499538E+03  0.26380910503E+03  0.12499938026E+03 0.  0.
          2    1    1    2  501    0 -0.99584716213E+01 -0.31250760701E+02 -0.96158448444E+03  0.96214370128E+03  0.00000000000E+00 0. -1.
          1    1    1    2  502    0  0.76547006254E+02  0.84210530902E+02  0.18731648194E+03  0.21917646335E+03  0.00000000000E+00 0. -1.
         22    1    3    3    0    0 -0.50589034477E+02  0.23337523355E+02  0.33041759504E+02  0.64773824009E+02  0.00000000000E+00 0.  1.
         22    1    3    3    0    0 -0.15999500156E+02 -0.76297293556E+02  0.18313323588E+03  0.19903528102E+03  0.00000000000E+00 0.  1.
</event>
<event>
 7    1  0.1204863E-005  0.8473064E+02  0.7818608E-02  0.1327272E+00
          2   -1    0    0  502    0  0.00000000000E+00  0.00000000000E+00  0.27078861822E+04  0.27078861822E+04  0.00000000000E+00 0. -1.
          1   -1    0    0  501    0 -0.00000000000E+00 -0.00000000000E+00 -0.84053412416E+03  0.84053412416E+03  0.00000000000E+00 0. -1.
         25    2    1    2    0    0 -0.11391167300E+03  0.97459195417E+02 -0.16689571184E+03  0.25681490911E+03  0.12500221957E+03 0.  0.
          2    1    1    2  501    0  0.73065072830E+02 -0.23425779461E+02 -0.62566339261E+03  0.63035065865E+03  0.00000000000E+00 0. -1.
          1    1    1    2  502    0  0.40846600165E+02 -0.74033415956E+02  0.26599111624E+04  0.26612547386E+04  0.00000000000E+00 0. -1.
         22    1    3    3    0    0 -0.11367819725E+03  0.26678515981E+02 -0.13691824550E+03  0.17994744148E+03  0.00000000000E+00 0.  1.
         22    1    3    3    0    0 -0.23347574745E+00  0.70780679437E+02 -0.29977466334E+02  0.76867467633E+02  0.00000000000E+00 0.  1.
</event>
<event>
 7    1  0.5970484E-006  0.5543252E+02  0.7818608E-02  0.1451819E+00
          2   -1    0    0  502    0  0.00000000000E+00  0.00000000000E+00  0.27782702722E+03  0.27782702722E+03  0.00000000000E+00 0. -1.
          1   -1    0    0  501    0 -0.00000000000E+00 -0.00000000000E+00 -0.11483567326E+03  0.11483567326E+03  0.00000000000E+00 0. -1.
         25    2    1    2    0    0 -0.36718407157E+02  0.48678757649E+02 -0.21801406305E+02  0.14077400144E+03  0.12499662114E+03 0.  0.
          2    1    1    2  501    0  0.42430506925E+02  0.69379723550E+01 -0.14131519101E+02  0.45256858159E+02  0.00000000000E+00 0. -1.
          1    1    1    2  502    0 -0.57120997689E+01 -0.55616730004E+02  0.19892427937E+03  0.20663184087E+03  0.00000000000E+00 0. -1.
         22    1    3    3    0    0  0.97373149676E+01  0.76702433267E+02  0.98811831410E+01  0.77946881606E+02  0.00000000000E+00 0. -1.
         22    1    3    3    0    0 -0.46455722124E+02 -0.28023675618E+02 -0.31682589446E+02  0.62827119839E+02  0.00000000000E+00 0. -1.
</event>
<event>
 7    1  0.5970484E-006  0.8757279E+02  0.7818608E-02  0.1371745E+00
          2   -1    0    0  502    0  0.00000000000E+00  0.00000000000E+00  0.42055541876E+03  0.42055541876E+03  0.00000000000E+00 0. -1.
          1   -1    0    0  501    0 -0.00000000000E+00 -0.00000000000E+00 -0.23927690194E+03  0.23927690194E+03  0.00000000000E+00 0. -1.
         25    2    1    2    0    0  0.46964672841E+02  0.35427350731E+01  0.25858015104E+03  0.29104411373E+03  0.12499900062E+03 0.  0.
          2    1    1    2  501    0 -0.77266703778E+02 -0.44288600200E+02 -0.20924584027E+03  0.22741030164E+03  0.00000000000E+00 0. -1.
          1    1    1    2  502    0  0.30302030937E+02  0.40745865127E+02  0.13194420606E+03  0.14137790533E+03  0.00000000000E+00 0. -1.
         22    1    3    3    0    0  0.20799284476E+02  0.16225951596E+02  0.26056703591E+03  0.26189897278E+03  0.00000000000E+00 0. -1.
         22    1    3    3    0    0  0.26165388365E+02 -0.12683216523E+02 -0.19868848655E+01  0.29145140952E+02  0.00000000000E+00 0. -1.
</event>
<event>
 7    1  0.5970484E-006  0.7014401E+02  0.7818608E-02  0.1362128E+00
          2   -1    0    0  502    0  0.00000000000E+00  0.00000000000E+00  0.12229163887E+03  0.12229163887E+03  0.00000000000E+00 0. -1.
          1   -1    0    0  501    0 -0.00000000000E+00 -0.00000000000E+00 -0.11054503282E+04  0.11054503282E+04  0.00000000000E+00 0. -1.
         25    2    1    2    0    0  0.86240386793E+02 -0.27661765107E+01 -0.50150563994E+03  0.52400152335E+03  0.12499853415E+03 0.  0.
          2    1    1    2  501    0 -0.39919920284E+02  0.55879193752E+02 -0.57927890494E+03  0.58333535298E+03  0.00000000000E+00 0. -1.
          1    1    1    2  502    0 -0.46320466510E+02 -0.53113017241E+02  0.97625855519E+02  0.12040509077E+03  0.00000000000E+00 0. -1.
         22    1    3    3    0    0  0.83586876342E+02  0.28518378320E+02 -0.17532523015E+03  0.19631352507E+03  0.00000000000E+00 0. -1.
         22    1    3    3    0    0  0.26535104516E+01 -0.31284554830E+02 -0.32618040979E+03  0.32768799829E+03  0.00000000000E+00 0. -1.
</event>
<event>
 7    1  0.5970484E-006  0.5724412E+02  0.7818608E-02  0.1410806E+00
          2   -1    0    0  502    0  0.00000000000E+00  0.00000000000E+00  0.90498167413E+03  0.90498167413E+03  0.00000000000E+00 0. -1.
          1   -1    0    0  501    0 -0.00000000000E+00 -0.00000000000E+00 -0.87620525243E+03  0.87620525243E+03  0.00000000000E+00 0. -1.
         25    2    1    2    0    0  0.35452217797E+02  0.26143298637E+02  0.11151798646E+03  0.17320859240E+03  0.12499849346E+03 0.  0.
          2    1    1    2  501    0 -0.48392666382E+02  0.30578403323E+02 -0.84327857915E+03  0.84521929164E+03  0.00000000000E+00 0. -1.
          1    1    1    2  502    0  0.12940448584E+02 -0.56721701961E+02  0.76053701439E+03  0.76275904251E+03  0.00000000000E+00 0. -1.
         22    1    3    3    0    0  0.72200574428E+01 -0.54104908111E+01 -0.26945670558E+02  0.28416048320E+02  0.00000000000E+00 0.  1.
         22    1    3    3    0    0  0.28232160355E+02  0.31553789448E+02  0.13846365702E+03  0.14479254408E+03  0.00000000000E+00 0.  1.
</event>
<event>
 7    1  0.5970484E-006  0.7883120E+02  0.7818608E-02  0.1485064E+00
          2   -1    0    0  502    0  0.00000000000E+00  0.00000000000E+00  0.20262413124E+04  0.20262413124E+04  0.00000000000E+00 0. -1.
          1   -1    0    0  501    0 -0.00000000000E+00 -0.00000000000E+00 -0.36349973004E+02  0.36349973004E+02  0.00000000000E+00 0. -1.
         25    2    1    2    0    0  0.59806890413E+02 -0.22192541611E+01  0.17421712713E+04  0.17476756092E+04  0.12501002926E+03 0.  0.
          2    1    1    2  501    0 -0.77199947838E+02  0.18484452355E+02  0.14761131623E+02  0.80742788730E+02  0.00000000000E+00 0. -1.
          1    1    1    2  502    0  0.17393057426E+02 -0.16265198194E+02  0.23295893653E+03  0.23417288747E+03  0.00000000000E+00 0. -1.
         22    1    3    3    0    0  0.88361580599E+02 -0.32254913408E+02  0.10246846904E+04  0.10289931307E+04  0.00000000000E+00 0. -1.
         22    1    3    3    0    0 -0.28554690186E+02  0.30035659247E+02  0.71748658088E+03  0.71868247850E+03  0.00000000000E+00 0. -1.
</event>
<event>
 7    1  0.5970484E-006  0.3165322E+02  0.7818608E-02  0.1591620E+00
          2   -1    0    0  502    0  0.00000000000E+00  0.00000000000E+00  0.15297108631E+04  0.15297108631E+04  0.00000000000E+00 0. -1.
          1   -1    0    0  501    0 -0.00000000000E+00 -0.00000000000E+00 -0.21342120443E+02  0.21342120443E+02  0.00000000000E+00 0. -1.
         25    2    1    2    0    0  0.30069590396E+02 -0.51026997362E+02  0.92166819270E+03  0.93199046771E+03  0.12500415890E+03 0.  0.
          2    1    1    2  501    0 -0.15039118256E+02  0.25459053052E+02 -0.19798899655E+01  0.29635425161E+02  0.00000000000E+00 0. -1.
          1    1    1    2  502    0 -0.15030472140E+02  0.25567944310E+02  0.58868043994E+03  0.58942709069E+03  0.00000000000E+00 0. -1.
         22    1    3    3    0    0 -0.15918146301E+02  0.20371583176E+02  0.50888890970E+02  0.57079488496E+02  0.00000000000E+00 0. -1.
         22    1    3    3    0    0  0.45987736698E+02 -0.71398580538E+02  0.87077930173E+03  0.87491097921E+03  0.00000000000E+00 0. -1.
</event>
<event>
 7    1  0.5970484E-006  0.9085592E+02  0.7818608E-02  0.1417524E+00
          2   -1    0    0  502    0  0.00000000000E+00  0.00000000000E+00  0.67121759775E+02  0.67121759775E+02  0.00000000000E+00 0. -1.
          1   -1    0    0  501    0 -0.00000000000E+00 -0.00000000000E+00 -0.22171521913E+04  0.22171521913E+04  0.00000000000E+00 0. -1.
         25    2    1    2    0    0  0.56781524358E+02  0.71945874710E+02 -0.12519523831E+04  0.12615098085E+04  0.12498750756E+03 0.  0.
          2    1    1    2  501    0 -0.30398079606E+02  0.15144216954E+02 -0.92673708392E+03  0.92735916088E+03  0.00000000000E+00 0. -1.
          1    1    1    2  502    0 -0.26383444753E+02 -0.87090091664E+02  0.28659035455E+02  0.95404981716E+02  0.00000000000E+00 0. -1.
         22    1    3    3    0    0 -0.12892732056E+02 -0.21897427065E+02 -0.84955473751E+02  0.88674417800E+02  0.00000000000E+00 0. -1.
         22    1    3    3    0    0  0.69674256415E+02  0.93843301774E+02 -0.11669969093E+04  0.11728353907E+04  0.00000000000E+00 0. -1.
</event>
<event>
 7    1  0.5970484E-006  0.3194138E+02  0.7818608E-02  0.1618640E+00
          2   -1    0    0  502    0  0.00000000000E+00  0.00000000000E+00  0.72506116359E+03  0.72506116359E+03  0.00000000000E+00 0. -1.
          1   -1    0    0  501    0 -0.00000000000E+00 -0.00000000000E+00 -0.65799118611E+02  0.65799118611E+02  0.00000000000E+00 0. -1.
         25    2    1    2    0    0  0.55714199371E+02  0.10373157118E+02  0.53950666560E+03  0.55669016902E+03  0.12499931065E+03 0.  0.
          2    1    1    2  501    0 -0.31189359817E+02 -0.58841831566E+01 -0.51833571392E+02  0.60779263737E+02  0.00000000000E+00 0. -1.
          1    1    1    2  502    0 -0.24524839554E+02 -0.44889739610E+01  0.17158895077E+03  0.17339084944E+03  0.00000000000E+00 0. -1.
         22    1    3    3    0    0 -0.18870346727E+02  0.34033206756E+02  0.64870563743E+02  0.75647466501E+02  0.00000000000E+00 0. -1.
         22    1    3    3    0    0  0.74584546099E+02 -0.23660049638E+02  0.47463610186E+03  0.48104270252E+03  0.00000000000E+00 0. -1.
</event>
<event>
 7    1  0.5970484E-006  0.4781289E+02  0.7818608E-02  0.1490566E+00
          2   -1    0    0  502    0  0.00000000000E+00  0.00000000000E+00  0.16295951174E+04  0.16295951174E+04  0.00000000000E+00 0. -1.
          1   -1    0    0  501    0 -0.00000000000E+00 -0.00000000000E+00 -0.57053426601E+03  0.57053426601E+03  0.00000000000E+00 0. -1.
         25    2    1    2    0    0  0.47180038970E+01 -0.27015928914E+02  0.77144703304E+00  0.12797767396E+03  0.12500227968E+03 0.  0.
          2    1    1    2  501    0 -0.36763985530E+02 -0.87082278138E+01 -0.50585865681E+03  0.50726758672E+03  0.00000000000E+00 0. -1.
          1    1    1    2  502    0  0.32045981633E+02  0.35724156727E+02  0.15641480612E+04  0.15648841228E+04  0.00000000000E+00 0. -1.
         22    1    3    3    0    0 -0.22830412057E+02 -0.10001664810E+02  0.57493920985E+02  0.62664279808E+02  0.00000000000E+00 0.  1.
         22    1    3    3    0    0  0.27548415954E+02 -0.17014264103E+02 -0.56722473952E+02  0.65313394153E+02  0.00000000000E+00 0.  1.
</event>
<event>
 7    1  0.5970484E-006  0.1408209E+03  0.7818608E-02  0.1370458E+00
          2   -1    0    0  502    0  0.00000000000E+00  0.00000000000E+00  0.46174178342E+03  0.46174178342E+03  0.00000000000E+00 0. -1.
          1   -1    0    0  501    0 -0.00000000000E+00 -0.00000000000E+00 -0.20468366777E+04  0.20468366777E+04  0.00000000000E+00 0. -1.
         25    2    1    2    0    0  0.74394085910E+02 -0.11038768921E+03 -0.25962419261E+03  0.31741548050E+03  0.12501177516E+03 0.  0.
          2    1    1    2  501    0  0.28745497832E+02  0.13867150789E+02 -0.17466423027E+04  0.17469338668E+04  0.00000000000E+00 0. -1.
          1    1    1    2  502    0 -0.10313958374E+03  0.96520538421E+02  0.42117160099E+03  0.44422911381E+03  0.00000000000E+00 0. -1.
         22    1    3    3    0    0 -0.15122651514E+02 -0.88992196794E+02 -0.13776785817E+03  0.16470667389E+03  0.00000000000E+00 0.  1.
         22    1    3    3    0    0  0.89516737424E+02 -0.21395492416E+02 -0.12185633444E+03  0.15270880661E+03  0.00000000000E+00 0.  1.
</event>
<event>
 7    1  0.5970484E-006  0.7967166E+02  0.7818608E-02  0.1459005E+00
          2   -1    0    0  502    0  0.00000000000E+00  0.00000000000E+00  0.19705854615E+04  0.19705854615E+04  0.00000000000E+00 0. -1.
          1   -1    0    0  501    0 -0.00000000000E+00 -0.00000000000E+00 -0.25509389869E+04  0.25509389869E+04  0.00000000000E+00 0. -1.
         25    2    1    2    0    0 -0.81805495365E+02 -0.68298705553E+02 -0.44671668992E+03  0.47595933053E+03  0.12499852403E+03 0.  0.
          2    1    1    2  501    0  0.61631295021E+02  0.48334262728E+02 -0.20887639915E+04  0.20902319560E+04  0.00000000000E+00 0. -1.
          1    1    1    2  502    0  0.20174200344E+02  0.19964442825E+02  0.19551271561E+04  0.19553331619E+04  0.00000000000E+00 0. -1.
         22    1    3    3    0    0  0.74571866381E+00 -0.80743062724E+02 -0.22418315950E+03  0.23828152945E+03  0.00000000000E+00 0. -1.
         22    1    3    3    0    0 -0.82551214028E+02  0.12444357171E+02 -0.22253353042E+03  0.23767780108E+03  0.00000000000E+00 0. -1.
</event>
<event>
 7    1  0.5970484E-006  0.4577009E+02  0.7818608E-02  0.1532466E+00
          2   -1    0    0  502    0  0.00000000000E+00  0.00000000000E+00  0.14042434049E+04  0.14042434049E+04  0.00000000000E+00 0. -1.
          1   -1    0    0  501    0 -0.00000000000E+00 -0.00000000000E+00 -0.36336959454E+03  0.36336959454E+03  0.00000000000E+00 0. -1.
         25    2    1    2    0    0  0.13463801325E+02 -0.34593985242E+02  0.32861840804E+02  0.13447049548E+03  0.12499758322E+03 0.  0.
          2    1    1    2  501    0 -0.40456773169E+02  0.22143967580E+02 -0.31069553002E+03  0.31410001301E+03  0.00000000000E+00 0. -1.
          1    1    1    2  502    0  0.26992971844E+02  0.12450017662E+02  0.13187074996E+04  0.13190424910E+04  0.00000000000E+00 0. -1.
         22    1    3    3    0    0 -0.47321719501E+02  0.10900326505E+02 -0.64235599860E+01  0.48983919579E+02  0.00000000000E+00 0. -1.
         22    1    3    3    0    0  0.60785520826E+02 -0.45494311747E+02  0.39285400790E+02  0.85486575897E+02  0.00000000000E+00 0. -1.
</event>
<event>
 7    1  0.5970484E-006  0.5278153E+02  0.7818608E-02  0.1500917E+00
          2   -1    0    0  502    0  0.00000000000E+00  0.00000000000E+00  0.63736320281E+03  0.63736320281E+03  0.00000000000E+00 0. -1.
          1   -1    0    0  501    0 -0.00000000000E+00 -0.00000000000E+00 -0.56876696786E+03  0.56876696786E+03  0.00000000000E+00 0. -1.
         25    2    1    2    0    0  0.71327081644E+02 -0.72344944211E+01 -0.47006540492E+02  0.15158034366E+03  0.12500838072E+03 0.  0.
          2    1    1    2  501    0 -0.45542527745E+02  0.25951780521E+02 -0.46757416248E+03  0.47050315000E+03  0.00000000000E+00 0. -1.
          1    1    1    2  502    0 -0.25784553899E+02 -0.18717286100E+02  0.58317693792E+03  0.58404667702E+03  0.00000000000E+00 0. -1.
         22    1    3    3    0    0 -0.32658396885E+02 -0.77744033710E+01 -0.32249635838E+02  0.46551597680E+02  0.00000000000E+00 0.  1.
         22    1    3    3    0    0  0.10398547853E+03  0.53990894984E+00 -0.14756904654E+02  0.10502874598E+03  0.00000000000E+00 0.  1.
</event>
<event>
 7    1  0.5970484E-006  0.1052253E+03  0.7818608E-02  0.1465628E+00
          2   -1    0    0  502    0  0.00000000000E+00  0.00000000000E+00  0.59404778757E+02  0.59404778757E+02  0.00000000000E+00 0. -1.
          1   -1    0    0  501    0 -0.00000000000E+00 -0.00000000000E+00 -0.78591796864E+03  0.78591796864E+03  0.00000000000E+00 0. -1.
         25    2    1    2    0    0 -0.63778188563E+02 -0.93692338973E+02 -0.17815527976E+03  0.24537859609E+03  0.12500175995E+03 0.  0.
          2    1    1    2  501    0  0.72348986189E+02  0.75087828487E+02 -0.56438439153E+03  0.57393579710E+03  0.00000000000E+00 0. -1.
          1    1    1    2  502    0 -0.85707976259E+01  0.18604510486E+02  0.16026481411E+02  0.26008354211E+02  0.00000000000E+00 0. -1.
         22    1    3    3    0    0 -0.19622732017E+02 -0.37079830083E+02  0.10735141687E+02  0.43303679726E+02  0.00000000000E+00 0. -1.
         22    1    3    3    0    0 -0.44155456547E+02 -0.56612508890E+02 -0.18889042145E+03  0.20207491636E+03  0.00000000000E+00 0. -1.
</event>
<event>
 7    1  0.5970484E-006  0.9200837E+02  0.7818608E-02  0.1381682E+00
          2   -1    0    0  502    0  0.00000000000E+00  0.00000000000E+00  0.15666469286E+03  0.15666469286E+03  0.00000000000E+00 0. -1.
          1   -1    0    0  501    0 -0.00000000000E+00 -0.00000000000E+00 -0.86173151736E+03  0.86173151736E+03  0.00000000000E+00 0. -1.
         25    2    1    2    0    0  0.66780574305E+02  0.15554407836E+02 -0.28415174499E+02  0.14537638884E+03  0.12500115033E+03 0.  0.
          2    1    1    2  501    0 -0.71848645471E+02 -0.59815839086E+02 -0.76679251049E+03  0.77247065744E+03  0.00000000000E+00 0. -1.
          1    1    1    2  502    0  0.50680711656E+01  0.44261431250E+02  0.90140860488E+02  0.10054916395E+03  0.00000000000E+00 0. -1.
         22    1    3    3    0    0  0.68395047427E+02  0.29793621963E+02  0.33532883525E+02  0.81792400012E+02  0.00000000000E+00 0.  1.
         22    1    3    3    0    0 -0.16144731223E+01 -0.14239214126E+02 -0.61948058024E+02  0.63583988829E+02  0.00000000000E+00 0.  1.
</event>
<event>
 7    1  0.5970484E-006  0.1843926E+03  0.7818608E-02  0.1307314E+00
          2   -1    0    0  502    0  0.00000000000E+00  0.00000000000E+00  0.11316716431E+04  0.11316716431E+04  0.00000000000E+00 0. -1.
          1   -1    0    0  501    0 -0.00000000000E+00 -0.00000000000E+00 -0.38963435784E+03  0.38963435784E+03  0.00000000000E+00 0. -1.
         25    2    1    2    0    0 -0.14221239433E+01 -0.21991666302E+03  0.15735842429E+03  0.29791282016E+03  0.12500005444E+03 0.  0.
          2    1    1    2  501    0 -0.12319543311E+02  0.18004676121E+03 -0.29331514819E+03  0.34438696771E+03  0.00000000000E+00 0. -1.
          1    1    1    2  502    0  0.13741667255E+02  0.39869901811E+02  0.87799400915E+03  0.87900621306E+03  0.00000000000E+00 0. -1.
         22    1    3    3    0    0  0.36726742798E+02 -0.20920808955E+03  0.14155511356E+03  0.25525424295E+03  0.00000000000E+00 0. -1.
         22    1    3    3    0    0 -0.38148866741E+02 -0.10708573471E+02  0.15803310727E+02  0.42658577207E+02  0.00000000000E+00 0. -1.
</event>
<event>
 7    1  0.5970484E-006  0.1434793E+03  0.7818608E-02  0.1361692E+00
          2   -1    0    0  502    0  0.00000000000E+00  0.00000000000E+00  0.82799612302E+02  0.82799612302E+02  0.00000000000E+00 0. -1.
          1   -1    0    0  501    0 -0.00000000000E+00 -0.00000000000E+00 -0.10855964142E+04  0.10855964142E+04  0.00000000000E+00 0. -1.
         25    2    1    2    0    0  0.77966317496E+02 -0.11092763659E+03 -0.63423470707E+03  0.66050115481E+03  0.12499769854E+03 0.  0.
          2    1    1    2  501    0  0.30286003221E+02  0.14771329417E+02 -0.36135643790E+03  0.36292410967E+03  0.00000000000E+00 0. -1.
          1    1    1    2  502    0 -0.10825232072E+03  0.96156307170E+02 -0.72056569273E+01  0.14497076202E+03  0.00000000000E+00 0. -1.
         22    1    3    3    0    0  0.10996070105E+03 -0.69776216400E+02 -0.49448255192E+03  0.51134437545E+03  0.00000000000E+00 0. -1.
         22    1    3    3    0    0 -0.31994383552E+02 -0.41151420187E+02 -0.13975215515E+03  0.14915677937E+03  0.00000000000E+00 0. -1.
</event>
<event>
 7    1  0.5970484E-006  0.1108554E+03  0.7818608E-02  0.1285735E+00
          2   -1    0    0  502    0  0.00000000000E+00  0.00000000000E+00  0.93246277078E+03  0.93246277078E+03  0.00000000000E+00 0. -1.
          1   -1    0    0  501    0 -0.00000000000E+00 -0.00000000000E+00 -0.52743625197E+03  0.52743625197E+03  0.00000000000E+00 0. -1.
         25    2    1    2    0    0  0.14151937975E+02  0.70972913354E+02  0.20388420913E+02  0.14587249156E+03  0.12500265721E+03 0.  0.
          2    1    1    2  501    0  0.84712673140E+02 -0.12830494085E+02 -0.45682125094E+03  0.46478652506E+03  0.00000000000E+00 0. -1.
          1    1    1    2  502    0 -0.98864611115E+02 -0.58142419269E+02  0.84145934884E+03  0.84924000612E+03  0.00000000000E+00 0. -1.
         22    1    3    3    0    0 -0.45062606776E+02  0.79439177714E+01 -0.20586595735E+02  0.50175215824E+02  0.00000000000E+00 0. -1.
         22    1    3    3    0    0  0.59214544751E+02  0.63028995583E+02  0.40975016648E+02  0.95697275737E+02  0.00000000000E+00 0. -1.
</event>
<event>
 7    1  0.5970484E-006  0.1007652E+03  0.7818608E-02  0.1333280E+00
          2   -1    0    0  502    0  0.00000000000E+00  0.00000000000E+00  0.83027292167E+03  0.83027292167E+03  0.00000000000E+00 0. -1.
          1   -1    0    0  501    0 -0.00000000000E+00 -0.00000000000E+00 -0.32208962727E+03  0.32208962727E+03  0.00000000000E+00 0. -1.
         25    2    1    2    0    0 -0.15973703794E+02 -0.57787560485E+01  0.44165085229E+03  0.45931299965E+03  0.12499761231E+03 0.  0.
          2    1    1    2  501    0  0.22993890695E+01 -0.10073891464E+03 -0.29718797664E+03  0.31380616561E+03  0.00000000000E+00 0. -1.
          1    1    1    2  502    0  0.13674314725E+02  0.10651767069E+03  0.36372041876E+03  0.37924338369E+03  0.00000000000E+00 0. -1.
         22    1    3    3    0    0 -0.49904304623E+02  0.12580382226E+02  0.76931708473E+02  0.92559134641E+02  0.00000000000E+00 0. -1.
         22    1    3    3    0    0  0.33930600829E+02 -0.18359138274E+02  0.36471914382E+03  0.36675386501E+03  0.00000000000E+00 0. -1.
</event>
<event>
 7    1  0.5970484E-006  0.9023148E+02  0.7818608E-02  0.1335854E+00
          2   -1    0    0  502    0  0.00000000000E+00  0.00000000000E+00  0.23502701215E+04  0.23502701215E+04  0.00000000000E+00 0. -1.
          1   -1    0    0  501    0 -0.00000000000E+00 -0.00000000000E+00 -0.96029765530E+02  0.96029765530E+02  0.00000000000E+00 0. -1.
         25    2    1    2    0    0  0.13447865531E+03 -0.75590382126E+02  0.29907955318E+03  0.35898949231E+03  0.12500584728E+03 0.  0.
          2    1    1    2  501    0 -0.61539394353E+02  0.26045418626E+02 -0.47957753267E+02  0.82252094120E+02  0.00000000000E+00 0. -1.
          1    1    1    2  502    0 -0.72939260956E+02  0.49544963500E+02  0.20031185561E+04  0.20050583006E+04  0.00000000000E+00 0. -1.
         22    1    3    3    0    0  0.10296660563E+03 -0.41757267373E+02  0.84788179482E+02  0.13976704416E+03  0.00000000000E+00 0.  1.
         22    1    3    3    0    0  0.31512049675E+02 -0.33833114753E+02  0.21429137370E+03  0.21922244815E+03  0.00000000000E+00 0.  1.
</event>
<event>
 7    1  0.5970484E-006  0.7059600E+02  0.7818608E-02  0.1369595E+00
          2   -1    0    0  502    0  0.00000000000E+00  0.00000000000E+00  0.14999326465E+04  0.14999326465E+04  0.00000000000E+00 0. -1.
          1   -1    0    0  501    0 -0.00000000000E+00 -0.00000000000E+00 -0.20414050904E+02  0.20414050904E+02  0.00000000000E+00 0. -1.
         25    2    1    2    0    0 -0.70149447809E+02  0.19683277301E+02  0.76502096123E+03  0.77858251652E+03  0.12500114987E+03 0.  0.
          2    1    1    2  501    0  0.70500245932E+01 -0.63730745872E+02  0.79566554537E+02  0.10218682604E+03  0.00000000000E+00 0. -1.
          1    1    1    2  502    0  0.63099423216E+02  0.44047468571E+02  0.63493107987E+03  0.63957735489E+03  0.00000000000E+00 0. -1.
         22    1    3    3    0    0  0.30497363423E+02 -0.13176642970E+02  0.29050323307E+03  0.29239671941E+03  0.00000000000E+00 0.  1.
         22    1    3    3    0    0 -0.10064681123E+03  0.32859920271E+02  0.47451772816E+03  0.48618579711E+03  0.00000000000E+00 0.  1.
</event>
<event>
 7    1  0.5970484E-006  0.1478045E+03  0.7818608E-02  0.1246656E+00
          2   -1    0    0  502    0  0.00000000000E+00  0.00000000000E+00  0.14278416701E+04  0.14278416701E+04  0.00000000000E+00 0. -1.
          1   -1    0    0  501    0 -0.00000000000E+00 -0.00000000000E+00 -0.58576209725E+03  0.58576209725E+03  0.00000000000E+00 0. -1.
         25    2    1    2    0    0 -0.28688482705E+02  0.22611106326E+03 -0.13150919245E+03  0.29132347808E+03  0.12500183684E+03 0.  0.
          2    1    1    2  501    0  0.30387638573E+02 -0.13213110125E+03 -0.36036141138E+03  0.38502257506E+03  0.00000000000E+00 0. -1.
          1    1    1    2  502    0 -0.16991558683E+01 -0.93979962013E+02  0.13339501767E+04  0.13372577142E+04  0.00000000000E+00 0. -1.
         22    1    3    3    0    0  0.35482361666E+02  0.17310189399E+03 -0.90925303370E+02  0.19872260688E+03  0.00000000000E+00 0.  1.
         22    1    3    3    0    0 -0.64170844371E+02  0.53009169271E+02 -0.40583889080E+02  0.92600871200E+02  0.00000000000E+00 0.  1.
</event>
<event>
 7    1  0.5970484E-006  0.3220521E+02  0.7818608E-02  0.1618450E+00
          2   -1    0    0  502    0  0.00000000000E+00  0.00000000000E+00  0.25054472874E+03  0.25054472874E+03  0.00000000000E+00 0. -1.
          1   -1    0    0  501    0 -0.00000000000E+00 -0.00000000000E+00 -0.12830804675E+04  0.12830804675E+04  0.00000000000E+00 0. -1.
         25    2    1    2    0    0  0.62513896489E+01 -0.67931155238E+01 -0.20066870563E+03  0.23659613872E+03  0.12499830857E+03 0.  0.
          2    1    1    2  501    0  0.24581700254E+02 -0.29293232877E+01 -0.10631797776E+04  0.10634679499E+04  0.00000000000E+00 0. -1.
          1    1    1    2  502    0 -0.30833089903E+02  0.97224388115E+01  0.23131274447E+03  0.23356110764E+03  0.00000000000E+00 0. -1.
         22    1    3    3    0    0 -0.39146963830E+02  0.28994923652E+02 -0.31973271291E+02  0.58270751254E+02  0.00000000000E+00 0.  1.
         22    1    3    3    0    0  0.45398353479E+02 -0.35788039176E+02 -0.16869543434E+03  0.17832538747E+03  0.00000000000E+00 0.  1.
</event>
<event>
 7    1  0.5970484E-006  0.3770114E+03  0.7818608E-02  0.1251869E+00
          2   -1    0    0  502    0  0.00000000000E+00  0.00000000000E+00  0.27493723769E+04  0.27493723769E+04  0.00000000000E+00 0. -1.
          1   -1    0    0  501    0 -0.00000000000E+00 -0.00000000000E+00 -0.87025520131E+03  0.87025520131E+03  0.00000000000E+00 0. -1.
         25    2    1    2    0    0  0.38978171088E+03 -0.66208023854E+02  0.21903796765E+03  0.46895190416E+03  0.12499989033E+03 0.  0.
          2    1    1    2  501    0 -0.25739278730E+02 -0.23684320741E+02 -0.73026321462E+03  0.73110041728E+03  0.00000000000E+00 0. -1.
          1    1    1    2  502    0 -0.36404243215E+03  0.89892344595E+02  0.23903424226E+04  0.24195752568E+04  0.00000000000E+00 0. -1.
         22    1    3    3    0    0  0.34404703620E+03 -0.18196228581E+02  0.20586563458E+03  0.40134788570E+03  0.00000000000E+00 0. -1.
         22    1    3    3    0    0  0.45734674682E+02 -0.48011795273E+02  0.13172333068E+02  0.67604018461E+02  0.00000000000E+00 0. -1.
</event>
<event>
 7    1  0.5970484E-006  0.6398896E+02  0.7818608E-02  0.1503792E+00
          2   -1    0    0  502    0  0.00000000000E+00  0.00000000000E+00  0.24437848130E+03  0.24437848130E+03  0.00000000000E+00 0. -1.
          1   -1    0    0  501    0 -0.00000000000E+00 -0.00000000000E+00 -0.15606639296E+04  0.15606639296E+04  0.00000000000E+00 0. -1.
         25    2    1    2    0    0 -0.27684116980E+02  0.79476247176E+02  0.48176073932E+02  0.15820763852E+03  0.12500335431E+03 0.  0.
          2    1    1    2  501    0  0.75255159454E+01 -0.63424423107E+02 -0.15037888093E+04  0.15051445358E+04  0.00000000000E+00 0. -1.
          1    1    1    2  502    0  0.20158601035E+02 -0.16051824069E+02  0.13932728698E+03  0.14169023661E+03  0.00000000000E+00 0. -1.
         22    1    3    3    0    0  0.49037534199E+02  0.18024859346E+02  0.20103419881E+02  0.55979664215E+02  0.00000000000E+00 0. -1.
         22    1    3    3    0    0 -0.76721651179E+02  0.61451387830E+02  0.28072654051E+02  0.10222797431E+03  0.00000000000E+00 0. -1.
</event>
<event>
 7    1  0.5970484E-006  0.1598283E+03  0.7818608E-02  0.1294041E+00
          2   -1    0    0  502    0  0.00000000000E+00  0.00000000000E+00  0.47092133025E+03  0.47092133025E+03  0.00000000000E+00 0. -1.
          1   -1    0    0  501    0 -0.00000000000E+00 -0.00000000000E+00 -0.49879946135E+03  0.49879946135E+03  0.00000000000E+00 0. -1.
         25    2    1    2    0    0 -0.17023353653E+03 -0.11185065639E+03 -0.11520380350E+03  0.26530492040E+03  0.12499903262E+03 0.  0.
          2    1    1    2  501    0  0.12102088268E+03  0.87341858840E+02 -0.28837856215E+03  0.32471040861E+03  0.00000000000E+00 0. -1.
          1    1    1    2  502    0  0.49212653842E+02  0.24508797550E+02  0.37570423456E+03  0.37970546259E+03  0.00000000000E+00 0. -1.
         22    1    3    3    0    0 -0.13241634436E+03 -0.13823502964E+03 -0.80822364270E+02  0.20778658821E+03  0.00000000000E+00 0.  1.
         22    1    3    3    0    0 -0.37817192164E+02  0.26384373248E+02 -0.34381439231E+02  0.57518332194E+02  0.00000000000E+00 0.  1.
</event>
<event>
 7    1  0.5970484E-006  0.3640804E+02  0.7818608E-02  0.1565231E+00
          2   -1    0    0  502    0  0.00000000000E+00  0.00000000000E+00  0.65879104598E+03  0.65879104598E+03  0.00000000000E+00 0. -1.
          1   -1    0    0  501    0 -0.00000000000E+00 -0.00000000000E+00 -0.11871289513E+03  0.11871289513E+03  0.00000000000E+00 0. -1.
         25    2    1    2    0    0 -0.28516839462E+02  0.48910947228E+02  0.13260406214E+03  0.19082257095E+03  0.12499570151E+03 0.  0.
          2    1    1    2  501    0  0.11018136623E+01 -0.36084453651E+02 -0.85484251950E+02  0.92794714936E+02  0.00000000000E+00 0. -1.
          1    1    1    2  502    0  0.27415025800E+02 -0.12826493577E+02  0.49295834066E+03  0.49388665522E+03  0.00000000000E+00 0. -1.
         22    1    3    3    0    0 -0.32370628955E+02 -0.35066086182E+02  0.23807336132E+02  0.53331766076E+02  0.00000000000E+00 0. -1.
         22    1    3    3    0    0  0.38537894931E+01  0.83977033410E+02  0.10879672601E+03  0.13749080487E+03  0.00000000000E+00 0. -1.
</event>
<event>
 7    1  0.5970484E-006  0.1044250E+03  0.7818608E-02  0.1284588E+00
          2   -1    0    0  502    0  0.00000000000E+00  0.00000000000E+00  0.19979428327E+04  0.19979428327E+04  0.00000000000E+00 0. -1.
          1   -1    0    0  501    0 -0.00000000000E+00 -0.00000000000E+00 -0.17627661595E+03  0.17627661595E+03  0.00000000000E+00 0. -1.
         25    2    1    2    0    0 -0.22219893671E+02 -0.13922098473E+03  0.97551134426E+03  0.99353991987E+03  0.12499193303E+03 0.  0.
          2    1    1    2  501    0  0.79665771783E+02  0.67430992316E+02 -0.14865116610E+03  0.18163354068E+03  0.00000000000E+00 0. -1.
          1    1    1    2  502    0 -0.57445878112E+02  0.71789992416E+02  0.99480603856E+03  0.99904598807E+03  0.00000000000E+00 0. -1.
         22    1    3    3    0    0 -0.57255795049E+02 -0.13117171729E+03  0.62440499085E+03  0.64059803159E+03  0.00000000000E+00 0.  1.
         22    1    3    3    0    0  0.35035901378E+02 -0.80492674414E+01  0.35110635342E+03  0.35294188828E+03  0.00000000000E+00 0.  1.
</event>
<event>
 7    1  0.5970484E-006  0.7837651E+02  0.7818608E-02  0.1381498E+00
          2   -1    0    0  502    0  0.00000000000E+00  0.00000000000E+00  0.31358745036E+03  0.31358745036E+03  0.00000000000E+00 0. -1.
          1   -1    0    0  501    0 -0.00000000000E+00 -0.00000000000E+00 -0.19641264269E+03  0.19641264269E+03  0.00000000000E+00 0. -1.
         25    2    1    2    0    0  0.76988295184E+02  0.17885727938E+02 -0.26911716960E+02  0.15031112943E+03  0.12498839250E+03 0.  0.
          2    1    1    2  501    0 -0.51361239858E+02 -0.63565904836E+02 -0.88977287522E+02  0.12081208099E+03  0.00000000000E+00 0. -1.
          1    1    1    2  502    0 -0.25627055326E+02  0.45680176898E+02  0.23306381214E+03  0.23887688264E+03  0.00000000000E+00 0. -1.
         22    1    3    3    0    0  0.19787073097E+02 -0.33870076166E+02  0.34086835163E+02  0.51967515360E+02  0.00000000000E+00 0. -1.
         22    1    3    3    0    0  0.57201222087E+02  0.51755804104E+02 -0.60998552123E+02  0.98343614067E+02  0.00000000000E+00 0. -1.
</event>
<event>
 7    1  0.5970484E-006  0.7723893E+02  0.7818608E-02  0.1421663E+00
          2   -1    0    0  502    0  0.00000000000E+00  0.00000000000E+00  0.15403569482E+04  0.15403569482E+04  0.00000000000E+00 0. -1.
          1   -1    0    0  501    0 -0.00000000000E+00 -0.00000000000E+00 -0.20383069158E+04  0.20383069158E+04  0.00000000000E+00 0. -1.
         25    2    1    2    0    0 -0.90676457933E+02  0.59194203369E+02 -0.94426328775E+02  0.19043754767E+03  0.12499581698E+03 0.  0.
          2    1    1    2  501    0  0.72614129035E+02 -0.24971978928E+02 -0.18948463650E+04  0.18964016343E+04  0.00000000000E+00 0. -1.
          1    1    1    2  502    0  0.18062328898E+02 -0.34222224441E+02  0.14913227262E+04  0.14918246820E+04  0.00000000000E+00 0. -1.
         22    1    3    3    0    0  0.31401468223E+01  0.40020480592E+02 -0.85267568840E+02  0.94244669264E+02  0.00000000000E+00 0. -1.
         22    1    3    3    0    0 -0.93816604756E+02  0.19173722777E+02 -0.91587599355E+01  0.96192878409E+02  0.00000000000E+00 0. -1.
</event>
<event>
 7    1  0.5970484E-006  0.6460317E+02  0.7818608E-02  0.1423085E+00
          2   -1    0    0  502    0  0.00000000000E+00  0.00000000000E+00  0.36577790831E+03  0.36577790831E+03  0.00000000000E+00 0. -1.
          1   -1    0    0  501    0 -0.00000000000E+00 -0.00000000000E+00 -0.14186395971E+04  0.14186395971E+04  0.00000000000E+00 0. -1.
         25    2    1    2    0    0  0.25039364769E+02  0.22713874435E+01 -0.98604110435E+02  0.16118364694E+03  0.12500107383E+03 0.  0.
          2    1    1    2  501    0  0.28413279593E+02  0.35874843924E+02 -0.12851114244E+04  0.12859260056E+04  0.00000000000E+00 0. -1.
          1    1    1    2  502    0 -0.53452644361E+02 -0.38146231368E+02  0.33085384603E+03  0.33730785284E+03  0.00000000000E+00 0. -1.
         22    1    3    3    0    0  0.46636739134E+02  0.54050186105E+02 -0.54075635280E+02  0.89557704225E+02  0.00000000000E+00 0. -1.
         22    1    3    3    0    0 -0.21597374365E+02 -0.51778798662E+02 -0.44528475155E+02  0.71625942716E+02  0.00000000000E+00 0. -1.
</event>
<event>
 7    1  0.5970484E-006  0.6615662E+02  0.7818608E-02  0.1446692E+00
          2   -1    0    0  502    0  0.00000000000E+00  0.00000000000E+00  0.71109020373E+03  0.71109020373E+03  0.00000000000E+00 0. -1.
          1   -1    0    0  501    0 -0.00000000000E+00 -0.00000000000E+00 -0.62512132902E+03  0.62512132902E+03  0.00000000000E+00 0. -1.
         25    2    1    2    0    0  0.62256375529E+02  0.50841349241E+02  0.15931598499E+03  0.21786987910E+03  0.12500000823E+03 0.  0.
          2    1    1    2  501    0  0.20855856413E+01 -0.37354723863E+02 -0.59318486637E+03  0.59436353418E+03  0.00000000000E+00 0. -1.
          1    1    1    2  502    0 -0.64341961170E+02 -0.13486625378E+02  0.51983775609E+03  0.52397811948E+03  0.00000000000E+00 0. -1.
         22    1    3    3    0    0 -0.15873091247E+02 -0.24030541839E+02  0.76078058886E+02  0.81346745544E+02  0.00000000000E+00 0.  1.
         22    1    3    3    0    0  0.78129466776E+02  0.74871891080E+02  0.83237926106E+02  0.13652313355E+03  0.00000000000E+00 0.  1.
</event>
<event>
 7    1  0.5970484E-006  0.9015881E+02  0.7818608E-02  0.1443731E+00
          2   -1    0    0  502    0  0.00000000000E+00  0.00000000000E+00  0.24875276080E+04  0.24875276080E+04  0.00000000000E+00 0. -1.
          1   -1    0    0  501    0 -0.00000000000E+00 -0.00000000000E+00 -0.20527511299E+02  0.20527511299E+02  0.00000000000E+00 0. -1.
         25    2    1    2    0    0 -0.25001820751E+02  0.79850861688E+02  0.15231736457E+04  0.15305829080E+04  0.12499932890E+03 0.  0.
          2    1    1    2  501    0 -0.75381082447E+00 -0.90992794523E+02  0.10821047280E+03  0.14138515944E+03  0.00000000000E+00 0. -1.
          1    1    1    2  502    0  0.25755631576E+02  0.11141932835E+02  0.83561597824E+03  0.83608705188E+03  0.00000000000E+00 0. -1.
         22    1    3    3    0    0 -0.35593176848E+02  0.71174429611E+02  0.42868352911E+03  0.43600715797E+03  0.00000000000E+00 0.  1.
         22    1    3    3    0    0  0.10591356096E+02  0.86764320767E+01  0.10944901166E+04  0.10945757500E+04  0.00000000000E+00 0.  1.
</event>
<event>
 7    1  0.5970484E-006  0.1023385E+03  0.7818608E-02  0.1332950E+00
          2   -1    0    0  502    0  0.00000000000E+00  0.00000000000E+00  0.22837231459E+04  0.22837231459E+04  0.00000000000E+00 0. -1.
          1   -1    0    0  501    0 -0.00000000000E+00 -0.00000000000E+00 -0.79403484376E+02  0.79403484376E+02  0.00000000000E+00 0. -1.
         25    2    1    2    0    0  0.40540220433E+02  0.71696740923E+02  0.10505659794E+03  0.18287222770E+03  0.12498572222E+03 0.  0.
          2    1    1    2  501    0  0.53398557690E+02 -0.28296441173E+02 -0.15957710459E+02  0.62503944432E+02  0.00000000000E+00 0. -1.
          1    1    1    2  502    0 -0.93938778123E+02 -0.43400299750E+02  0.21152207741E+04  0.21177504582E+04  0.00000000000E+00 0. -1.
         22    1    3    3    0    0  0.50069016855E+02  0.15020445194E+02 -0.10951525784E+02  0.53408390161E+02  0.00000000000E+00 0.  1.
         22    1    3    3    0    0 -0.95287964221E+01  0.56676295729E+02  0.11600812373E+03  0.12946383754E+03  0.00000000000E+00 0.  1.
</event>
<event>
 7    1  0.5970484E-006  0.1077396E+03  0.7818608E-02  0.1306121E+00
          2   -1    0    0  502    0  0.00000000000E+00  0.00000000000E+00  0.13866045633E+04  0.13866045633E+04  0.00000000000E+00 0. -1.
          1   -1    0    0  501    0 -0.00000000000E+00 -0.00000000000E+00 -0.57855620589E+02  0.57855620589E+02  0.00000000000E+00 0. -1.
         25    2    1    2    0    0  0.99985827766E+02 -0.10839547879E+03  0.34130138142E+03  0.39224768519E+03  0.12499947199E+03 0.  0.
          2    1    1    2  501    0 -0.27829023725E+02  0.97566910773E+02  0.52155601483E+02  0.11407875966E+03  0.00000000000E+00 0. -1.
          1    1    1    2  502    0 -0.72156804040E+02  0.10828568014E+02  0.93529195979E+03  0.93813373902E+03  0.00000000000E+00 0. -1.
         22    1    3    3    0    0  0.54980971191E+02  0.92631434843E+01  0.50065767365E+02  0.74935265944E+02  0.00000000000E+00 0. -1.
         22    1    3    3    0    0  0.45004856575E+02 -0.11765862227E+03  0.29123561406E+03  0.31731241924E+03  0.00000000000E+00 0. -1.
</event>
<event>
 7    1  0.5970484E-006  0.1411202E+03  0.7818608E-02  0.1368424E+00
          2   -1    0    0  502    0  0.00000000000E+00  0.00000000000E+00  0.12543865916E+04  0.12543865916E+04  0.00000000000E+00 0. -1.
          1   -1    0    0  501    0 -0.00000000000E+00 -0.00000000000E+00 -0.42674562704E+03  0.42674562704E+03  0.00000000000E+00 0. -1.
         25    2    1    2    0    0  0.98460662274E+02 -0.12386139971E+03  0.74112716302E+03  0.76806923601E+03  0.12499892477E+03 0.  0.
          2    1    1    2  501    0 -0.56531188907E+01  0.31891952367E+02 -0.40407607468E+03  0.40537208650E+03  0.00000000000E+00 0. -1.
          1    1    1    2  502    0 -0.92807543383E+02  0.91969447344E+02  0.49058987618E+03  0.50769089608E+03  0.00000000000E+00 0. -1.
         22    1    3    3    0    0  0.43499678234E+02  0.15964455199E+02  0.25775410249E+03  0.26188597364E+03  0.00000000000E+00 0. -1.
         22    1    3    3    0    0  0.54960984040E+02 -0.13982585491E+03  0.48337306052E+03  0.50618326237E+03  0.00000000000E+00 0. -1.
</event>
<event>
 7    1  0.5970484E-006  0.6321944E+02  0.7818608E-02  0.1467374E+00
          2   -1    0    0  502    0  0.00000000000E+00  0.00000000000E+00  0.10651004139E+04  0.10651004139E+04  0.00000000000E+00 0. -1.
          1   -1    0    0  501    0 -0.00000000000E+00 -0.00000000000E+00 -0.68602505084E+02  0.68602505084E+02  0.00000000000E+00 0. -1.
         25    2    1    2    0    0 -0.31704603677E+02 -0.81151644059E+01  0.41821415969E+03  0.43772241597E+03  0.12500716898E+03 0.  0.
          2    1    1    2  501    0  0.56882684753E+02  0.30467419154E+02 -0.40563040513E+02  0.76218526031E+02  0.00000000000E+00 0. -1.
          1    1    1    2  502    0 -0.25178081076E+02 -0.22352254749E+02  0.61884678961E+03  0.61976197694E+03  0.00000000000E+00 0. -1.
         22    1    3    3    0    0 -0.63343795753E+02 -0.47155479943E+02  0.25541034197E+03  0.26733970625E+03  0.00000000000E+00 0.  1.
         22    1    3    3    0    0  0.31639192075E+02  0.39040315537E+02  0.16280381771E+03  0.17038270973E+03  0.00000000000E+00 0.  1.
</event>
<event>
 7    1  0.5970484E-006  0.1149088E+03  0.7818608E-02  0.1324425E+00
          2   -1    0    0  502    0  0.00000000000E+00  0.00000000000E+00  0.61998172328E+03  0.61998172328E+03  0.00000000000E+00 0. -1.
          1   -1    0    0  501    0 -0.00000000000E+00 -0.00000000000E+00 -0.51459785628E+03  0.51459785628E+03  0.00000000000E+00 0. -1.
         25    2    1    2    0    0 -0.10333642956E+03  0.10398035290E+03  0.98687775027E+02  0.21645990455E+03  0.12500112750E+03 0.  0.
          2    1    1    2  501    0  0.58006683384E+02 -0.13280555252E+01 -0.44700109767E+03  0.45075106252E+03  0.00000000000E+00 0. -1.
          1    1    1    2  502    0  0.45329746178E+02 -0.10265229737E+03  0.45369718964E+03  0.46736861248E+03  0.00000000000E+00 0. -1.
         22    1    3    3    0    0 -0.12331918717E+03  0.11198835748E+03  0.70236859724E+02  0.18078227402E+03  0.00000000000E+00 0. -1.
         22    1    3    3    0    0  0.19982757611E+02 -0.80080045802E+01  0.28450915303E+02  0.35677630536E+02  0.00000000000E+00 0. -1.
</event>
<event>
 7    1  0.5970484E-006  0.7907376E+02  0.7818608E-02  0.1411573E+00
          2   -1    0    0  502    0  0.00000000000E+00  0.00000000000E+00  0.12946636545E+03  0.12946636545E+03  0.00000000000E+00 0. -1.
          1   -1    0    0  501    0 -0.00000000000E+00 -0.00000000000E+00 -0.34735453371E+03  0.34735453371E+03  0.00000000000E+00 0. -1.
         25    2    1    2    0    0  0.27890602634E+02  0.32945661357E+02 -0.25488954805E+03  0.28715409511E+03  0.12500196124E+03 0.  0.
          2    1    1    2  501    0  0.38419007966E+02  0.13922962769E+02 -0.53990364418E+02  0.67711361789E+02  0.00000000000E+00 0. -1.
          1    1    1    2  502    0 -0.66309610600E+02 -0.46868624126E+02  0.90991744199E+02  0.12195544226E+03  0.00000000000E+00 0. -1.
         22    1    3    3    0    0 -0.87768158964E+01  0.74058924352E+02 -0.17376799578E+03  0.18909540749E+03  0.00000000000E+00 0.  1.
         22    1    3    3    0    0  0.36667418531E+02 -0.41113262994E+02 -0.81121552265E+02  0.98058687620E+02  0.00000000000E+00 0.  1.
</event>
<event>
 7    1  0.5970484E-006  0.9591448E+02  0.7818608E-02  0.1345323E+00
          2   -1    0    0  502    0  0.00000000000E+00  0.00000000000E+00  0.35371467505E+03  0.35371467505E+03  0.00000000000E+00 0. -1.
          1   -1    0    0  501    0 -0.00000000000E+00 -0.00000000000E+00 -0.94335583014E+03  0.94335583014E+03  0.00000000000E+00 0. -1.
         25    2    1    2    0    0  0.23581959694E+02 -0.13098510274E+03 -0.79045209011E+02  0.19896434279E+03  0.12500183468E+03 0.  0.
          2    1    1    2  501    0 -0.50767528609E+02  0.79843714775E+02 -0.79867632831E+03  0.80426129968E+03  0.00000000000E+00 0. -1.
          1    1    1    2  502    0  0.27185568915E+02  0.51141387961E+02  0.28808038223E+03  0.29384486272E+03  0.00000000000E+00 0. -1.
         22    1    3    3    0    0 -0.22906063353E+02 -0.46242790581E+02  0.24664706056E+02  0.57196425971E+02  0.00000000000E+00 0.  1.
         22    1    3    3    0    0  0.46488023047E+02 -0.84742312155E+02 -0.10370991507E+03  0.14176791682E+03  0.00000000000E+00 0.  1.
</event>
<event>
 7    1  0.5970484E-006  0.2995229E+02  0.7818608E-02  0.1647747E+00
          2   -1    0    0  502    0  0.00000000000E+00  0.00000000000E+00  0.12834998315E+02  0.12834998315E+02  0.00000000000E+00 0. -1.
          1   -1    0    0  501    0 -0.00000000000E+00 -0.00000000000E+00 -0.19418537256E+04  0.19418537256E+04  0.00000000000E+00 0. -1.
         25    2    1    2    0    0 -0.44803126852E+02  0.19012938757E+02 -0.87056731590E+03  0.88084134846E+03  0.12500087053E+03 0.  0.
          2    1    1    2  501    0  0.29148177352E+02 -0.28812751482E+01 -0.10490869536E+04  0.10494957619E+04  0.00000000000E+00 0. -1.
          1    1    1    2  502    0  0.15654949500E+02 -0.16131663609E+02 -0.93644578080E+01  0.24351613595E+02  0.00000000000E+00 0. -1.
         22    1    3    3    0    0 -0.71181968474E+02  0.50718819125E+02 -0.46179113269E+03  0.46998970359E+03  0.00000000000E+00 0.  1.
         22    1    3    3    0    0  0.26378841622E+02 -0.31705880368E+02 -0.40877618320E+03  0.41085164487E+03  0.00000000000E+00 0.  1.
</event>
<event>
 7    1  0.5970484E-006  0.1125846E+03  0.7818608E-02  0.1368561E+00
          2   -1    0    0  502    0  0.00000000000E+00  0.00000000000E+00  0.10200700882E+04  0.10200700882E+04  0.00000000000E+00 0. -1.
          1   -1    0    0  501    0 -0.00000000000E+00 -0.00000000000E+00 -0.38591325088E+03  0.38591325088E+03  0.00000000000E+00 0. -1.
         25    2    1    2    0    0 -0.11167872865E+03 -0.87584226843E+01  0.17427804150E+03  0.24196258969E+03  0.12499684260E+03 0.  0.
          2    1    1    2  501    0  0.10212357951E+03  0.48168806907E+02 -0.34249254806E+03  0.36062529712E+03  0.00000000000E+00 0. -1.
          1    1    1    2  502    0  0.95551491429E+01 -0.39410384223E+02  0.80237134389E+03  0.80339545228E+03  0.00000000000E+00 0. -1.
         22    1    3    3    0    0 -0.32077567798E+02 -0.43669241699E+02  0.85927157948E+01  0.54861715168E+02  0.00000000000E+00 0.  1.
         22    1    3    3    0    0 -0.79601160856E+02  0.34910819015E+02  0.16568532571E+03  0.18710087453E+03  0.00000000000E+00 0.  1.
</event>
<event>
 7    1  0.5970484E-006  0.9859333E+02  0.7818608E-02  0.1400306E+00
          2   -1    0    0  502    0  0.00000000000E+00  0.00000000000E+00  0.11618006773E+04  0.11618006773E+04  0.00000000000E+00 0. -1.
          1   -1    0    0  501    0 -0.00000000000E+00 -0.00000000000E+00 -0.81244485066E+02  0.81244485066E+02  0.00000000000E+00 0. -1.
         25    2    1    2    0    0 -0.77146265266E+02  0.38660602380E+02  0.14999155960E+03  0.21346991452E+03  0.12500299209E+03 0.  0.
          2    1    1    2  501    0  0.91050785725E+01  0.34627339566E+02 -0.40108234622E+02  0.53764538367E+02  0.00000000000E+00 0. -1.
          1    1    1    2  502    0  0.68041186693E+02 -0.73287941946E+02  0.97067286723E+03  0.97581070946E+03  0.00000000000E+00 0. -1.
         22    1    3    3    0    0 -0.95732778551E+02 -0.13239470633E+02  0.91350420943E+02  0.13298476559E+03  0.00000000000E+00 0.  1.
         22    1    3    3    0    0  0.18586513285E+02  0.51900073013E+02  0.58641138661E+02  0.80485148930E+02  0.00000000000E+00 0.  1.
</event>
<event>
 7    1  0.5970484E-006  0.1181942E+03  0.7818608E-02  0.1297700E+00
          2   -1    0    0  502    0  0.00000000000E+00  0.00000000000E+00  0.21112605906E+04  0.21112605906E+04  0.00000000000E+00 0. -1.
          1   -1    0    0  501    0 -0.00000000000E+00 -0.00000000000E+00 -0.19742378164E+03  0.19742378164E+03  0.00000000000E+00 0. -1.
         25    2    1    2    0    0 -0.19364875162E+02  0.12013553910E+03  0.48815438943E+03  0.51838947287E+03  0.12500156605E+03 0.  0.
          2    1    1    2  501    0 -0.51326998428E+02 -0.10721605989E+03 -0.16203034155E+03  0.20095665167E+03  0.00000000000E+00 0. -1.
          1    1    1    2  502    0  0.70691873590E+02 -0.12919479216E+02  0.15877127611E+04  0.15893382477E+04  0.00000000000E+00 0. -1.
         22    1    3    3    0    0 -0.44998113586E+02 -0.63045070737E+01  0.12772756930E+03  0.13556883490E+03  0.00000000000E+00 0.  1.
         22    1    3    3    0    0  0.25633238424E+02  0.12644004618E+03  0.36042682013E+03  0.38282063797E+03  0.00000000000E+00 0.  1.
</event>
<event>
 7    1  0.5970484E-006  0.1248043E+03  0.7818608E-02  0.1242627E+00
          2   -1    0    0  502    0  0.00000000000E+00  0.00000000000E+00  0.54011071149E+03  0.54011071149E+03  0.00000000000E+00 0. -1.
          1   -1    0    0  501    0 -0.00000000000E+00 -0.00000000000E+00 -0.26603835810E+03  0.26603835810E+03  0.00000000000E+00 0. -1.
         25    2    1    2    0    0 -0.21711602936E+02 -0.58909809799E+01  0.74173032034E+02  0.14708019680E+03  0.12499939300E+03 0.  0.
          2    1    1    2  501    0  0.40359815133E+02  0.12929417825E+03 -0.19921323544E+03  0.24089792939E+03  0.00000000000E+00 0. -1.
          1    1    1    2  502    0 -0.18648212197E+02 -0.12340319727E+03  0.39911255679E+03  0.41817094340E+03  0.00000000000E+00 0. -1.
         22    1    3    3    0    0 -0.68281747756E+00  0.52293177695E+02  0.24420879271E+01  0.52354622209E+02  0.00000000000E+00 0.  1.
         22    1    3    3    0    0 -0.21028785458E+02 -0.58184158675E+02  0.71730944107E+02  0.94725574588E+02  0.00000000000E+00 0.  1.
</event>
<event>
 7    1  0.5970484E-006  0.5699083E+02  0.7818608E-02  0.1555735E+00
          2   -1    0    0  502    0  0.00000000000E+00  0.00000000000E+00  0.71082096519E+03  0.71082096519E+03  0.00000000000E+00 0. -1.
          1   -1    0    0  501    0 -0.00000000000E+00 -0.00000000000E+00 -0.27032394528E+03  0.27032394528E+03  0.00000000000E+00 0. -1.
         25    2    1    2    0    0  0.42929582661E+02 -0.37070445542E+02  0.30898847302E+03  0.33810570064E+03  0.12499768539E+03 0.  0.
          2    1    1    2  501    0 -0.15501178357E+02 -0.13467877979E+02 -0.25321296841E+03  0.25404424347E+03  0.00000000000E+00 0. -1.
          1    1    1    2  502    0 -0.27428404304E+02  0.50538323521E+02  0.38472151531E+03  0.38899496635E+03  0.00000000000E+00 0. -1.
         22    1    3    3    0    0 -0.91348663373E+01 -0.72547596936E+02  0.14408931381E+03  0.16158072273E+03  0.00000000000E+00 0.  1.
         22    1    3    3    0    0  0.52064448998E+02  0.35477151394E+02  0.16489915921E+03  0.17652497791E+03  0.00000000000E+00 0.  1.
</event>
<event>
 7    1  0.5970484E-006  0.1428424E+03  0.7818608E-02  0.1332525E+00
          2   -1    0    0  502    0  0.00000000000E+00  0.00000000000E+00  0.25775228747E+03  0.25775228747E+03  0.00000000000E+00 0. -1.
          1   -1    0    0  501    0 -0.00000000000E+00 -0.00000000000E+00 -0.25315751156E+04  0.25315751156E+04  0.00000000000E+00 0. -1.
         25    2    1    2    0    0 -0.11004061142E+03 -0.19709884899E+02 -0.18013623770E+02  0.16866188978E+03  0.12499970679E+03 0.  0.
          2    1    1    2  501    0 -0.43072696242E+02  0.57738523402E+01 -0.24056127847E+04  0.24060052919E+04  0.00000000000E+00 0. -1.
          1    1    1    2  502    0  0.15311330766E+03  0.13936032559E+02  0.14980358034E+03  0.21466022144E+03  0.00000000000E+00 0. -1.
         22    1    3    3    0    0 -0.90658252723E+01 -0.53387803773E+02  0.16754127132E+02  0.56684632446E+02  0.00000000000E+00 0.  1.
         22    1    3    3    0    0 -0.10097478614E+03  0.33677918874E+02 -0.34767750903E+02  0.11197725733E+03  0.00000000000E+00 0.  1.
</event>
<event>
 7    1  0.5970484E-006  0.8071631E+02  0.7818608E-02  0.1346408E+00
          2   -1    0    0  502    0  0.00000000000E+00  0.00000000000E+00  0.30427658701E+03  0.30427658701E+03  0.00000000000E+00 0. -1.
          1   -1    0    0  501    0 -0.00000000000E+00 -0.00000000000E+00 -0.11211661887E+03  0.11211661887E+03  0.00000000000E+00 0. -1.
         25    2    1    2    0    0  0.41610858068E+02 -0.24345731013E+01  0.18067418011E+03  0.22362027753E+03  0.12500191402E+03 0.  0.
          2    1    1    2  501    0 -0.60364593517E+02 -0.63121299438E+02 -0.50274094323E+02  0.10077533008E+03  0.00000000000E+00 0. -1.
          1    1    1    2  502    0  0.18753735449E+02  0.65555872540E+02  0.61759882353E+02  0.91997598262E+02  0.00000000000E+00 0. -1.
         22    1    3    3    0    0  0.57059445528E+02 -0.53616257584E+02  0.10860797757E+03  0.13388867089E+03  0.00000000000E+00 0. -1.
         22    1    3    3    0    0 -0.15448587459E+02  0.51181684483E+02  0.72066202537E+02  0.89731606634E+02  0.00000000000E+00 0. -1.
</event>
<event>
 7    1  0.8142182E-006  0.4440299E+02  0.7818608E-02  0.1531200E+00
          2   -1    0    0  502    0  0.00000000000E+00  0.00000000000E+00  0.18010548376E+04  0.18010548376E+04  0.00000000000E+00 0. -1.
          1   -1    0    0  501    0 -0.00000000000E+00 -0.00000000000E+00 -0.90463614330E+03  0.90463614330E+03  0.00000000000E+00 0. -1.
         25    2    1    2    0    0 -0.28310490526E+02 -0.55652775184E+02 -0.18620019165E+03  0.23279341079E+03  0.12499418177E+03 0.  0.
          2    1    1    2  501    0 -0.33076395915E+00  0.44062791009E+02 -0.69430661409E+03  0.69570346651E+03  0.00000000000E+00 0. -1.
          1    1    1    2  502    0  0.28641254485E+02  0.11589984175E+02  0.17769255000E+04  0.17771941036E+04  0.00000000000E+00 0. -1.
         22    1    3    3    0    0 -0.72511196294E+02 -0.29191125635E+02 -0.67052863190E+02  0.10298583333E+03  0.00000000000E+00 0.  1.
         22    1    3    3    0    0  0.44200705768E+02 -0.26461649549E+02 -0.11914732846E+03  0.12980757746E+03  0.00000000000E+00 0.  1.
</event>
<event>
 7    1  0.5970484E-006  0.2770532E+02  0.7818608E-02  0.1633607E+00
          2   -1    0    0  502    0  0.00000000000E+00  0.00000000000E+00  0.99819456545E+03  0.99819456545E+03  0.00000000000E+00 0. -1.
          1   -1    0    0  501    0 -0.00000000000E+00 -0.00000000000E+00 -0.22551293534E+03  0.22551293534E+03  0.00000000000E+00 0. -1.
         25    2    1    2    0    0  0.49429634007E+01 -0.39856779789E+02 -0.40747521500E+02  0.13747426281E+03  0.12500326653E+03 0.  0.
          2    1    1    2  501    0 -0.20451228225E+02  0.18557740744E+02 -0.13481940689E+03  0.13761873038E+03  0.00000000000E+00 0. -1.
          1    1    1    2  502    0  0.15508264825E+02  0.21299039044E+02  0.94824855850E+03  0.94861450760E+03  0.00000000000E+00 0. -1.
         22    1    3    3    0    0  0.12450908462E+02 -0.10325304976E+02 -0.83456560925E+02  0.85009614784E+02  0.00000000000E+00 0. -1.
         22    1    3    3    0    0 -0.75079450611E+01 -0.29531474813E+02  0.42709039424E+02  0.52464648024E+02  0.00000000000E+00 0. -1.
</event>
<event>
 7    1  0.5970484E-006  0.8105830E+02  0.7818608E-02  0.1357122E+00
          2   -1    0    0  502    0  0.00000000000E+00  0.00000000000E+00  0.33087500422E+04  0.33087500422E+04  0.00000000000E+00 0. -1.
          1   -1    0    0  501    0 -0.00000000000E+00 -0.00000000000E+00 -0.40249576286E+02  0.40249576286E+02  0.00000000000E+00 0. -1.
         25    2    1    2    0    0  0.23292750870E+02 -0.98708795780E+02  0.13034188143E+04  0.13133208802E+04  0.12500060026E+03 0.  0.
          2    1    1    2  501    0  0.39318681165E+02  0.47914478333E+02 -0.66154449208E+01  0.62333939663E+02  0.00000000000E+00 0. -1.
          1    1    1    2  502    0 -0.62611432035E+02  0.50794317447E+02  0.19716970965E+04  0.19733447987E+04  0.00000000000E+00 0. -1.
         22    1    3    3    0    0  0.15758075409E+02 -0.81623460846E+02  0.35066243109E+03  0.36038152960E+03  0.00000000000E+00 0. -1.
         22    1    3    3    0    0  0.75346754604E+01 -0.17085334934E+02  0.95275638326E+03  0.95293935056E+03  0.00000000000E+00 0. -1.
</event>
<event>
 7    1  0.5970484E-006  0.5641482E+02  0.7818608E-02  0.1413577E+00
          2   -1    0    0  502    0  0.00000000000E+00  0.00000000000E+00  0.81383395989E+03  0.81383395989E+03  0.00000000000E+00 0. -1.
          1   -1    0    0  501    0 -0.00000000000E+00 -0.00000000000E+00 -0.18670328023E+03  0.18670328023E+03  0.00000000000E+00 0. -1.
         25    2    1    2    0    0 -0.24827299581E+02 -0.59680665693E+02  0.32627646390E+03  0.35533081162E+03  0.12500191250E+03 0.  0.
          2    1    1    2  501    0  0.55519828161E+02  0.10009004405E+02 -0.16568574364E+03  0.17502684689E+03  0.00000000000E+00 0. -1.
          1    1    1    2  502    0 -0.30692528580E+02  0.49671661288E+02  0.46653995939E+03  0.47017958160E+03  0.00000000000E+00 0. -1.
         22    1    3    3    0    0  0.22402948833E+01  0.36027898674E+02  0.49792005299E+02  0.61500180452E+02  0.00000000000E+00 0.  1.
         22    1    3    3    0    0 -0.27067594464E+02 -0.95708564366E+02  0.27648445861E+03  0.29383063117E+03  0.00000000000E+00 0.  1.
</event>
<event>
 7    1  0.5970484E-006  0.1507432E+03  0.7818608E-02  0.1258783E+00
          2   -1    0    0  502    0  0.00000000000E+00  0.00000000000E+00  0.10245567631E+04  0.10245567631E+04  0.00000000000E+00 0. -1.
          1   -1    0    0  501    0 -0.00000000000E+00 -0.00000000000E+00 -0.70519936101E+03  0.70519936101E+03  0.00000000000E+00 0. -1.
         25    2    1    2    0    0  0.15428099690E+03  0.12249220635E+03  0.35845123562E+03  0.42769400135E+03  0.12501161487E+03 0.  0.
          2    1    1    2  501    0 -0.73042428871E+02 -0.13108591923E+03 -0.65947130152E+03  0.67632914485E+03  0.00000000000E+00 0. -1.
          1    1    1    2  502    0 -0.81238568031E+02  0.85937128814E+01  0.62037746797E+03  0.62573297787E+03  0.00000000000E+00 0. -1.
         22    1    3    3    0    0  0.90758796026E+02  0.13083861687E+02  0.79368666080E+02  0.12127543712E+03  0.00000000000E+00 0.  1.
         22    1    3    3    0    0  0.63522200876E+02  0.10940834466E+03  0.27908256954E+03  0.30641856423E+03  0.00000000000E+00 0.  1.
</event>
<event>
 7    1  0.5970484E-006  0.6492146E+02  0.7818608E-02  0.1433151E+00
          2   -1    0    0  502    0  0.00000000000E+00  0.00000000000E+00  0.64348544210E+03  0.64348544210E+03  0.00000000000E+00 0. -1.
          1   -1    0    0  501    0 -0.00000000000E+00 -0.00000000000E+00 -0.37936857651E+03  0.37936857651E+03  0.00000000000E+00 0. -1.
         25    2    1    2    0    0  0.32067543376E+02  0.13397392433E+02  0.32891477626E+02  0.13384584431E+03  0.12500017311E+03 0.  0.
          2    1    1    2  501    0 -0.36646788161E+02 -0.55332960670E+02 -0.32473600947E+03  0.33144863775E+03  0.00000000000E+00 0. -1.
          1    1    1    2  502    0  0.45792447848E+01  0.41935568237E+02  0.55596139743E+03  0.55755953655E+03  0.00000000000E+00 0. -1.
         22    1    3    3    0    0  0.78880857774E+02 -0.56443396060E+01  0.17240317087E+02  0.80939958154E+02  0.00000000000E+00 0. -1.
         22    1    3    3    0    0 -0.46813314398E+02  0.19041732039E+02  0.15651160539E+02  0.52905886158E+02  0.00000000000E+00 0. -1.
</event>
<event>
 7    1  0.5970484E-006  0.1256456E+03  0.7818608E-02  0.1331818E+00
          2   -1    0    0  502    0  0.00000000000E+00  0.00000000000E+00  0.25001274034E+04  0.25001274034E+04  0.00000000000E+00 0. -1.
          1   -1    0    0  501    0 -0.00000000000E+00 -0.00000000000E+00 -0.39688185111E+03  0.39688185111E+03  0.00000000000E+00 0. -1.
         25    2    1    2    0    0 -0.75319527490E+02 -0.54634796180E+02  0.66249376273E+03  0.68057411852E+03  0.12500061186E+03 0.  0.
          2    1    1    2  501    0  0.71268812535E+02  0.10418235565E+03 -0.37722244639E+03  0.39778132300E+03  0.00000000000E+00 0. -1.
          1    1    1    2  502    0  0.40507149550E+01 -0.49547559467E+02  0.18179742360E+04  0.18186538130E+04  0.00000000000E+00 0. -1.
         22    1    3    3    0    0 -0.46549522282E+02  0.35981232895E+02  0.30698933292E+03  0.31257632295E+03  0.00000000000E+00 0.  1.
         22    1    3    3    0    0 -0.28770005207E+02 -0.90616029075E+02  0.35550442982E+03  0.36799779557E+03  0.00000000000E+00 0.  1.
</event>
<event>
 7    1  0.5970484E-006  0.6996691E+02  0.7818608E-02  0.1509480E+00
          2   -1    0    0  502    0  0.00000000000E+00  0.00000000000E+00  0.36600528102E+03  0.36600528102E+03  0.00000000000E+00 0. -1.
          1   -1    0    0  501    0 -0.00000000000E+00 -0.00000000000E+00 -0.67379230548E+03  0.67379230548E+03  0.00000000000E+00 0. -1.
         25    2    1    2    0    0  0.56715724596E+02 -0.67300415159E+02 -0.31437679086E+02  0.15607557056E+03  0.12500094704E+03 0.  0.
          2    1    1    2  501    0 -0.40729573442E+01  0.22303065749E+02 -0.57586154311E+03  0.57630767178E+03  0.00000000000E+00 0. -1.
          1    1    1    2  502    0 -0.52642767251E+02  0.44997349410E+02  0.29951219774E+03  0.30741434416E+03  0.00000000000E+00 0. -1.
         22    1    3    3    0    0 -0.24896877160E+02 -0.43774973715E+02  0.22820037936E+02  0.55288850119E+02  0.00000000000E+00 0.  1.
         22    1    3    3    0    0  0.81612601755E+02 -0.23525441444E+02 -0.54257717022E+02  0.10078672044E+03  0.00000000000E+00 0.  1.
</event>
<event>
 7    1  0.5970484E-006  0.4280683E+02  0.7818608E-02  0.1504518E+00
          2   -1    0    0  502    0  0.00000000000E+00  0.00000000000E+00  0.73632532341E+03  0.73632532341E+03  0.00000000000E+00 0. -1.
          1   -1    0    0  501    0 -0.00000000000E+00 -0.00000000000E+00 -0.18657943249E+03  0.18657943249E+03  0.00000000000E+00 0. -1.
         25    2    1    2    0    0  0.24960293427E+02 -0.71582661370E+02  0.30373746895E+03  0.33708829663E+03  0.12499990410E+03 0.  0.
          2    1    1    2  501    0  0.83182742418E-01  0.42565957713E+02 -0.16633516949E+03  0.17169524247E+03  0.00000000000E+00 0. -1.
          1    1    1    2  502    0 -0.25043476170E+02  0.29016703657E+02  0.41234359146E+03  0.41412121681E+03  0.00000000000E+00 0. -1.
         22    1    3    3    0    0 -0.25376672798E+02 -0.68173895655E+02  0.26106334255E+03  0.27100871645E+03  0.00000000000E+00 0. -1.
         22    1    3    3    0    0  0.50336966225E+02 -0.34087657144E+01  0.42674126405E+02  0.66079580181E+02  0.00000000000E+00 0. -1.
</event>
<event>
 7    1  0.5970484E-006  0.1278875E+03  0.7818608E-02  0.1305999E+00
          2   -1    0    0  502    0  0.00000000000E+00  0.00000000000E+00  0.74871371819E+03  0.74871371819E+03  0.00000000000E+00 0. -1.
          1   -1    0    0  501    0 -0.00000000000E+00 -0.00000000000E+00 -0.38535212336E+03  0.38535212336E+03  0.00000000000E+00 0. -1.
         25    2    1    2    0    0  0.17771418996E+03  0.36059371723E+02  0.20428973503E+03  0.30040281782E+03  0.12499978205E+03 0.  0.
          2    1    1    2  501    0 -0.60194871300E+02 -0.12787822697E+02 -0.32715618089E+03  0.33289355301E+03  0.00000000000E+00 0. -1.
          1    1    1    2  502    0 -0.11751931866E+03 -0.23271549026E+02  0.48622804069E+03  0.50076947072E+03  0.00000000000E+00 0. -1.
         22    1    3    3    0    0  0.16068337845E+03 -0.97010137479E+01  0.19102238924E+03  0.24980554632E+03  0.00000000000E+00 0.  1.
         22    1    3    3    0    0  0.17030811505E+02  0.45760385471E+02  0.13267345789E+02  0.50597271500E+02  0.00000000000E+00 0.  1.
</event>
<event>
 7    1  0.5970484E-006  0.3072917E+02  0.7818608E-02  0.1646403E+00
          2   -1    0    0  502    0  0.00000000000E+00  0.00000000000E+00  0.59526227802E+03  0.59526227802E+03  0.00000000000E+00 0. -1.
          1   -1    0    0  501    0 -0.00000000000E+00 -0.00000000000E+00 -0.19321841795E+04  0.19321841795E+04  0.00000000000E+00 0. -1.
         25    2    1    2    0    0  0.20530576032E+02 -0.30738674111E+02 -0.23055184148E+03  0.26484918245E+03  0.12499826877E+03 0.  0.
          2    1    1    2  501    0 -0.28949980262E+02  0.10328744548E+02 -0.16841325861E+04  0.16844130586E+04  0.00000000000E+00 0. -1.
          1    1    1    2  502    0  0.84194042299E+01  0.20409929564E+02  0.57776252613E+03  0.57818421648E+03  0.00000000000E+00 0. -1.
         22    1    3    3    0    0 -0.19996695723E+02 -0.68220647046E+02 -0.96358828351E+02  0.11974534782E+03  0.00000000000E+00 0.  1.
         22    1    3    3    0    0  0.40527271755E+02  0.37481972935E+02 -0.13419301313E+03  0.14510383463E+03  0.00000000000E+00 0.  1.
</event>
<event>
 7    1  0.5970484E-006  0.1552110E+03  0.7818608E-02  0.1296390E+00
          2   -1    0    0  502    0  0.00000000000E+00  0.00000000000E+00  0.25372903603E+04  0.25372903603E+04  0.00000000000E+00 0. -1.
          1   -1    0    0  501    0 -0.00000000000E+00 -0.00000000000E+00 -0.45141085554E+03  0.45141085554E+03  0.00000000000E+00 0. -1.
         25    2    1    2    0    0  0.93410078251E+02  0.11413546720E+03  0.39131066954E+03  0.43646447871E+03  0.12499941395E+03 0.  0.
          2    1    1    2  501    0 -0.13507392091E+03 -0.77633852845E+02 -0.41430828730E+03  0.44263228096E+03  0.00000000000E+00 0. -1.
          1    1    1    2  502    0  0.41663842657E+02 -0.36501614357E+02  0.21088771225E+04  0.21096044562E+04  0.00000000000E+00 0. -1.
         22    1    3    3    0    0  0.11032565230E+03  0.58072923227E+02  0.32447839711E+03  0.34760673780E+03  0.00000000000E+00 0. -1.
         22    1    3    3    0    0 -0.16915574051E+02  0.56062543976E+02  0.66832272422E+02  0.88857740910E+02  0.00000000000E+00 0. -1.
</event>
<event>
 7    1  0.5970484E-006  0.1184423E+03  0.7818608E-02  0.1276018E+00
          2   -1    0    0  502    0  0.00000000000E+00  0.00000000000E+00  0.16967262545E+04  0.16967262545E+04  0.00000000000E+00 0. -1.
          1   -1    0    0  501    0 -0.00000000000E+00 -0.00000000000E+00 -0.13271585494E+04  0.13271585494E+04  0.00000000000E+00 0. -1.
         25    2    1    2    0    0 -0.13021338415E+02 -0.13864477463E+03  0.44745065834E+02  0.19240341108E+03  0.12500009158E+03 0.  0.
          2    1    1    2  501    0 -0.69761873015E+02  0.53554109986E+02 -0.12495489967E+04  0.12526401945E+04  0.00000000000E+00 0. -1.
          1    1    1    2  502    0  0.82783211430E+02  0.85090664640E+02  0.15743716360E+04  0.15788411983E+04  0.00000000000E+00 0. -1.
         22    1    3    3    0    0 -0.27093585438E+02 -0.15051539348E+03  0.63979720160E+02  0.16577801615E+03  0.00000000000E+00 0.  1.
         22    1    3    3    0    0  0.14072247023E+02  0.11870618856E+02 -0.19234654325E+02  0.26625394933E+02  0.00000000000E+00 0.  1.
</event>
<event>
 7    1  0.5970484E-006  0.1209135E+03  0.7818608E-02  0.1426943E+00
          2   -1    0    0  502    0  0.00000000000E+00  0.00000000000E+00  0.58063671930E+03  0.58063671930E+03  0.00000000000E+00 0. -1.
          1   -1    0    0  501    0 -0.00000000000E+00 -0.00000000000E+00 -0.26857567590E+03  0.26857567590E+03  0.00000000000E+00 0. -1.
         25    2    1    2    0    0 -0.61298012848E+02 -0.78137813938E+02 -0.20824207508E+03  0.26240189790E+03  0.12500811911E+03 0.  0.
          2    1    1    2  501    0 -0.62469457374E+01 -0.22904823566E+02 -0.21203689801E+02  0.31831615335E+02  0.00000000000E+00 0. -1.
          1    1    1    2  502    0  0.67544958585E+02  0.10104263750E+03  0.54150680827E+03  0.55497888197E+03  0.00000000000E+00 0. -1.
         22    1    3    3    0    0 -0.68542090203E+02 -0.10263411114E+03 -0.20097266840E+03  0.23584272798E+03  0.00000000000E+00 0. -1.
         22    1    3    3    0    0  0.72440773549E+01  0.24496297202E+02 -0.72694066784E+01  0.26559169919E+02  0.00000000000E+00 0. -1.
</event>
<event>
 7    1  0.5970484E-006  0.8545935E+02  0.7818608E-02  0.1414199E+00
          2   -1    0    0  502    0  0.00000000000E+00  0.00000000000E+00  0.42942235405E+03  0.42942235405E+03  0.00000000000E+00 0. -1.
          1   -1    0    0  501    0 -0.00000000000E+00 -0.00000000000E+00 -0.24713348586E+04  0.24713348586E+04  0.00000000000E+00 0. -1.
         25    2    1    2    0    0  0.27522048356E+02 -0.96146483109E+02  0.42578638698E+02  0.16565213237E+03  0.12500431643E+03 0.  0.
          2    1    1    2  501    0  0.78221305008E+01  0.85043538765E+02 -0.24079838973E+04  0.24094978810E+04  0.00000000000E+00 0. -1.
          1    1    1    2  502    0 -0.35344178857E+02  0.11102944344E+02  0.32349275398E+03  0.32560719929E+03  0.00000000000E+00 0. -1.
         22    1    3    3    0    0  0.59109291586E+02 -0.10260707735E+01  0.81580001762E+01  0.59678422733E+02  0.00000000000E+00 0.  1.
         22    1    3    3    0    0 -0.31587243229E+02 -0.95120412335E+02  0.34420638522E+02  0.10597370964E+03  0.00000000000E+00 0.  1.
</event>
<event>
 7    1  0.5970484E-006  0.5672349E+02  0.7818608E-02  0.1439831E+00
          2   -1    0    0  502    0  0.00000000000E+00  0.00000000000E+00  0.50985435951E+03  0.50985435951E+03  0.00000000000E+00 0. -1.
          1   -1    0    0  501    0 -0.00000000000E+00 -0.00000000000E+00 -0.35614814490E+03  0.35614814490E+03  0.00000000000E+00 0. -1.
         25    2    1    2    0    0 -0.11981042463E+02 -0.22499069024E+02  0.30957048521E+03  0.33482583137E+03  0.12499879421E+03 0.  0.
          2    1    1    2  501    0 -0.46785490614E+02  0.32072915085E+02 -0.33636231939E+03  0.34111165902E+03  0.00000000000E+00 0. -1.
          1    1    1    2  502    0  0.58766533077E+02 -0.95738460618E+01  0.18049804879E+03  0.19006501402E+03  0.00000000000E+00 0. -1.
         22    1    3    3    0    0  0.68737437789E+01 -0.54465611059E+02  0.28517961521E+03  0.29041550247E+03  0.00000000000E+00 0.  1.
         22    1    3    3    0    0 -0.18854786242E+02  0.31966542035E+02  0.24390869995E+02  0.44410328900E+02  0.00000000000E+00 0.  1.
</event>
<event>
 7    1  0.5970484E-006  0.7592455E+02  0.7818608E-02  0.1499288E+00
          2   -1    0    0  502    0  0.00000000000E+00  0.00000000000E+00  0.44013279441E+02  0.44013279441E+02  0.00000000000E+00 0. -1.
          1   -1    0    0  501    0 -0.00000000000E+00 -0.00000000000E+00 -0.10236720385E+04  0.10236720385E+04  0.00000000000E+00 0. -1.
         25    2    1    2    0    0 -0.78128052165E+02  0.48897919994E+02 -0.44066097827E+03  0.46722832382E+03  0.12500083879E+03 0.  0.
          2    1    1    2  501    0  0.66969539688E+02 -0.29476184541E+02 -0.56293730378E+03  0.56767259287E+03  0.00000000000E+00 0. -1.
          1    1    1    2  502    0  0.11158512477E+02 -0.19421735453E+02  0.23939522955E+02  0.32784401291E+02  0.00000000000E+00 0. -1.
         22    1    3    3    0    0 -0.99787964433E+02  0.56828371390E+02 -0.24923780844E+03  0.27442045622E+03  0.00000000000E+00 0.  1.
         22    1    3    3    0    0  0.21659912268E+02 -0.79304513955E+01 -0.19142316983E+03  0.19280786760E+03  0.00000000000E+00 0.  1.
</event>
<event>
 7    1  0.5970484E-006  0.8092467E+02  0.7818608E-02  0.1366565E+00
          2   -1    0    0  502    0  0.00000000000E+00  0.00000000000E+00  0.88743274749E+03  0.88743274749E+03  0.00000000000E+00 0. -1.
          1   -1    0    0  501    0 -0.00000000000E+00 -0.00000000000E+00 -0.17239215566E+04  0.17239215566E+04  0.00000000000E+00 0. -1.
         25    2    1    2    0    0  0.25514200009E+02 -0.12548013199E+03  0.28213321461E+03  0.33409706481E+03  0.12500184000E+03 0.  0.
          2    1    1    2  501    0  0.97139923396E+01  0.80211820095E+02 -0.16955553753E+04  0.16974794044E+04  0.00000000000E+00 0. -1.
          1    1    1    2  502    0 -0.35228192349E+02  0.45268311894E+02  0.57693335159E+03  0.57977783484E+03  0.00000000000E+00 0. -1.
         22    1    3    3    0    0  0.76043883287E+02 -0.70723099906E+02  0.17747866221E+03  0.20562855975E+03  0.00000000000E+00 0.  1.
         22    1    3    3    0    0 -0.50529683278E+02 -0.54757032083E+02  0.10465455240E+03  0.12846850506E+03  0.00000000000E+00 0.  1.
</event>
<event>
 7    1  0.5970484E-006  0.1887774E+03  0.7818608E-02  0.1272065E+00
          2   -1    0    0  502    0  0.00000000000E+00  0.00000000000E+00  0.23384035575E+04  0.23384035575E+04  0.00000000000E+00 0. -1.
          1   -1    0    0  501    0 -0.00000000000E+00 -0.00000000000E+00 -0.52320408023E+03  0.52320408023E+03  0.00000000000E+00 0. -1.
         25    2    1    2    0    0 -0.15253372049E+03  0.77253478178E+02 -0.96290968509E+02  0.23266345704E+03  0.12500279136E+03 0.  0.
          2    1    1    2  501    0  0.14543005718E+03 -0.13412725909E+03 -0.33105579688E+03  0.38566561139E+03  0.00000000000E+00 0. -1.
          1    1    1    2  502    0  0.71036633049E+01  0.56873780912E+02  0.22425462427E+04  0.22432785693E+04  0.00000000000E+00 0. -1.
         22    1    3    3    0    0 -0.53992261967E+02  0.42848286819E+02 -0.10748727697E+03  0.12768968144E+03  0.00000000000E+00 0. -1.
         22    1    3    3    0    0 -0.98541458522E+02  0.34405191359E+02  0.11196308464E+02  0.10497377560E+03  0.00000000000E+00 0. -1.
</event>
<event>
 7    1  0.5970484E-006  0.7997578E+02  0.7818608E-02  0.1356498E+00
          2   -1    0    0  502    0  0.00000000000E+00  0.00000000000E+00  0.66755275471E+03  0.66755275471E+03  0.00000000000E+00 0. -1.
          1   -1    0    0  501    0 -0.00000000000E+00 -0.00000000000E+00 -0.36066309653E+03  0.36066309653E+03  0.00000000000E+00 0. -1.
         25    2    1    2    0    0  0.34208854908E+02  0.81809881663E+02  0.14681970528E+03  0.21223634765E+03  0.12500055565E+03 0.  0.
          2    1    1    2  501    0  0.40137500625E+02 -0.48757023399E+02 -0.32146991064E+03  0.32761436130E+03  0.00000000000E+00 0. -1.
          1    1    1    2  502    0 -0.74346355533E+02 -0.33052858264E+02  0.48153986354E+03  0.48836514228E+03  0.00000000000E+00 0. -1.
         22    1    3    3    0    0  0.11852231170E+02  0.11178217120E+03  0.88985163875E+02  0.14336697169E+03  0.00000000000E+00 0.  1.
         22    1    3    3    0    0  0.22356623738E+02 -0.29972289539E+02  0.57834541402E+02  0.68869375954E+02  0.00000000000E+00 0.  1.
</event>
<event>
 7    1  0.5970484E-006  0.1137287E+03  0.7818608E-02  0.1288219E+00
          2   -1    0    0  502    0  0.00000000000E+00  0.00000000000E+00  0.30595326147E+04  0.30595326147E+04  0.00000000000E+00 0. -1.
          1   -1    0    0  501    0 -0.00000000000E+00 -0.00000000000E+00 -0.17676201352E+04  0.17676201352E+04  0.00000000000E+00 0. -1.
         25    2    1    2    0    0 -0.82580829582E+02  0.13065259162E+03  0.13410251887E+03  0.23978651169E+03  0.12499757003E+03 0.  0.
          2    1    1    2  501    0  0.28193564290E+01 -0.11350055539E+03 -0.17123185488E+04  0.17160784182E+04  0.00000000000E+00 0. -1.
          1    1    1    2  502    0  0.79761473153E+02 -0.17152036232E+02  0.28701285094E+04  0.28712878200E+04  0.00000000000E+00 0. -1.
         22    1    3    3    0    0 -0.39071726164E+02  0.51615576515E+02  0.13482619249E+03  0.14956226030E+03  0.00000000000E+00 0.  1.
         22    1    3    3    0    0 -0.43509103418E+02  0.79037015104E+02 -0.72367361975E+00  0.90224251398E+02  0.00000000000E+00 0.  1.
</event>
<event>
 7    1  0.5970484E-006  0.1083516E+03  0.7818608E-02  0.1382662E+00
          2   -1    0    0  502    0  0.00000000000E+00  0.00000000000E+00  0.41130277345E+04  0.41130277345E+04  0.00000000000E+00 0. -1.
          1   -1    0    0  501    0 -0.00000000000E+00 -0.00000000000E+00 -0.28561798467E+02  0.28561798467E+02  0.00000000000E+00 0. -1.
         25    2    1    2    0    0 -0.31032936098E+02  0.11937513408E+03  0.81093624675E+03  0.82973263980E+03  0.12500076594E+03 0.  0.
          2    1    1    2  501    0 -0.25161317507E+02 -0.27846921299E+02  0.97804132001E+00  0.37543301525E+02  0.00000000000E+00 0. -1.
          1    1    1    2  502    0  0.56194253605E+02 -0.91528212785E+02  0.32725516480E+04  0.32743135916E+04  0.00000000000E+00 0. -1.
         22    1    3    3    0    0 -0.65600052069E+02  0.22988734393E+02  0.24791722765E+03  0.25747776701E+03  0.00000000000E+00 0.  1.
         22    1    3    3    0    0  0.34567115971E+02  0.96386399692E+02  0.56301901911E+03  0.57225487278E+03  0.00000000000E+00 0.  1.
</event>
<event>
 7    1  0.5970484E-006  0.5023599E+02  0.7818608E-02  0.1447700E+00
          2   -1    0    0  502    0  0.00000000000E+00  0.00000000000E+00  0.34075924594E+03  0.34075924594E+03  0.00000000000E+00 0. -1.
          1   -1    0    0  501    0 -0.00000000000E+00 -0.00000000000E+00 -0.14171102115E+04  0.14171102115E+04  0.00000000000E+00 0. -1.
         25    2    1    2    0    0 -0.49517452528E+00  0.16929941599E+02 -0.14754843597E+03  0.19412091622E+03  0.12500208412E+03 0.  0.
          2    1    1    2  501    0 -0.48707187326E+02 -0.43784413760E+01 -0.12437615131E+04  0.12447225644E+04  0.00000000000E+00 0. -1.
          1    1    1    2  502    0  0.49202361851E+02 -0.12551500223E+02  0.31495898353E+03  0.31902597681E+03  0.00000000000E+00 0. -1.
         22    1    3    3    0    0  0.44360569053E+02 -0.26772059024E+02 -0.10872058062E+03  0.12043574171E+03  0.00000000000E+00 0. -1.
         22    1    3    3    0    0 -0.44855743579E+02  0.43702000622E+02 -0.38827855349E+02  0.73685174502E+02  0.00000000000E+00 0. -1.
</event>
<event>
 7    1  0.5970484E-006  0.9862845E+02  0.7818608E-02  0.1330589E+00
          2   -1    0    0  502    0  0.00000000000E+00  0.00000000000E+00  0.27843315346E+04  0.27843315346E+04  0.00000000000E+00 0. -1.
          1   -1    0    0  501    0 -0.00000000000E+00 -0.00000000000E+00 -0.38040733434E+02  0.38040733434E+02  0.00000000000E+00 0. -1.
         25    2    1    2    0    0  0.73612272447E+02 -0.10615979627E+02  0.48097171947E+03  0.50248425472E+03  0.12500066253E+03 0.  0.
          2    1    1    2  501    0 -0.27058263356E+01 -0.63961005620E+02  0.13131978305E+02  0.65351209554E+02  0.00000000000E+00 0. -1.
          1    1    1    2  502    0 -0.70906446112E+02  0.74576985246E+02  0.22521871034E+04  0.22545368038E+04  0.00000000000E+00 0. -1.
         22    1    3    3    0    0 -0.31175978214E+02 -0.24423366849E+02  0.12098136337E+03  0.12729859681E+03  0.00000000000E+00 0.  1.
         22    1    3    3    0    0  0.10478825066E+03  0.13807387223E+02  0.35999035610E+03  0.37518565791E+03  0.00000000000E+00 0.  1.
</event>
<event>
 7    1  0.5970484E-006  0.6855194E+02  0.7818608E-02  0.1395272E+00
          2   -1    0    0  502    0  0.00000000000E+00  0.00000000000E+00  0.14313890976E+04  0.14313890976E+04  0.00000000000E+00 0. -1.
          1   -1    0    0  501    0 -0.00000000000E+00 -0.00000000000E+00 -0.55065502841E+03  0.55065502841E+03  0.00000000000E+00 0. -1.
         25    2    1    2    0    0  0.78817064742E+01 -0.92349721573E+02  0.23783249489E+03  0.28421487813E+03  0.12499283560E+03 0.  0.
          2    1    1    2  501    0 -0.43845775835E+02  0.52612005766E+02 -0.52462335667E+03  0.52907479771E+03  0.00000000000E+00 0. -1.
          1    1    1    2  502    0  0.35964069360E+02  0.39737715806E+02  0.11675249309E+04  0.11687544501E+04  0.00000000000E+00 0. -1.
         22    1    3    3    0    0 -0.28859415055E+02 -0.49274035262E+02  0.22188911033E+02  0.61262910159E+02  0.00000000000E+00 0.  1.
         22    1    3    3    0    0  0.36741121529E+02 -0.43075686311E+02  0.21564358386E+03  0.22295196797E+03  0.00000000000E+00 0.  1.
</event>
<event>
 7    1  0.5970484E-006  0.6194023E+03  0.7818608E-02  0.1231387E+00
          2   -1    0    0  502    0  0.00000000000E+00  0.00000000000E+00  0.65873657648E+03  0.65873657648E+03  0.00000000000E+00 0. -1.
          1   -1    0    0  501    0 -0.00000000000E+00 -0.00000000000E+00 -0.24468380623E+04  0.24468380623E+04  0.00000000000E+00 0. -1.
         25    2    1    2    0    0 -0.53247837048E+03  0.33900627748E+03 -0.81274980644E+02  0.64860572936E+03  0.12500119392E+03 0.  0.
          2    1    1    2  501    0  0.53246199623E+03 -0.31280822099E+03 -0.20355697977E+04  0.21271833870E+04  0.00000000000E+00 0. -1.
          1    1    1    2  502    0  0.16374254931E-01 -0.26198056491E+02  0.32874329252E+03  0.32978552244E+03  0.00000000000E+00 0. -1.
         22    1    3    3    0    0 -0.33773893799E+03  0.14360830247E+03 -0.60494179925E+02  0.37195494428E+03  0.00000000000E+00 0.  1.
         22    1    3    3    0    0 -0.19473943249E+03  0.19539797502E+03 -0.20780800719E+02  0.27665078508E+03  0.00000000000E+00 0.  1.
</event>
<event>
 7    1  0.7007284E-006  0.7612908E+02  0.7818608E-02  0.1491176E+00
          2   -1    0    0  502    0  0.00000000000E+00  0.00000000000E+00  0.93903834860E+03  0.93903834860E+03  0.00000000000E+00 0. -1.
          1   -1    0    0  501    0 -0.00000000000E+00 -0.00000000000E+00 -0.91666387402E+03  0.91666387402E+03  0.00000000000E+00 0. -1.
         25    2    1    2    0    0  0.50962413348E+02 -0.38499022913E+02 -0.34374713513E+03  0.37130612428E+03  0.12500721050E+03 0.  0.
          2    1    1    2  501    0 -0.58370685583E+01 -0.22895700576E+02 -0.55731785415E+03  0.55781849649E+03  0.00000000000E+00 0. -1.
          1    1    1    2  502    0 -0.45125344790E+02  0.61394723489E+02  0.92343946387E+03  0.92657760185E+03  0.00000000000E+00 0. -1.
         22    1    3    3    0    0  0.15238676758E+02 -0.82108566166E+02 -0.18970900478E+03  0.20727648299E+03  0.00000000000E+00 0.  1.
         22    1    3    3    0    0  0.35723736590E+02  0.43609543253E+02 -0.15403813036E+03  0.16402964129E+03  0.00000000000E+00 0.  1.
</event>
<event>
 7    1  0.5970484E-006  0.8498626E+02  0.7818608E-02  0.1376742E+00
          2   -1    0    0  502    0  0.00000000000E+00  0.00000000000E+00  0.21512955813E+04  0.21512955813E+04  0.00000000000E+00 0. -1.
          1   -1    0    0  501    0 -0.00000000000E+00 -0.00000000000E+00 -0.56380978043E+02  0.56380978043E+02  0.00000000000E+00 0. -1.
         25    2    1    2    0    0 -0.60313914947E+02  0.31866832926E+02  0.20463742778E+03  0.24930943192E+03  0.12500181046E+03 0.  0.
          2    1    1    2  501    0  0.45757226848E+02 -0.79927427162E+02  0.29205681187E+02  0.96618265536E+02  0.00000000000E+00 0. -1.
          1    1    1    2  502    0  0.14556688098E+02  0.48060594236E+02  0.18610714943E+04  0.18617488619E+04  0.00000000000E+00 0. -1.
         22    1    3    3    0    0 -0.59509114082E+02  0.55382292184E+02  0.20999245956E+03  0.22517852033E+03  0.00000000000E+00 0. -1.
         22    1    3    3    0    0 -0.80480086518E+00 -0.23515459259E+02 -0.53550317813E+01  0.24130911586E+02  0.00000000000E+00 0. -1.
</event>
<event>
 7    1  0.5970484E-006  0.7960738E+02  0.7818608E-02  0.1397603E+00
          2   -1    0    0  502    0  0.00000000000E+00  0.00000000000E+00  0.46567223035E+03  0.46567223035E+03  0.00000000000E+00 0. -1.
          1   -1    0    0  501    0 -0.00000000000E+00 -0.00000000000E+00 -0.28241796543E+04  0.28241796543E+04  0.00000000000E+00 0. -1.
         25    2    1    2    0    0  0.62141034224E+02 -0.46497865455E+02 -0.10430058853E+03  0.18035371621E+03  0.12500116222E+03 0.  0.
          2    1    1    2  501    0 -0.79695859609E+02  0.47328857367E+01 -0.26800565274E+04  0.26812453861E+04  0.00000000000E+00 0. -1.
          1    1    1    2  502    0  0.17554825385E+02  0.41764979718E+02  0.42584969200E+03  0.42825278237E+03  0.00000000000E+00 0. -1.
         22    1    3    3    0    0  0.25059060900E+02  0.39217214992E+02 -0.62776126716E+02  0.78145944043E+02  0.00000000000E+00 0.  1.
         22    1    3    3    0    0  0.37081973324E+02 -0.85715080447E+02 -0.41524461817E+02  0.10220777216E+03  0.00000000000E+00 0.  1.
</event>
<event>
 7    1  0.5970484E-006  0.5996239E+02  0.7818608E-02  0.1426710E+00
          2   -1    0    0  502    0  0.00000000000E+00  0.00000000000E+00  0.87371344413E+03  0.87371344413E+03  0.00000000000E+00 0. -1.
          1   -1    0    0  501    0 -0.00000000000E+00 -0.00000000000E+00 -0.46858431303E+03  0.46858431303E+03  0.00000000000E+00 0. -1.
         25    2    1    2    0    0  0.22540912983E+02 -0.10392601728E+03 -0.29674767158E+02  0.16677726186E+03  0.12500141376E+03 0.  0.
          2    1    1    2  501    0 -0.11399326065E+02  0.57278839268E+02 -0.36733524250E+03  0.37194890838E+03  0.00000000000E+00 0. -1.
          1    1    1    2  502    0 -0.11141586918E+02  0.46647178011E+02  0.80213914076E+03  0.80357158693E+03  0.00000000000E+00 0. -1.
         22    1    3    3    0    0 -0.15859577980E+02 -0.42819514519E+02  0.44164512911E+02  0.63525909974E+02  0.00000000000E+00 0.  1.
         22    1    3    3    0    0  0.38400490963E+02 -0.61106502760E+02 -0.73839280070E+02  0.10325135189E+03  0.00000000000E+00 0.  1.
</event>
<event>
 7    1  0.5970484E-006  0.9954620E+02  0.7818608E-02  0.1354379E+00
          2   -1    0    0  502    0  0.00000000000E+00  0.00000000000E+00  0.12635139503E+04  0.12635139503E+04  0.00000000000E+00 0. -1.
          1   -1    0    0  501    0 -0.00000000000E+00 -0.00000000000E+00 -0.18379744908E+03  0.18379744908E+03  0.00000000000E+00 0. -1.
         25    2    1    2    0    0  0.82174551416E+02 -0.13879238537E+02  0.26274309144E+03  0.30266150090E+03  0.12499904747E+03 0.  0.
          2    1    1    2  501    0 -0.94305644353E+02 -0.36331244271E+02 -0.14749632723E+03  0.17879787586E+03  0.00000000000E+00 0. -1.
          1    1    1    2  502    0  0.12131092937E+02  0.50210482808E+02  0.96446973697E+03  0.96585202259E+03  0.00000000000E+00 0. -1.
         22    1    3    3    0    0  0.42058088793E+02  0.55407794696E+02  0.10865389311E+03  0.12901385597E+03  0.00000000000E+00 0. -1.
         22    1    3    3    0    0  0.40116462623E+02 -0.69287033233E+02  0.15408919833E+03  0.17364764493E+03  0.00000000000E+00 0. -1.
</event>
<event>
 7    1  0.5970484E-006  0.1040476E+03  0.7818608E-02  0.1286654E+00
          2   -1    0    0  502    0  0.00000000000E+00  0.00000000000E+00  0.41585848932E+03  0.41585848932E+03  0.00000000000E+00 0. -1.
          1   -1    0    0  501    0 -0.00000000000E+00 -0.00000000000E+00 -0.80665052487E+03  0.80665052487E+03  0.00000000000E+00 0. -1.
         25    2    1    2    0    0 -0.15092121982E+03  0.11367917890E+03 -0.58527333351E+02  0.23398818107E+03  0.12499939929E+03 0.  0.
          2    1    1    2  501    0  0.65320857383E+02 -0.62634226000E+02 -0.64961512180E+03  0.65588845633E+03  0.00000000000E+00 0. -1.
          1    1    1    2  502    0  0.85600362438E+02 -0.51044952900E+02  0.31735041961E+03  0.33263237679E+03  0.00000000000E+00 0. -1.
         22    1    3    3    0    0 -0.22541729037E+02  0.59054562862E+02 -0.69614775188E+02  0.94030781488E+02  0.00000000000E+00 0.  1.
         22    1    3    3    0    0 -0.12837949078E+03  0.54624616038E+02  0.11087441836E+02  0.13995739958E+03  0.00000000000E+00 0.  1.
</event>
<event>
 7    1  0.5970484E-006  0.8037569E+02  0.7818608E-02  0.1428727E+00
          2   -1    0    0  502    0  0.00000000000E+00  0.00000000000E+00  0.62276897152E+03  0.62276897152E+03  0.00000000000E+00 0. -1.
          1   -1    0    0  501    0 -0.00000000000E+00 -0.00000000000E+00 -0.19436268811E+04  0.19436268811E+04  0.00000000000E+00 0. -1.
         25    2    1    2    0    0 -0.46324421314E+02 -0.90187239317E+02  0.30370857649E+02  0.16377452028E+03  0.12498005582E+03 0.  0.
          2    1    1    2  501    0  0.33258065516E+02  0.11634683525E+02 -0.18737428387E+04  0.18740740888E+04  0.00000000000E+00 0. -1.
          1    1    1    2  502    0  0.13066355798E+02  0.78552555793E+02  0.52251407151E+03  0.52854724349E+03  0.00000000000E+00 0. -1.
         22    1    3    3    0    0  0.24664028844E+02 -0.86378369486E+02  0.17974921192E+02  0.91611324768E+02  0.00000000000E+00 0.  1.
         22    1    3    3    0    0 -0.70988450158E+02 -0.38088698310E+01  0.12395936456E+02  0.72163195508E+02  0.00000000000E+00 0.  1.
</event>
<event>
 7    1  0.5970484E-006  0.6992836E+02  0.7818608E-02  0.1389177E+00
          2   -1    0    0  502    0  0.00000000000E+00  0.00000000000E+00  0.12513502219E+04  0.12513502219E+04  0.00000000000E+00 0. -1.
          1   -1    0    0  501    0 -0.00000000000E+00 -0.00000000000E+00 -0.17401731454E+03  0.17401731454E+03  0.00000000000E+00 0. -1.
         25    2    1    2    0    0 -0.11204985503E+03  0.13400070661E+02 -0.49191631841E+02  0.17544439243E+03  0.12500474505E+03 0.  0.
          2    1    1    2  501    0  0.44961589955E+02 -0.31969955919E+02 -0.48126967319E+02  0.73210843706E+02  0.00000000000E+00 0. -1.
          1    1    1    2  502    0  0.67088265074E+02  0.18569885258E+02  0.11746515066E+04  0.11767123004E+04  0.00000000000E+00 0. -1.
         22    1    3    3    0    0 -0.12129544935E+03 -0.11453880565E+02 -0.71085351227E+02  0.14105638791E+03  0.00000000000E+00 0. -1.
         22    1    3    3    0    0  0.92455943170E+01  0.24853951226E+02  0.21893719387E+02  0.34388004514E+02  0.00000000000E+00 0. -1.
</event>
<event>
 7    1  0.5970484E-006  0.6100366E+02  0.7818608E-02  0.1395519E+00
          2   -1    0    0  502    0  0.00000000000E+00  0.00000000000E+00  0.20821464338E+04  0.20821464338E+04  0.00000000000E+00 0. -1.
          1   -1    0    0  501    0 -0.00000000000E+00 -0.00000000000E+00 -0.70932831529E+03  0.70932831529E+03  0.00000000000E+00 0. -1.
         25    2    1    2    0    0 -0.68463765627E+02  0.85064288370E+02  0.44717061185E+02  0.17189391577E+03  0.12499872943E+03 0.  0.
          2    1    1    2  501    0  0.54322390317E+02 -0.26642512078E+02 -0.64386366450E+03  0.64670021185E+03  0.00000000000E+00 0. -1.
          1    1    1    2  502    0  0.14141375311E+02 -0.58421776291E+02  0.19719647219E+04  0.19728806215E+04  0.00000000000E+00 0. -1.
         22    1    3    3    0    0 -0.30172702808E+01 -0.86052814191E+01 -0.32648953117E+02  0.33898509228E+02  0.00000000000E+00 0.  1.
         22    1    3    3    0    0 -0.65446495346E+02  0.93669569789E+02  0.77366014302E+02  0.13799540654E+03  0.00000000000E+00 0.  1.
</event>
<event>
 7    1  0.5970484E-006  0.1349668E+03  0.7818608E-02  0.1360374E+00
          2   -1    0    0  502    0  0.00000000000E+00  0.00000000000E+00  0.29482414867E+02  0.29482414867E+02  0.00000000000E+00 0. -1.
          1   -1    0    0  501    0 -0.00000000000E+00 -0.00000000000E+00 -0.19887613862E+04  0.19887613862E+04  0.00000000000E+00 0. -1.
         25    2    1    2    0    0  0.12585055220E+03 -0.13843692451E+02 -0.75659183851E+03  0.77722892001E+03  0.12499429862E+03 0.  0.
          2    1    1    2  501    0  0.37128204694E+01 -0.36028989577E+02 -0.96554003097E+03  0.96621913898E+03  0.00000000000E+00 0. -1.
          1    1    1    2  502    0 -0.12956337267E+03  0.49872682029E+02 -0.23714710189E+03  0.27479574211E+03  0.00000000000E+00 0. -1.
         22    1    3    3    0    0  0.32276428581E+02  0.12522707861E+02 -0.35403935569E+02  0.49517923097E+02  0.00000000000E+00 0. -1.
         22    1    3    3    0    0  0.93574123617E+02 -0.26366400312E+02 -0.72118790294E+03  0.72771099691E+03  0.00000000000E+00 0. -1.
</event>
<event>
 7    1  0.5970484E-006  0.6992573E+02  0.7818608E-02  0.1429093E+00
          2   -1    0    0  502    0  0.00000000000E+00  0.00000000000E+00  0.94559896609E+03  0.94559896609E+03  0.00000000000E+00 0. -1.
          1   -1    0    0  501    0 -0.00000000000E+00 -0.00000000000E+00 -0.43931839945E+02  0.43931839945E+02  0.00000000000E+00 0. -1.
         25    2    1    2    0    0  0.61833453481E+02  0.29313518826E+00  0.78487104255E+03  0.79716450558E+03  0.12500093447E+03 0.  0.
          2    1    1    2  501    0  0.28056579113E+02  0.29051442312E+02 -0.21131882830E+01  0.40442842341E+02  0.00000000000E+00 0. -1.
          1    1    1    2  502    0 -0.89890032594E+02 -0.29344577500E+02  0.11890927188E+03  0.15192345812E+03  0.00000000000E+00 0. -1.
         22    1    3    3    0    0 -0.36862668699E+02 -0.14001236289E+02  0.24671927192E+03  0.24985053552E+03  0.00000000000E+00 0.  1.
         22    1    3    3    0    0  0.98696122180E+02  0.14294371477E+02  0.53815177063E+03  0.54731397006E+03  0.00000000000E+00 0.  1.
</event>
<event>
 7    1  0.5970484E-006  0.1508578E+03  0.7818608E-02  0.1295034E+00
          2   -1    0    0  502    0  0.00000000000E+00  0.00000000000E+00  0.50716127130E+03  0.50716127130E+03  0.00000000000E+00 0. -1.
          1   -1    0    0  501    0 -0.00000000000E+00 -0.00000000000E+00 -0.32151808578E+04  0.32151808578E+04  0.00000000000E+00 0. -1.
         25    2    1    2    0    0  0.95040453424E+02  0.59314377086E+02  0.12315550897E+01  0.16786509641E+03  0.12500516288E+03 0.  0.
          2    1    1    2  501    0 -0.14761525190E+03 -0.35511970234E+02 -0.31280439544E+04  0.31317264158E+04  0.00000000000E+00 0. -1.
          1    1    1    2  502    0  0.52574798476E+02 -0.23802406851E+02  0.41879281283E+03  0.42275061689E+03  0.00000000000E+00 0. -1.
         22    1    3    3    0    0  0.34949763285E+02 -0.30298327531E+02 -0.30494832825E+02  0.55402251163E+02  0.00000000000E+00 0.  1.
         22    1    3    3    0    0  0.60090690139E+02  0.89612704617E+02  0.31726387915E+02  0.11246284524E+03  0.00000000000E+00 0.  1.
</event>
<event>
 7    1  0.5970484E-006  0.1267400E+03  0.7818608E-02  0.1331364E+00
          2   -1    0    0  502    0  0.00000000000E+00  0.00000000000E+00  0.16018129734E+04  0.16018129734E+04  0.00000000000E+00 0. -1.
          1   -1    0    0  501    0 -0.00000000000E+00 -0.00000000000E+00 -0.37591462986E+03  0.37591462986E+03  0.00000000000E+00 0. -1.
         25    2    1    2    0    0 -0.13007082219E+03  0.69608910492E+02  0.21850567267E+03  0.29177695266E+03  0.12500096764E+03 0.  0.
          2    1    1    2  501    0  0.44241718979E+02  0.22158735532E+02 -0.33452428874E+03  0.33816392329E+03  0.00000000000E+00 0. -1.
          1    1    1    2  502    0  0.85829103209E+02 -0.91767646024E+02  0.13419169596E+04  0.13477867273E+04  0.00000000000E+00 0. -1.
         22    1    3    3    0    0 -0.11742372890E+03  0.89971115476E+02  0.22278748484E+03  0.26742736795E+03  0.00000000000E+00 0.  1.
         22    1    3    3    0    0 -0.12647093285E+02 -0.20362204984E+02 -0.42818121608E+01  0.24349584714E+02  0.00000000000E+00 0.  1.
</event>
<event>
 7    1  0.5970484E-006  0.8136379E+02  0.7818608E-02  0.1352375E+00
          2   -1    0    0  502    0  0.00000000000E+00  0.00000000000E+00  0.42034697200E+03  0.42034697200E+03  0.00000000000E+00 0. -1.
          1   -1    0    0  501    0 -0.00000000000E+00 -0.00000000000E+00 -0.15619060465E+03  0.15619060465E+03  0.00000000000E+00 0. -1.
         25    2    1    2    0    0  0.58323858491E+02  0.66965048711E+01 -0.16198332811E+02  0.13904630100E+03  0.12499988876E+03 0.  0.
          2    1    1    2  501    0 -0.83327281307E+02  0.52523718646E+02 -0.43240619648E+02  0.10757289630E+03  0.00000000000E+00 0. -1.
          1    1    1    2  502    0  0.25003422817E+02 -0.59220223517E+02  0.32359531981E+03  0.32991837935E+03  0.00000000000E+00 0. -1.
         22    1    3    3    0    0 -0.24439206846E+02 -0.36894567961E+02 -0.95208984145E+01  0.45267333507E+02  0.00000000000E+00 0. -1.
         22    1    3    3    0    0  0.82763065336E+02  0.43591072832E+02 -0.66774343964E+01  0.93778967496E+02  0.00000000000E+00 0. -1.
</event>
<event>
 7    1  0.5970484E-006  0.5908303E+02  0.7818608E-02  0.1484798E+00
          2   -1    0    0  502    0  0.00000000000E+00  0.00000000000E+00  0.13208813634E+04  0.13208813634E+04  0.00000000000E+00 0. -1.
          1   -1    0    0  501    0 -0.00000000000E+00 -0.00000000000E+00 -0.14563283133E+04  0.14563283133E+04  0.00000000000E+00 0. -1.
         25    2    1    2    0    0 -0.32767385450E+02  0.42989043939E+02  0.13177401152E+02  0.13682160634E+03  0.12499899445E+03 0.  0.
          2    1    1    2  501    0 -0.22730625998E+02 -0.22284727824E+02 -0.13936202995E+04  0.13939837982E+04  0.00000000000E+00 0. -1.
          1    1    1    2  502    0  0.55498011448E+02 -0.20704316115E+02  0.12449959484E+04  0.12464042721E+04  0.00000000000E+00 0. -1.
         22    1    3    3    0    0 -0.39199509817E+00  0.34659127552E+02  0.65862028379E+02  0.74425906545E+02  0.00000000000E+00 0.  1.
         22    1    3    3    0    0 -0.32375390352E+02  0.83299163868E+01 -0.52684627227E+02  0.62395699800E+02  0.00000000000E+00 0.  1.
</event>
<event>
 7    1  0.5970484E-006  0.1132493E+03  0.7818608E-02  0.1386664E+00
          2   -1    0    0  502    0  0.00000000000E+00  0.00000000000E+00  0.19908581135E+03  0.19908581135E+03  0.00000000000E+00 0. -1.
          1   -1    0    0  501    0 -0.00000000000E+00 -0.00000000000E+00 -0.22552204248E+03  0.22552204248E+03  0.00000000000E+00 0. -1.
         25    2    1    2    0    0  0.11231584452E+03  0.86270091560E+02  0.10107923697E+03  0.21424248319E+03  0.12500180731E+03 0.  0.
          2    1    1    2  501    0 -0.94108432361E+02 -0.56657433230E+02 -0.13576412408E+03  0.17463779422E+03  0.00000000000E+00 0. -1.
          1    1    1    2  502    0 -0.18207412160E+02 -0.29612658330E+02  0.82486559836E+01  0.35727576414E+02  0.00000000000E+00 0. -1.
         22    1    3    3    0    0  0.45785593997E+02  0.72712499525E+02 -0.74232062992E+01  0.86246925722E+02  0.00000000000E+00 0. -1.
         22    1    3    3    0    0  0.66530250525E+02  0.13557592035E+02  0.10850244327E+03  0.12799555747E+03  0.00000000000E+00 0. -1.
</event>
<event>
 7    1  0.5970484E-006  0.3166145E+03  0.7818608E-02  0.1132134E+00
          2   -1    0    0  502    0  0.00000000000E+00  0.00000000000E+00  0.28889504581E+03  0.28889504581E+03  0.00000000000E+00 0. -1.
          1   -1    0    0  501    0 -0.00000000000E+00 -0.00000000000E+00 -0.12879470775E+04  0.12879470775E+04  0.00000000000E+00 0. -1.
         25    2    1    2    0    0 -0.28097849660E+03 -0.36266467464E+02 -0.15785784374E+03  0.34757479540E+03  0.12499986940E+03 0.  0.
          2    1    1    2  501    0  0.27336401752E+03  0.19224874371E+03 -0.97055403654E+03  0.10264806883E+04  0.00000000000E+00 0. -1.
          1    1    1    2  502    0  0.76144790824E+01 -0.15598227624E+03  0.12935984859E+03  0.20278663965E+03  0.00000000000E+00 0. -1.
         22    1    3    3    0    0 -0.10392688343E+03 -0.59165492795E+02 -0.11061852391E+03  0.16290429849E+03  0.00000000000E+00 0.  1.
         22    1    3    3    0    0 -0.17705161318E+03  0.22899025331E+02 -0.47239319839E+02  0.18467049691E+03  0.00000000000E+00 0.  1.
</event>
<event>
 7    1  0.5970484E-006  0.1117553E+03  0.7818608E-02  0.1341641E+00
          2   -1    0    0  502    0  0.00000000000E+00  0.00000000000E+00  0.27385427012E+02  0.27385427012E+02  0.00000000000E+00 0. -1.
          1   -1    0    0  501    0 -0.00000000000E+00 -0.00000000000E+00 -0.18186492712E+04  0.18186492712E+04  0.00000000000E+00 0. -1.
         25    2    1    2    0    0 -0.80573584716E+02 -0.53719327155E+02 -0.85323848657E+03  0.86776669117E+03  0.12500098672E+03 0.  0.
          2    1    1    2  501    0  0.67446531840E+02  0.10332247635E+03 -0.91278205132E+03  0.92108394948E+03  0.00000000000E+00 0. -1.
          1    1    1    2  502    0  0.13127052876E+02 -0.49603149192E+02 -0.25243306311E+02  0.57184057572E+02  0.00000000000E+00 0. -1.
         22    1    3    3    0    0  0.16740267854E+02 -0.16595008475E+02 -0.47107166143E+03  0.47166104469E+03  0.00000000000E+00 0. -1.
         22    1    3    3    0    0 -0.97313852570E+02 -0.37124318680E+02 -0.38216682514E+03  0.39610564648E+03  0.00000000000E+00 0. -1.
</event>
<event>
 7    1  0.5970484E-006  0.3925712E+02  0.7818608E-02  0.1617458E+00
          2   -1    0    0  502    0  0.00000000000E+00  0.00000000000E+00  0.22758835454E+04  0.22758835454E+04  0.00000000000E+00 0. -1.
          1   -1    0    0  501    0 -0.00000000000E+00 -0.00000000000E+00 -0.62946855468E+02  0.62946855468E+02  0.00000000000E+00 0. -1.
         25    2    1    2    0    0 -0.36599409832E+02 -0.55139239150E+00  0.77688766817E+03  0.78773186530E+03  0.12500888696E+03 0.  0.
          2    1    1    2  501    0  0.28580468974E+01 -0.20226624346E+02 -0.55439774221E+02  0.59083443791E+02  0.00000000000E+00 0. -1.
          1    1    1    2  502    0  0.33741362934E+02  0.20778016738E+02  0.14914887959E+04  0.14920150917E+04  0.00000000000E+00 0. -1.
         22    1    3    3    0    0 -0.56289322188E+02 -0.18461520569E+01  0.14525788973E+03  0.15579393633E+03  0.00000000000E+00 0. -1.
         22    1    3    3    0    0  0.19689912357E+02  0.12947596654E+01  0.63162977844E+03  0.63193792896E+03  0.00000000000E+00 0. -1.
</event>
<event>
 7    1  0.5970484E-006  0.7947709E+02  0.7818608E-02  0.1418970E+00
          2   -1    0    0  502    0  0.00000000000E+00  0.00000000000E+00  0.47755198792E+03  0.47755198792E+03  0.00000000000E+00 0. -1.
          1   -1    0    0  501    0 -0.00000000000E+00 -0.00000000000E+00 -0.32279075716E+04  0.32279075716E+04  0.00000000000E+00 0. -1.
         25    2    1    2    0    0 -0.11542976477E+03  0.97912893172E+01  0.11039185884E+03  0.20305137990E+03  0.12499440163E+03 0.  0.
          2    1    1    2  501    0  0.77628824386E+02 -0.16509840185E+02 -0.31799322919E+04  0.31809225376E+04  0.00000000000E+00 0. -1.
          1    1    1    2  502    0  0.37800940382E+02  0.67185508677E+01  0.31918484932E+03  0.32148564207E+03  0.00000000000E+00 0. -1.
         22    1    3    3    0    0 -0.50020558682E+02  0.84670961996E+01 -0.22061854416E+02  0.55321545795E+02  0.00000000000E+00 0. -1.
         22    1    3    3    0    0 -0.65409206086E+02  0.13241931176E+01  0.13245371326E+03  0.14772983410E+03  0.00000000000E+00 0. -1.
</event>
<event>
 7    1  0.5970484E-006  0.9537534E+02  0.7818608E-02  0.1310264E+00
          2   -1    0    0  502    0  0.00000000000E+00  0.00000000000E+00  0.12404611058E+04  0.12404611058E+04  0.00000000000E+00 0. -1.
          1   -1    0    0  501    0 -0.00000000000E+00 -0.00000000000E+00 -0.39252079199E+03  0.39252079199E+03  0.00000000000E+00 0. -1.
         25    2    1    2    0    0 -0.56397497969E+02 -0.23559670013E+02 -0.54541155469E+02  0.14943880964E+03  0.12498593664E+03 0.  0.
          2    1    1    2  501    0  0.96062753572E+02 -0.45192991130E+02 -0.27945689669E+03  0.29894249644E+03  0.00000000000E+00 0. -1.
          1    1    1    2  502    0 -0.39665255604E+02  0.68752661143E+02  0.11819383660E+04  0.11846005917E+04  0.00000000000E+00 0. -1.
         22    1    3    3    0    0 -0.39477406009E+01 -0.61988460695E+02 -0.57094069457E+02  0.84367568902E+02  0.00000000000E+00 0. -1.
         22    1    3    3    0    0 -0.52449757368E+02  0.38428790682E+02  0.25529139887E+01  0.65071240737E+02  0.00000000000E+00 0. -1.
</event>
<event>
 7    1  0.5970484E-006  0.5735675E+02  0.7818608E-02  0.1457657E+00
          2   -1    0    0  502    0  0.00000000000E+00  0.00000000000E+00  0.17692622076E+04  0.17692622076E+04  0.00000000000E+00 0. -1.
          1   -1    0    0  501    0 -0.00000000000E+00 -0.00000000000E+00 -0.19228550630E+03  0.19228550630E+03  0.00000000000E+00 0. -1.
         25    2    1    2    0    0 -0.36622648655E+02  0.18278833947E+02  0.59127897401E+02  0.14420944271E+03  0.12499968381E+03 0.  0.
          2    1    1    2  501    0  0.56628357703E+02  0.16143679676E+02 -0.14370819916E+03  0.15530433283E+03  0.00000000000E+00 0. -1.
          1    1    1    2  502    0 -0.20005709049E+02 -0.34422513624E+02  0.16615570031E+04  0.16620339384E+04  0.00000000000E+00 0. -1.
         22    1    3    3    0    0  0.11350557637E+02  0.37211074715E+02  0.79696760634E+02  0.88685246212E+02  0.00000000000E+00 0. -1.
         22    1    3    3    0    0 -0.47973206291E+02 -0.18932240768E+02 -0.20568863234E+02  0.55524196501E+02  0.00000000000E+00 0. -1.
</event>
<event>
 7    1  0.5970484E-006  0.7191719E+02  0.7818608E-02  0.1368233E+00
          2   -1    0    0  502    0  0.00000000000E+00  0.00000000000E+00  0.71452180044E+03  0.71452180044E+03  0.00000000000E+00 0. -1.
          1   -1    0    0  501    0 -0.00000000000E+00 -0.00000000000E+00 -0.62255732090E+03  0.62255732090E+03  0.00000000000E+00 0. -1.
         25    2    1    2    0    0 -0.13673460221E+02 -0.60191973504E+02  0.33679082660E+02  0.14341832383E+03  0.12499799123E+03 0.  0.
          2    1    1    2  501    0  0.67816340932E+02  0.26715523411E+02 -0.56371691153E+03  0.56840965125E+03  0.00000000000E+00 0. -1.
          1    1    1    2  502    0 -0.54142880711E+02  0.33476450094E+02  0.62200230841E+03  0.62525114627E+03  0.00000000000E+00 0. -1.
         22    1    3    3    0    0 -0.61521520141E+01 -0.90432273376E+02  0.54664570590E+02  0.10584923391E+03  0.00000000000E+00 0.  1.
         22    1    3    3    0    0 -0.75213082074E+01  0.30240299872E+02 -0.20985487930E+02  0.37569089916E+02  0.00000000000E+00 0.  1.
</event>
<event>
 7    1  0.6471636E-006  0.4370445E+02  0.7818608E-02  0.1594608E+00
          2   -1    0    0  502    0  0.00000000000E+00  0.00000000000E+00  0.10901735631E+04  0.10901735631E+04  0.00000000000E+00 0. -1.
          1   -1    0    0  501    0 -0.00000000000E+00 -0.00000000000E+00 -0.65754913060E+03  0.65754913060E+03  0.00000000000E+00 0. -1.
         25    2    1    2    0    0  0.41181983060E+02 -0.37542874940E+02 -0.31960897465E+03  0.34767831880E+03  0.12499957399E+03 0.  0.
          2    1    1    2  501    0 -0.20995998330E+02 -0.12076505848E+01 -0.32312000015E+03  0.32380368260E+03  0.00000000000E+00 0. -1.
          1    1    1    2  502    0 -0.20185984730E+02  0.38750525525E+02  0.10753534073E+04  0.10762406923E+04  0.00000000000E+00 0. -1.
         22    1    3    3    0    0  0.52548303597E+02 -0.30095448924E+02 -0.52272540058E+02  0.79996741815E+02  0.00000000000E+00 0. -1.
         22    1    3    3    0    0 -0.11366320537E+02 -0.74474260160E+01 -0.26733643459E+03  0.26768157698E+03  0.00000000000E+00 0. -1.
</event>
<event>
 7    1  0.5970484E-006  0.7146938E+02  0.7818608E-02  0.1466820E+00
          2   -1    0    0  502    0  0.00000000000E+00  0.00000000000E+00  0.48131126200E+03  0.48131126200E+03  0.00000000000E+00 0. -1.
          1   -1    0    0  501    0 -0.00000000000E+00 -0.00000000000E+00 -0.90883339104E+03  0.90883339104E+03  0.00000000000E+00 0. -1.
         25    2    1    2    0    0 -0.62638958348E+02  0.20444791805E+02 -0.14154415654E+03  0.20000464309E+03  0.12500192154E+03 0.  0.
          2    1    1    2  501    0 -0.85501766305E+01 -0.28652267703E+02 -0.73491328158E+03  0.73552130452E+03  0.00000000000E+00 0. -1.
          1    1    1    2  502    0  0.71189134979E+02  0.82074758978E+01  0.44893530907E+03  0.45461870543E+03  0.00000000000E+00 0. -1.
         22    1    3    3    0    0  0.94097704283E+01 -0.19645279337E+02 -0.10933764085E+03  0.11148632422E+03  0.00000000000E+00 0. -1.
         22    1    3    3    0    0 -0.72048728777E+02  0.40090071143E+02 -0.32206515690E+02  0.88518318869E+02  0.00000000000E+00 0. -1.
</event>
<event>
 7    1  0.5970484E-006  0.8106415E+02  0.7818608E-02  0.1367446E+00
          2   -1    0    0  502    0  0.00000000000E+00  0.00000000000E+00  0.84596816125E+03  0.84596816125E+03  0.00000000000E+00 0. -1.
          1   -1    0    0  501    0 -0.00000000000E+00 -0.00000000000E+00 -0.54963727175E+03  0.54963727175E+03  0.00000000000E+00 0. -1.
         25    2    1    2    0    0  0.25037324453E+02 -0.74302504736E+02  0.30642246557E+03  0.34009910436E+03  0.12499977420E+03 0.  0.
          2    1    1    2  501    0  0.47828530780E+02  0.30719352013E+02 -0.52781490844E+03  0.53086704976E+03  0.00000000000E+00 0. -1.
          1    1    1    2  502    0 -0.72865855234E+02  0.43583152724E+02  0.51772333238E+03  0.52463927888E+03  0.00000000000E+00 0. -1.
         22    1    3    3    0    0  0.28130604077E+02  0.99305831569E+01  0.20966264819E+03  0.21177434550E+03  0.00000000000E+00 0. -1.
         22    1    3    3    0    0 -0.30932796242E+01 -0.84233087893E+02  0.96759817387E+02  0.12832475886E+03  0.00000000000E+00 0. -1.
</event>
<event>
 7    1  0.5970484E-006  0.1726351E+03  0.7818608E-02  0.1212274E+00
          2   -1    0    0  502    0  0.00000000000E+00  0.00000000000E+00  0.25317723311E+04  0.25317723311E+04  0.00000000000E+00 0. -1.
          1   -1    0    0  501    0 -0.00000000000E+00 -0.00000000000E+00 -0.88198199087E+02  0.88198199087E+02  0.00000000000E+00 0. -1.
         25    2    1    2    0    0  0.81729011623E+02  0.20098656421E+02  0.43388282593E+02  0.15682563298E+03  0.12501259441E+03 0.  0.
          2    1    1    2  501    0  0.45502478526E+02  0.10541331703E+03  0.89550656651E+02  0.14560825206E+03  0.00000000000E+00 0. -1.
          1    1    1    2  502    0 -0.12723149015E+03 -0.12551197346E+03  0.23106351928E+04  0.23175366452E+04  0.00000000000E+00 0. -1.
         22    1    3    3    0    0  0.66952831039E+02 -0.34021627354E+02 -0.14196181895E+02  0.76430911890E+02  0.00000000000E+00 0.  1.
         22    1    3    3    0    0  0.14776180583E+02  0.54120283775E+02  0.57584464488E+02  0.80394721088E+02  0.00000000000E+00 0.  1.
</event>
<event>
 7    1  0.5970484E-006  0.1314377E+03  0.7818608E-02  0.1331608E+00
          2   -1    0    0  502    0  0.00000000000E+00  0.00000000000E+00  0.10358892592E+04  0.10358892592E+04  0.00000000000E+00 0. -1.
          1   -1    0    0  501    0 -0.00000000000E+00 -0.00000000000E+00 -0.83670979125E+03  0.83670979125E+03  0.00000000000E+00 0. -1.
         25    2    1    2    0    0  0.14251100363E+03 -0.47973119444E+02  0.62463763135E+03  0.65452860264E+03  0.12499885934E+03 0.  0.
          2    1    1    2  501    0 -0.42530842152E+02 -0.21397172411E+02 -0.81170887129E+03  0.81310393139E+03  0.00000000000E+00 0. -1.
          1    1    1    2  502    0 -0.99980161475E+02  0.69370291855E+02  0.38625070792E+03  0.40496651645E+03  0.00000000000E+00 0. -1.
         22    1    3    3    0    0 -0.13612803044E+02 -0.35926665406E+02  0.10487005389E+03  0.11168599687E+03  0.00000000000E+00 0. -1.
         22    1    3    3    0    0  0.15612380667E+03 -0.12046454038E+02  0.51976757746E+03  0.54284260577E+03  0.00000000000E+00 0. -1.
</event>
<event>
 7    1  0.5970484E-006  0.1418664E+03  0.7818608E-02  0.1339552E+00
          2   -1    0    0  502    0  0.00000000000E+00  0.00000000000E+00  0.24339248594E+04  0.24339248594E+04  0.00000000000E+00 0. -1.
          1   -1    0    0  501    0 -0.00000000000E+00 -0.00000000000E+00 -0.72802761050E+03  0.72802761050E+03  0.00000000000E+00 0. -1.
         25    2    1    2    0    0  0.75862904584E+02  0.70342837813E+02  0.15235059919E+04  0.15321235570E+04  0.12501516398E+03 0.  0.
          2    1    1    2  501    0 -0.92048757305E+02 -0.10818416389E+03 -0.71627346635E+03  0.73022220292E+03  0.00000000000E+00 0. -1.
          1    1    1    2  502    0  0.16185852721E+02  0.37841326075E+02  0.89866472328E+03  0.89960670999E+03  0.00000000000E+00 0. -1.
         22    1    3    3    0    0  0.94627767930E+02  0.52455243609E+02  0.14526542910E+04  0.14566778835E+04  0.00000000000E+00 0. -1.
         22    1    3    3    0    0 -0.18764863346E+02  0.17887594205E+02  0.70851700905E+02  0.75445673460E+02  0.00000000000E+00 0. -1.
</event>
<event>
 7    1  0.5970484E-006  0.5445700E+02  0.7818608E-02  0.1512176E+00
          2   -1    0    0  502    0  0.00000000000E+00  0.00000000000E+00  0.14288770519E+04  0.14288770519E+04  0.00000000000E+00 0. -1.
          1   -1    0    0  501    0 -0.00000000000E+00 -0.00000000000E+00 -0.10395386809E+03  0.10395386809E+03  0.00000000000E+00 0. -1.
         25    2    1    2    0    0  0.25027150655E+02 -0.20173772600E+02  0.12575976838E+03  0.18020769161E+03  0.12500381354E+03 0.  0.
          2    1    1    2  501    0  0.28031682425E+02  0.56839684651E+01 -0.73449637570E+02  0.78822154095E+02  0.00000000000E+00 0. -1.
          1    1    1    2  502    0 -0.53058833080E+02  0.14489804135E+02  0.12726130530E+04  0.12738010743E+04  0.00000000000E+00 0. -1.
         22    1    3    3    0    0 -0.69726491917E+00  0.41798468718E+02  0.50580829769E+01  0.42109172029E+02  0.00000000000E+00 0.  1.
         22    1    3    3    0    0  0.25724415574E+02 -0.61972241318E+02  0.12070168540E+03  0.13809851958E+03  0.00000000000E+00 0.  1.
</event>
<event>
 7    1  0.5970484E-006  0.6076388E+03  0.7818608E-02  0.1231234E+00
          2   -1    0    0  502    0  0.00000000000E+00  0.00000000000E+00  0.62981249126E+03  0.62981249126E+03  0.00000000000E+00 0. -1.
          1   -1    0    0  501    0 -0.00000000000E+00 -0.00000000000E+00 -0.21185040829E+04  0.21185040829E+04  0.00000000000E+00 0. -1.
         25    2    1    2    0    0 -0.47664401375E+03  0.40015829128E+03 -0.11634556806E+04  0.13253562379E+04  0.12499545098E+03 0.  0.
          2    1    1    2  501    0 -0.26533480052E+00 -0.26746160407E+02 -0.70665909640E+03  0.70716511935E+03  0.00000000000E+00 0. -1.
          1    1    1    2  502    0  0.47690934855E+03 -0.37341213088E+03  0.38142318533E+03  0.71579521690E+03  0.00000000000E+00 0. -1.
         22    1    3    3    0    0 -0.47178849760E+03  0.39608160097E+03 -0.11658438297E+04  0.13185813802E+04  0.00000000000E+00 0. -1.
         22    1    3    3    0    0 -0.48555161569E+01  0.40766903180E+01  0.23881490625E+01  0.67748577139E+01  0.00000000000E+00 0. -1.
</event>
<event>
 7    1  0.5970484E-006  0.9132161E+02  0.7818608E-02  0.1331647E+00
          2   -1    0    0  502    0  0.00000000000E+00  0.00000000000E+00  0.97716312934E+02  0.97716312934E+02  0.00000000000E+00 0. -1.
          1   -1    0    0  501    0 -0.00000000000E+00 -0.00000000000E+00 -0.30076198024E+04  0.30076198024E+04  0.00000000000E+00 0. -1.
         25    2    1    2    0    0  0.13111811302E+03  0.65852271332E+02 -0.27833974096E+03  0.33856558150E+03  0.12500064151E+03 0.  0.
          2    1    1    2  501    0 -0.45590341476E+02 -0.51126173976E+02 -0.26706927360E+04  0.26715710836E+04  0.00000000000E+00 0. -1.
          1    1    1    2  502    0 -0.85527771542E+02 -0.14726097356E+02  0.39128987508E+02  0.95199450164E+02  0.00000000000E+00 0. -1.
         22    1    3    3    0    0  0.42104894832E+02  0.60085052162E+02 -0.38885552635E+02  0.83036870520E+02  0.00000000000E+00 0.  1.
         22    1    3    3    0    0  0.89013218186E+02  0.57672191699E+01 -0.23945418832E+03  0.25552871098E+03  0.00000000000E+00 0.  1.
</event>
<event>
 7    1  0.5970484E-006  0.6592377E+02  0.7818608E-02  0.1394021E+00
          2   -1    0    0  502    0  0.00000000000E+00  0.00000000000E+00  0.66758045153E+03  0.66758045153E+03  0.00000000000E+00 0. -1.
          1   -1    0    0  501    0 -0.00000000000E+00 -0.00000000000E+00 -0.11993666245E+04  0.11993666245E+04  0.00000000000E+00 0. -1.
         25    2    1    2    0    0  0.88093718677E+02 -0.44334116860E+02 -0.42087872137E+03  0.44998911949E+03  0.12500116946E+03 0.  0.
          2    1    1    2  501    0 -0.22630033047E+02  0.51542199808E+02 -0.76123029783E+03  0.76330877310E+03  0.00000000000E+00 0. -1.
          1    1    1    2  502    0 -0.65463685629E+02 -0.72080829478E+01  0.65032284627E+03  0.65364918341E+03  0.00000000000E+00 0. -1.
         22    1    3    3    0    0  0.30381163771E+02  0.43136808040E+02 -0.11171946108E+03  0.12355175961E+03  0.00000000000E+00 0. -1.
         22    1    3    3    0    0  0.57712554906E+02 -0.87470924900E+02 -0.30915926030E+03  0.32643735988E+03  0.00000000000E+00 0. -1.
</event>
<event>
 7    1  0.5970484E-006  0.5252974E+02  0.7818608E-02  0.1561280E+00
          2   -1    0    0  502    0  0.00000000000E+00  0.00000000000E+00  0.22153374567E+03  0.22153374567E+03  0.00000000000E+00 0. -1.
          1   -1    0    0  501    0 -0.00000000000E+00 -0.00000000000E+00 -0.32986058163E+04  0.32986058163E+04  0.00000000000E+00 0. -1.
         25    2    1    2    0    0 -0.51258392903E+02 -0.11437887986E+02 -0.19018889368E+04  0.19067160180E+04  0.12500479033E+03 0.  0.
          2    1    1    2  501    0 -0.30499385454E+00  0.21505489225E+02 -0.13910698994E+04  0.13912361569E+04  0.00000000000E+00 0. -1.
          1    1    1    2  502    0  0.51563386758E+02 -0.10067601239E+02  0.21588676552E+03  0.22218738708E+03  0.00000000000E+00 0. -1.
         22    1    3    3    0    0  0.40875572231E+02  0.58036288202E+01 -0.66520889763E+03  0.66648883862E+03  0.00000000000E+00 0.  1.
         22    1    3    3    0    0 -0.92133965134E+02 -0.17241516807E+02 -0.12366800391E+04  0.12402271794E+04  0.00000000000E+00 0.  1.
</event>
<event>
 7    1  0.5970484E-006  0.1686529E+03  0.7818608E-02  0.1304087E+00
          2   -1    0    0  502    0  0.00000000000E+00  0.00000000000E+00  0.31258735552E+03  0.31258735552E+03  0.00000000000E+00 0. -1.
          1   -1    0    0  501    0 -0.00000000000E+00 -0.00000000000E+00 -0.13849569739E+04  0.13849569739E+04  0.00000000000E+00 0. -1.
         25    2    1    2    0    0 -0.95310709063E+02  0.89584817003E+02 -0.10981820922E+03  0.21164713164E+03  0.12499959423E+03 0.  0.
          2    1    1    2  501    0  0.10852446536E+03 -0.13519616537E+03 -0.12158692996E+04  0.12281668113E+04  0.00000000000E+00 0. -1.
          1    1    1    2  502    0 -0.13213756297E+02  0.45611348365E+02  0.25331789047E+03  0.25773038642E+03  0.00000000000E+00 0. -1.
         22    1    3    3    0    0 -0.11597458542E+03  0.49971342228E+02 -0.47397909504E+02  0.13488439989E+03  0.00000000000E+00 0.  1.
         22    1    3    3    0    0  0.20663876361E+02  0.39613474775E+02 -0.62420299714E+02  0.76762731754E+02  0.00000000000E+00 0.  1.
</event>
<event>
 7    1  0.5970484E-006  0.9348654E+02  0.7818608E-02  0.1388970E+00
          2   -1    0    0  502    0  0.00000000000E+00  0.00000000000E+00  0.17069177400E+04  0.17069177400E+04  0.00000000000E+00 0. -1.
          1   -1    0    0  501    0 -0.00000000000E+00 -0.00000000000E+00 -0.44545160270E+03  0.44545160270E+03  0.00000000000E+00 0. -1.
         25    2    1    2    0    0  0.38312162823E+02  0.72081718812E+02  0.61059773233E+03  0.62858436504E+03  0.12500046897E+03 0.  0.
          2    1    1    2  501    0 -0.75893187845E+02 -0.54868569042E+02 -0.43103548236E+03  0.44109173976E+03  0.00000000000E+00 0. -1.
          1    1    1    2  502    0  0.37581025023E+02 -0.17213149770E+02  0.10819038873E+04  0.10826932379E+04  0.00000000000E+00 0. -1.
         22    1    3    3    0    0  0.76846089818E+01  0.32032291563E+02  0.26399104275E+02  0.42214140102E+02  0.00000000000E+00 0.  1.
         22    1    3    3    0    0  0.30627553841E+02  0.40049427249E+02  0.58419862805E+03  0.58637022494E+03  0.00000000000E+00 0.  1.
</event>
<event>
 7    1  0.5970484E-006  0.8316727E+02  0.7818608E-02  0.1376077E+00
          2   -1    0    0  502    0  0.00000000000E+00  0.00000000000E+00  0.60942336511E+03  0.60942336511E+03  0.00000000000E+00 0. -1.
          1   -1    0    0  501    0 -0.00000000000E+00 -0.00000000000E+00 -0.88300672402E+02  0.88300672402E+02  0.00000000000E+00 0. -1.
         25    2    1    2    0    0  0.36970945177E+02 -0.19974139276E+02  0.15868881169E+03  0.20633801306E+03  0.12500967823E+03 0.  0.
          2    1    1    2  501    0 -0.88566530938E+02  0.20146646652E+02 -0.29938418441E+02  0.95635906816E+02  0.00000000000E+00 0. -1.
          1    1    1    2  502    0  0.51595585761E+02 -0.17250737677E+00  0.39237229946E+03  0.39575011764E+03  0.00000000000E+00 0. -1.
         22    1    3    3    0    0 -0.45010684470E+02 -0.19742619967E+02  0.49053692502E+02  0.69440604171E+02  0.00000000000E+00 0. -1.
         22    1    3    3    0    0  0.81981629646E+02 -0.23151930909E+00  0.10963511919E+03  0.13689740889E+03  0.00000000000E+00 0. -1.
</event>
<event>
 7    1  0.5970484E-006  0.8858362E+02  0.7818608E-02  0.1479173E+00
          2   -1    0    0  502    0  0.00000000000E+00  0.00000000000E+00  0.14898348069E+04  0.14898348069E+04  0.00000000000E+00 0. -1.
          1   -1    0    0  501    0 -0.00000000000E+00 -0.00000000000E+00 -0.10762041068E+03  0.10762041068E+03  0.00000000000E+00 0. -1.
         25    2    1    2    0    0  0.72014255738E+02  0.64534894445E+02  0.37515336300E+02  0.16242435080E+03  0.12499385442E+03 0.  0.
          2    1    1    2  501    0 -0.74561458248E+02 -0.42592851141E+02 -0.41798323291E+01  0.85971117375E+02  0.00000000000E+00 0. -1.
          1    1    1    2  502    0  0.25472025098E+01 -0.21942043305E+02  0.13488788922E+04  0.13490597494E+04  0.00000000000E+00 0. -1.
         22    1    3    3    0    0 -0.28650474204E+02  0.17369819409E+02 -0.18144628797E+02  0.38102333952E+02  0.00000000000E+00 0. -1.
         22    1    3    3    0    0  0.10066472994E+03  0.47165075037E+02  0.55659965097E+02  0.12432201684E+03  0.00000000000E+00 0. -1.
</event>
<event>
 7    1  0.5970484E-006  0.1141829E+03  0.7818608E-02  0.1313563E+00
          2   -1    0    0  502    0  0.00000000000E+00  0.00000000000E+00  0.15247103067E+04  0.15247103067E+04  0.00000000000E+00 0. -1.
          1   -1    0    0  501    0 -0.00000000000E+00 -0.00000000000E+00 -0.22964218895E+02  0.22964218895E+02  0.00000000000E+00 0. -1.
         25    2    1    2    0    0 -0.16745494641E+02  0.43331565821E+01  0.62112494990E+03  0.63381540253E+03  0.12500629287E+03 0.  0.
          2    1    1    2  501    0 -0.86982980044E+02  0.73970930176E+02  0.40061799363E+03  0.41657233964E+03  0.00000000000E+00 0. -1.
          1    1    1    2  502    0  0.10372847468E+03 -0.78304086758E+02  0.48000314429E+03  0.49728678345E+03  0.00000000000E+00 0. -1.
         22    1    3    3    0    0 -0.12502403732E+01 -0.44263023075E+02  0.50554862124E+03  0.50748417389E+03  0.00000000000E+00 0.  1.
         22    1    3    3    0    0 -0.15495254268E+02  0.48596179657E+02  0.11557632866E+03  0.12633122864E+03  0.00000000000E+00 0.  1.
</event>
<event>
 7    1  0.5970484E-006  0.1092516E+03  0.7818608E-02  0.1420846E+00
          2   -1    0    0  502    0  0.00000000000E+00  0.00000000000E+00  0.70552295888E+03  0.70552295888E+03  0.00000000000E+00 0. -1.
          1   -1    0    0  501    0 -0.00000000000E+00 -0.00000000000E+00 -0.64050247760E+03  0.64050247760E+03  0.00000000000E+00 0. -1.
         25    2    1    2    0    0  0.63230261914E+02  0.74756324628E+02  0.15763213663E+03  0.22373592071E+03  0.12499319031E+03 0.  0.
          2    1    1    2  501    0  0.26350074701E+02 -0.79731712688E+01 -0.60106941526E+03  0.60169954285E+03  0.00000000000E+00 0. -1.
          1    1    1    2  502    0 -0.89580336616E+02 -0.66783153360E+02  0.50845775992E+03  0.52058997292E+03  0.00000000000E+00 0. -1.
         22    1    3    3    0    0 -0.41242672806E+00  0.91400703204E+01 -0.21092474724E+02  0.22991378194E+02  0.00000000000E+00 0.  1.
         22    1    3    3    0    0  0.63642688642E+02  0.65616254308E+02  0.17872461135E+03  0.20074454252E+03  0.00000000000E+00 0.  1.
</event>
<event>
 7    1  0.5970484E-006  0.1237595E+03  0.7818608E-02  0.1338059E+00
          2   -1    0    0  502    0  0.00000000000E+00  0.00000000000E+00  0.40411155762E+03  0.40411155762E+03  0.00000000000E+00 0. -1.
          1   -1    0    0  501    0 -0.00000000000E+00 -0.00000000000E+00 -0.11330001384E+03  0.11330001384E+03  0.00000000000E+00 0. -1.
         25    2    1    2    0    0 -0.10998023343E+03 -0.92473834839E+02  0.13268802316E+03  0.23211603531E+03  0.12499872193E+03 0.  0.
          2    1    1    2  501    0  0.11025639845E+03  0.44680284585E+02 -0.11856144795E+01  0.11897145419E+03  0.00000000000E+00 0. -1.
          1    1    1    2  502    0 -0.27616502442E+00  0.47793550254E+02  0.15930913510E+03  0.16632408196E+03  0.00000000000E+00 0. -1.
         22    1    3    3    0    0 -0.10716932955E+03 -0.15301721285E+02  0.50878736959E+02  0.11961627709E+03  0.00000000000E+00 0. -1.
         22    1    3    3    0    0 -0.28109038739E+01 -0.77172113553E+02  0.81809286201E+02  0.11249975822E+03  0.00000000000E+00 0. -1.
</event>
<event>
 7    1  0.5970484E-006  0.1659077E+03  0.7818608E-02  0.1300008E+00
          2   -1    0    0  502    0  0.00000000000E+00  0.00000000000E+00  0.22273658113E+04  0.22273658113E+04  0.00000000000E+00 0. -1.
          1   -1    0    0  501    0 -0.00000000000E+00 -0.00000000000E+00 -0.42268927020E+03  0.42268927020E+03  0.00000000000E+00 0. -1.
         25    2    1    2    0    0 -0.10260358495E+03  0.15182318995E+03  0.20052410946E+03  0.29901947109E+03  0.12499979588E+03 0.  0.
          2    1    1    2  501    0  0.49898500037E+02  0.46631563147E+01 -0.36829472042E+03  0.37168885700E+03  0.00000000000E+00 0. -1.
          1    1    1    2  502    0  0.52705084909E+02 -0.15648634626E+03  0.19724471521E+04  0.19793467534E+04  0.00000000000E+00 0. -1.
         22    1    3    3    0    0 -0.54851919464E+02 -0.10317125264E+01  0.86507752535E+02  0.10243724298E+03  0.00000000000E+00 0. -1.
         22    1    3    3    0    0 -0.47751665481E+02  0.15285490247E+03  0.11401635692E+03  0.19658222812E+03  0.00000000000E+00 0. -1.
</event>
<event>
 7    1  0.5970484E-006  0.1103797E+03  0.7818608E-02  0.1378869E+00
          2   -1    0    0  502    0  0.00000000000E+00  0.00000000000E+00  0.11584955135E+04  0.11584955135E+04  0.00000000000E+00 0. -1.
          1   -1    0    0  501    0 -0.00000000000E+00 -0.00000000000E+00 -0.68578985473E+03  0.68578985473E+03  0.00000000000E+00 0. -1.
         25    2    1    2    0    0 -0.76526335940E+02  0.30465583477E+02 -0.18273302432E+02  0.15080707654E+03  0.12499771552E+03 0.  0.
          2    1    1    2  501    0 -0.34050215791E+02 -0.16863237452E+02 -0.59780389105E+03  0.59901024877E+03  0.00000000000E+00 0. -1.
          1    1    1    2  502    0  0.11057655173E+03 -0.13602346025E+02  0.10887828522E+04  0.10944680429E+04  0.00000000000E+00 0. -1.
         22    1    3    3    0    0 -0.25033426167E+01  0.11837763682E+01 -0.60590689881E+02  0.60653934340E+02  0.00000000000E+00 0.  1.
         22    1    3    3    0    0 -0.74022993323E+02  0.29281807109E+02  0.42317387449E+02  0.90153142200E+02  0.00000000000E+00 0.  1.
</event>
<event>
 7    1  0.5970484E-006  0.4409729E+02  0.7818608E-02  0.1516861E+00
          2   -1    0    0  502    0  0.00000000000E+00  0.00000000000E+00  0.82929605724E+03  0.82929605724E+03  0.00000000000E+00 0. -1.
          1   -1    0    0  501    0 -0.00000000000E+00 -0.00000000000E+00 -0.69818944161E+02  0.69818944161E+02  0.00000000000E+00 0. -1.
         25    2    1    2    0    0  0.56685701316E+01  0.73263351832E+02  0.18479756726E+03  0.23489180279E+03  0.12499746695E+03 0.  0.
          2    1    1    2  501    0 -0.14668254924E+02 -0.30921692692E+02 -0.37353328965E+02  0.50661424834E+02  0.00000000000E+00 0. -1.
          1    1    1    2  502    0  0.89996847920E+01 -0.42341659141E+02  0.61203287479E+03  0.61356177378E+03  0.00000000000E+00 0. -1.
         22    1    3    3    0    0  0.25641839620E+02  0.81127797199E+02  0.50609589868E+02  0.98997747470E+02  0.00000000000E+00 0. -1.
         22    1    3    3    0    0 -0.19973269489E+02 -0.78644453664E+01  0.13418797739E+03  0.13589405532E+03  0.00000000000E+00 0. -1.
</event>
<event>
 7    1  0.5970484E-006  0.8419352E+02  0.7818608E-02  0.1359856E+00
          2   -1    0    0  502    0  0.00000000000E+00  0.00000000000E+00  0.18445114889E+04  0.18445114889E+04  0.00000000000E+00 0. -1.
          1   -1    0    0  501    0 -0.00000000000E+00 -0.00000000000E+00 -0.55950068755E+02  0.55950068755E+02  0.00000000000E+00 0. -1.
         25    2    1    2    0    0 -0.94675075386E+02  0.64801504215E+02  0.23340086047E+03  0.28855833364E+03  0.12500938123E+03 0.  0.
          2    1    1    2  501    0  0.79342130723E+02 -0.85382113279E+01  0.29423055345E+02  0.85051695728E+02  0.00000000000E+00 0. -1.
          1    1    1    2  502    0  0.15332944663E+02 -0.56263292887E+02  0.15257375044E+04  0.15268515283E+04  0.00000000000E+00 0. -1.
         22    1    3    3    0    0 -0.29198189397E+02 -0.74852834920E+01  0.16903460733E+03  0.17170108389E+03  0.00000000000E+00 0.  1.
         22    1    3    3    0    0 -0.65476885988E+02  0.72286787707E+02  0.64366253139E+02  0.11685724975E+03  0.00000000000E+00 0.  1.
</event>
<event>
 7    1  0.5970484E-006  0.8763772E+02  0.7818608E-02  0.1349046E+00
          2   -1    0    0  502    0  0.00000000000E+00  0.00000000000E+00  0.87448221199E+03  0.87448221199E+03  0.00000000000E+00 0. -1.
          1   -1    0    0  501    0 -0.00000000000E+00 -0.00000000000E+00 -0.13651682601E+03  0.13651682601E+03  0.00000000000E+00 0. -1.
         25    2    1    2    0    0 -0.32736830238E+01  0.10313672900E+03  0.25167243454E+03  0.29935223207E+03  0.12499937067E+03 0.  0.
          2    1    1    2  501    0 -0.51089757389E+02 -0.34052395423E+02 -0.10079009680E+03  0.11801852633E+03  0.00000000000E+00 0. -1.
          1    1    1    2  502    0  0.54363440413E+02 -0.69084333578E+02  0.58708304825E+03  0.59362827960E+03  0.00000000000E+00 0. -1.
         22    1    3    3    0    0 -0.23583001416E+02 -0.23763442090E+02  0.47961491397E+02  0.58490715440E+02  0.00000000000E+00 0.  1.
         22    1    3    3    0    0  0.20309318392E+02  0.12690017109E+03  0.20371094314E+03  0.24086151663E+03  0.00000000000E+00 0.  1.
</event>
<event>
 7    1  0.5970484E-006  0.7123682E+02  0.7818608E-02  0.1397290E+00
          2   -1    0    0  502    0  0.00000000000E+00  0.00000000000E+00  0.35027116674E+04  0.35027116674E+04  0.00000000000E+00 0. -1.
          1   -1    0    0  501    0 -0.00000000000E+00 -0.00000000000E+00 -0.32868758494E+02  0.32868758494E+02  0.00000000000E+00 0. -1.
         25    2    1    2    0    0  0.47610887429E+02  0.39443346681E+02  0.61933702554E+03  0.63484482612E+03  0.12500811114E+03 0.  0.
          2    1    1    2  501    0 -0.38745222336E+02  0.32783536959E+02  0.14747149882E+01  0.50775263009E+02  0.00000000000E+00 0. -1.
          1    1    1    2  502    0 -0.88656650936E+01 -0.72226883640E+02  0.28490311684E+04  0.28499603368E+04  0.00000000000E+00 0. -1.
         22    1    3    3    0    0  0.75619202626E+02  0.56843638205E+02  0.31981354700E+03  0.33351187064E+03  0.00000000000E+00 0. -1.
         22    1    3    3    0    0 -0.28008315197E+02 -0.17400291524E+02  0.29952347853E+03  0.30133295548E+03  0.00000000000E+00 0. -1.
</event>
<event>
 7    1  0.5970484E-006  0.4706318E+02  0.7818608E-02  0.1493206E+00
          2   -1    0    0  502    0  0.00000000000E+00  0.00000000000E+00  0.24391316296E+04  0.24391316296E+04  0.00000000000E+00 0. -1.
          1   -1    0    0  501    0 -0.00000000000E+00 -0.00000000000E+00 -0.29828822829E+03  0.29828822829E+03  0.00000000000E+00 0. -1.
         25    2    1    2    0    0  0.79685628581E+02  0.28820826070E+01  0.88845426125E+03  0.90074063018E+03  0.12499841093E+03 0.  0.
          2    1    1    2  501    0 -0.45298965502E+02  0.12537211795E+02 -0.29002291625E+03  0.29380685816E+03  0.00000000000E+00 0. -1.
          1    1    1    2  502    0 -0.34386663079E+02 -0.15419294402E+02  0.15424120563E+04  0.15428723695E+04  0.00000000000E+00 0. -1.
         22    1    3    3    0    0  0.10402157089E+03 -0.28233129817E+02  0.60160199408E+03  0.61118127926E+03  0.00000000000E+00 0.  1.
         22    1    3    3    0    0 -0.24335942309E+02  0.31115212424E+02  0.28685226716E+03  0.28955935092E+03  0.00000000000E+00 0.  1.
</event>
<event>
 7    1  0.5970484E-006  0.2228873E+03  0.7818608E-02  0.1286837E+00
          2   -1    0    0  502    0  0.00000000000E+00  0.00000000000E+00  0.10447052044E+03  0.10447052044E+03  0.00000000000E+00 0. -1.
          1   -1    0    0  501    0 -0.00000000000E+00 -0.00000000000E+00 -0.22648907911E+04  0.22648907911E+04  0.00000000000E+00 0. -1.
         25    2    1    2    0    0 -0.12581708365E+03 -0.15362894374E+03 -0.68210628270E+03  0.72133548278E+03  0.12499642762E+03 0.  0.
          2    1    1    2  501    0  0.16653896814E+03  0.16459800110E+03 -0.15485218591E+04  0.15661250519E+04  0.00000000000E+00 0. -1.
          1    1    1    2  502    0 -0.40721884495E+02 -0.10969057363E+02  0.70207871127E+02  0.81900776947E+02  0.00000000000E+00 0. -1.
         22    1    3    3    0    0 -0.13563254987E+03 -0.74499602527E+02 -0.43747083233E+03  0.46403352088E+03  0.00000000000E+00 0. -1.
         22    1    3    3    0    0  0.98154662175E+01 -0.79129341209E+02 -0.24463545037E+03  0.25730196190E+03  0.00000000000E+00 0. -1.
</event>
<event>
 7    1  0.5970484E-006  0.5700489E+02  0.7818608E-02  0.1542413E+00
          2   -1    0    0  502    0  0.00000000000E+00  0.00000000000E+00  0.44961958658E+03  0.44961958658E+03  0.00000000000E+00 0. -1.
          1   -1    0    0  501    0 -0.00000000000E+00 -0.00000000000E+00 -0.26106402580E+03  0.26106402580E+03  0.00000000000E+00 0. -1.
         25    2    1    2    0    0  0.54477943136E+02 -0.50829408357E+02  0.27040350797E+02  0.14801364231E+03  0.12500153078E+03 0.  0.
          2    1    1    2  501    0 -0.47968238156E+02  0.29431757720E+02 -0.19627372467E+03  0.20418265164E+03  0.00000000000E+00 0. -1.
          1    1    1    2  502    0 -0.65097049802E+01  0.21397650637E+02  0.35778893466E+03  0.35848731843E+03  0.00000000000E+00 0. -1.
         22    1    3    3    0    0  0.55542460709E+02 -0.65435470705E+02 -0.28606855581E+02  0.90471641712E+02  0.00000000000E+00 0. -1.
         22    1    3    3    0    0 -0.10645175726E+01  0.14606062348E+02  0.55647206378E+02  0.57542000597E+02  0.00000000000E+00 0. -1.
</event>
<event>
 7    1  0.5970484E-006  0.5379504E+02  0.7818608E-02  0.1459732E+00
          2   -1    0    0  502    0  0.00000000000E+00  0.00000000000E+00  0.13126897539E+03  0.13126897539E+03  0.00000000000E+00 0. -1.
          1   -1    0    0  501    0 -0.00000000000E+00 -0.00000000000E+00 -0.45744191467E+03  0.45744191467E+03  0.00000000000E+00 0. -1.
         25    2    1    2    0    0 -0.87307690392E+02  0.33163551757E+02 -0.79715596361E+02  0.17521264456E+03  0.12498976176E+03 0.  0.
          2    1    1    2  501    0  0.46772326291E+02 -0.22903246329E+02 -0.32252131254E+03  0.32669895354E+03  0.00000000000E+00 0. -1.
          1    1    1    2  502    0  0.40535364101E+02 -0.10260305427E+02  0.76063969624E+02  0.86799291963E+02  0.00000000000E+00 0. -1.
         22    1    3    3    0    0 -0.10358462650E+03  0.19262771292E+02 -0.14229424620E+02  0.10631700583E+03  0.00000000000E+00 0.  1.
         22    1    3    3    0    0  0.16276936103E+02  0.13900780464E+02 -0.65486171741E+02  0.68895638728E+02  0.00000000000E+00 0.  1.
</event>
<event>
 7    1  0.5970484E-006  0.1273184E+03  0.7818608E-02  0.1417049E+00
          2   -1    0    0  502    0  0.00000000000E+00  0.00000000000E+00  0.12389316211E+04  0.12389316211E+04  0.00000000000E+00 0. -1.
          1   -1    0    0  501    0 -0.00000000000E+00 -0.00000000000E+00 -0.46175237137E+03  0.46175237137E+03  0.00000000000E+00 0. -1.
         25    2    1    2    0    0  0.58100219932E+02 -0.88511296684E+02  0.17177157146E+03  0.23734664185E+03  0.12497227867E+03 0.  0.
          2    1    1    2  501    0  0.16138758043E+02 -0.18199400953E+02 -0.42453105307E+03  0.42522734240E+03  0.00000000000E+00 0. -1.
          1    1    1    2  502    0 -0.74238977975E+02  0.10671069764E+03  0.10299387314E+04  0.10381100083E+04  0.00000000000E+00 0. -1.
         22    1    3    3    0    0  0.25217921656E+01  0.29678114784E+02  0.15154468131E+02  0.33418674977E+02  0.00000000000E+00 0. -1.
         22    1    3    3    0    0  0.55578427766E+02 -0.11818941147E+03  0.15661710333E+03  0.20392796687E+03  0.00000000000E+00 0. -1.
</event>
<event>
 7    1  0.5970484E-006  0.1377670E+03  0.7818608E-02  0.1240280E+00
          2   -1    0    0  502    0  0.00000000000E+00  0.00000000000E+00  0.55680511178E+03  0.55680511178E+03  0.00000000000E+00 0. -1.
          1   -1    0    0  501    0 -0.00000000000E+00 -0.00000000000E+00 -0.12946191240E+04  0.12946191240E+04  0.00000000000E+00 0. -1.
         25    2    1    2    0    0 -0.63813751818E+02 -0.40187306096E+01  0.28472361309E+03  0.31745975486E+03  0.12499925994E+03 0.  0.
          2    1    1    2  501    0  0.85844043480E+02  0.10928701130E+03 -0.12629602127E+04  0.12705830747E+04  0.00000000000E+00 0. -1.
          1    1    1    2  502    0 -0.22030291663E+02 -0.10526828069E+03  0.24042258738E+03  0.26338140632E+03  0.00000000000E+00 0. -1.
         22    1    3    3    0    0 -0.31255092391E+02 -0.60703508951E+02  0.19380371363E+03  0.20547913816E+03  0.00000000000E+00 0. -1.
         22    1    3    3    0    0 -0.32558659426E+02  0.56684778341E+02  0.90919899456E+02  0.11198061670E+03  0.00000000000E+00 0. -1.
</event>
<event>
 7    1  0.5970484E-006  0.1095003E+03  0.7818608E-02  0.1330426E+00
          2   -1    0    0  502    0  0.00000000000E+00  0.00000000000E+00  0.72475827669E+03  0.72475827669E+03  0.00000000000E+00 0. -1.
          1   -1    0    0  501    0 -0.00000000000E+00 -0.00000000000E+00 -0.16144037366E+04  0.16144037366E+04  0.00000000000E+00 0. -1.
         25    2    1    2    0    0 -0.49589907178E+02  0.39276206103E+02  0.89123549932E+02  0.16603966094E+03  0.12499753035E+03 0.  0.
          2    1    1    2  501    0  0.10640574682E+03 -0.28961036792E+02 -0.15726143704E+04  0.15764760964E+04  0.00000000000E+00 0. -1.
          1    1    1    2  502    0 -0.56815839641E+02 -0.10315169310E+02  0.59384536060E+03  0.59664625588E+03  0.00000000000E+00 0. -1.
         22    1    3    3    0    0 -0.46644079188E+02  0.81137001468E+02  0.79939499291E+02  0.12308211356E+03  0.00000000000E+00 0.  1.
         22    1    3    3    0    0 -0.29458279900E+01 -0.41860795365E+02  0.91840506412E+01  0.42957547385E+02  0.00000000000E+00 0.  1.
</event>
<event>
 7    1  0.5970484E-006  0.8655366E+02  0.7818608E-02  0.1495521E+00
          2   -1    0    0  502    0  0.00000000000E+00  0.00000000000E+00  0.47469370038E+03  0.47469370038E+03  0.00000000000E+00 0. -1.
          1   -1    0    0  501    0 -0.00000000000E+00 -0.00000000000E+00 -0.58341394262E+03  0.58341394262E+03  0.00000000000E+00 0. -1.
         25    2    1    2    0    0  0.94639723142E+02 -0.37302186397E+02 -0.41435288817E+03  0.44459123507E+03  0.12499968024E+03 0.  0.
          2    1    1    2  501    0 -0.19454767154E+02 -0.53066540895E+01 -0.14919494370E+03  0.15055158508E+03  0.00000000000E+00 0. -1.
          1    1    1    2  502    0 -0.75184955989E+02  0.42608840487E+02  0.45482758964E+03  0.46296482285E+03  0.00000000000E+00 0. -1.
         22    1    3    3    0    0 -0.58483022976E+01 -0.50950312560E+02 -0.21369836068E+03  0.21976607187E+03  0.00000000000E+00 0.  1.
         22    1    3    3    0    0  0.10048802544E+03  0.13648126163E+02 -0.20065452750E+03  0.22482516321E+03  0.00000000000E+00 0.  1.
</event>
<event>
 7    1  0.5970484E-006  0.6198361E+02  0.7818608E-02  0.1402673E+00
          2   -1    0    0  502    0  0.00000000000E+00  0.00000000000E+00  0.22788796409E+04  0.22788796409E+04  0.00000000000E+00 0. -1.
          1   -1    0    0  501    0 -0.00000000000E+00 -0.00000000000E+00 -0.53154596074E+02  0.53154596074E+02  0.00000000000E+00 0. -1.
         25    2    1    2    0    0 -0.79419131820E+02  0.26938765733E+02  0.23612506465E+03  0.28001548756E+03  0.12498212478E+03 0.  0.
          2    1    1    2  501    0  0.48939565997E+02  0.27005958690E+02 -0.53088877125E+01  0.56147904801E+02  0.00000000000E+00 0. -1.
          1    1    1    2  502    0  0.30479565822E+02 -0.53944724423E+02  0.19949088679E+04  0.19958708446E+04  0.00000000000E+00 0. -1.
         22    1    3    3    0    0 -0.75682450981E+02  0.70359931654E+02  0.19172711534E+03  0.21780183683E+03  0.00000000000E+00 0. -1.
         22    1    3    3    0    0 -0.37366808384E+01 -0.43421165921E+02  0.44397949310E+02  0.62213650725E+02  0.00000000000E+00 0. -1.
</event>
<event>
 7    1  0.5970484E-006  0.7554844E+02  0.7818608E-02  0.1441572E+00
          2   -1    0    0  502    0  0.00000000000E+00  0.00000000000E+00  0.44685173222E+02  0.44685173222E+02  0.00000000000E+00 0. -1.
          1   -1    0    0  501    0 -0.00000000000E+00 -0.00000000000E+00 -0.13577194189E+04  0.13577194189E+04  0.00000000000E+00 0. -1.
         25    2    1    2    0    0  0.26955558417E+01 -0.56710987116E+02 -0.29930491672E+03  0.32928995805E+03  0.12500016487E+03 0.  0.
          2    1    1    2  501    0 -0.28708796531E+02 -0.18275166493E+02 -0.98956159712E+03  0.99014662107E+03  0.00000000000E+00 0. -1.
          1    1    1    2  502    0  0.26013240689E+02  0.74986153610E+02 -0.24167731871E+02  0.82968013042E+02  0.00000000000E+00 0. -1.
         22    1    3    3    0    0 -0.38239812914E+02  0.12786973076E+02 -0.18530860319E+03  0.18964458439E+03  0.00000000000E+00 0. -1.
         22    1    3    3    0    0  0.40935368756E+02 -0.69497960192E+02 -0.11399631353E+03  0.13964537366E+03  0.00000000000E+00 0. -1.
</event>
<event>
 7    1  0.5970484E-006  0.5127273E+02  0.7818608E-02  0.1448299E+00
          2   -1    0    0  502    0  0.00000000000E+00  0.00000000000E+00  0.25292455078E+04  0.25292455078E+04  0.00000000000E+00 0. -1.
          1   -1    0    0  501    0 -0.00000000000E+00 -0.00000000000E+00 -0.70434716910E+03  0.70434716910E+03  0.00000000000E+00 0. -1.
         25    2    1    2    0    0  0.45452297961E+02  0.21502218864E+02  0.18420296556E+02  0.13599134869E+03  0.12500433108E+03 0.  0.
          2    1    1    2  501    0 -0.12472082767E+01 -0.47686915396E+02 -0.64441079543E+03  0.64617402509E+03  0.00000000000E+00 0. -1.
          1    1    1    2  502    0 -0.44205089685E+02  0.26184696532E+02  0.24508888376E+04  0.24514273031E+04  0.00000000000E+00 0. -1.
         22    1    3    3    0    0 -0.33112180697E+02 -0.26631209700E+02  0.83541142930E+01  0.43306224336E+02  0.00000000000E+00 0.  1.
         22    1    3    3    0    0  0.78564478658E+02  0.48133428564E+02  0.10066182263E+02  0.92685124359E+02  0.00000000000E+00 0.  1.
</event>
<event>
 7    1  0.5970484E-006  0.5171601E+02  0.7818608E-02  0.1505580E+00
          2   -1    0    0  502    0  0.00000000000E+00  0.00000000000E+00  0.39003021951E+02  0.39003021951E+02  0.00000000000E+00 0. -1.
          1   -1    0    0  501    0 -0.00000000000E+00 -0.00000000000E+00 -0.11589088311E+04  0.11589088311E+04  0.00000000000E+00 0. -1.
         25    2    1    2    0    0 -0.14110019792E+01  0.25518035039E+02 -0.73717756660E+03  0.74813675442E+03  0.12499871032E+03 0.  0.
          2    1    1    2  501    0  0.21509425181E+02  0.23009332726E+02 -0.39465773833E+03  0.39591263580E+03  0.00000000000E+00 0. -1.
          1    1    1    2  502    0 -0.20098423202E+02 -0.48527367765E+02  0.11929495740E+02  0.53862462866E+02  0.00000000000E+00 0. -1.
         22    1    3    3    0    0 -0.47947812165E+02  0.14287855215E+02 -0.61319653585E+03  0.61523420506E+03  0.00000000000E+00 0.  1.
         22    1    3    3    0    0  0.46536810185E+02  0.11230179825E+02 -0.12398103075E+03  0.13290254936E+03  0.00000000000E+00 0.  1.
</event>
<event>
 7    1  0.5970484E-006  0.1556612E+03  0.7818608E-02  0.1272366E+00
          2   -1    0    0  502    0  0.00000000000E+00  0.00000000000E+00  0.99235428313E+03  0.99235428313E+03  0.00000000000E+00 0. -1.
          1   -1    0    0  501    0 -0.00000000000E+00 -0.00000000000E+00 -0.11716708055E+04  0.11716708055E+04  0.00000000000E+00 0. -1.
         25    2    1    2    0    0 -0.17425502610E+03 -0.31972754851E+02  0.23120511262E+02  0.21805245624E+03  0.12500097782E+03 0.  0.
          2    1    1    2  501    0  0.15161259538E+03 -0.33532300491E+02 -0.10671997897E+04  0.10784369177E+04  0.00000000000E+00 0. -1.
          1    1    1    2  502    0  0.22642430723E+02  0.65505055342E+02  0.86476275610E+03  0.86753571470E+03  0.00000000000E+00 0. -1.
         22    1    3    3    0    0 -0.72655556959E+01  0.15387348810E+02 -0.31739933499E+02  0.36013638826E+02  0.00000000000E+00 0.  1.
         22    1    3    3    0    0 -0.16698947041E+03 -0.47360103661E+02  0.54860444761E+02  0.18203881741E+03  0.00000000000E+00 0.  1.
</event>
<event>
 7    1  0.5970484E-006  0.6322368E+02  0.7818608E-02  0.1397897E+00
          2   -1    0    0  502    0  0.00000000000E+00  0.00000000000E+00  0.53314496463E+03  0.53314496463E+03  0.00000000000E+00 0. -1.
          1   -1    0    0  501    0 -0.00000000000E+00 -0.00000000000E+00 -0.11671424270E+04  0.11671424270E+04  0.00000000000E+00 0. -1.
         25    2    1    2    0    0  0.13706974226E+02  0.65679105556E+01 -0.12696344006E+03  0.17882074266E+03  0.12500449712E+03 0.  0.
          2    1    1    2  501    0 -0.59410760538E+02  0.27344594226E+02 -0.10115946160E+04  0.10137065810E+04  0.00000000000E+00 0. -1.
          1    1    1    2  502    0  0.45703786312E+02 -0.33912504782E+02  0.50456059360E+03  0.50776006803E+03  0.00000000000E+00 0. -1.
         22    1    3    3    0    0 -0.18601349058E+02 -0.47342139756E+02 -0.19793263251E+02  0.54580780991E+02  0.00000000000E+00 0. -1.
         22    1    3    3    0    0  0.32308323284E+02  0.53910050311E+02 -0.10717017680E+03  0.12423996166E+03  0.00000000000E+00 0. -1.
</event>
<event>
 7    1  0.5970484E-006  0.1595718E+03  0.7818608E-02  0.1318856E+00
          2   -1    0    0  502    0  0.00000000000E+00  0.00000000000E+00  0.55549246428E+03  0.55549246428E+03  0.00000000000E+00 0. -1.
          1   -1    0    0  501    0 -0.00000000000E+00 -0.00000000000E+00 -0.27442433266E+04  0.27442433266E+04  0.00000000000E+00 0. -1.
         25    2    1    2    0    0  0.89914339143E+02  0.14408084155E+03  0.20966548389E+03  0.29736664755E+03  0.12499372246E+03 0.  0.
          2    1    1    2  501    0 -0.11641551495E+03 -0.10907297864E+03 -0.26964266535E+04  0.27011416446E+04  0.00000000000E+00 0. -1.
          1    1    1    2  502    0  0.26501175812E+02 -0.35007862903E+02  0.29801030722E+03  0.30122749874E+03  0.00000000000E+00 0. -1.
         22    1    3    3    0    0  0.30723751141E+02  0.12382480736E+03  0.72819786006E+02  0.14689878500E+03  0.00000000000E+00 0.  1.
         22    1    3    3    0    0  0.59190588001E+02  0.20256034188E+02  0.13684569788E+03  0.15046786254E+03  0.00000000000E+00 0.  1.
</event>
<event>
 7    1  0.5970484E-006  0.1027153E+03  0.7818608E-02  0.1379139E+00
          2   -1    0    0  502    0  0.00000000000E+00  0.00000000000E+00  0.12095476067E+04  0.12095476067E+04  0.00000000000E+00 0. -1.
          1   -1    0    0  501    0 -0.00000000000E+00 -0.00000000000E+00 -0.95400542351E+03  0.95400542351E+03  0.00000000000E+00 0. -1.
         25    2    1    2    0    0 -0.40112259708E+02  0.12978518013E+03 -0.15239983600E+03  0.23938510771E+03  0.12500533356E+03 0.  0.
          2    1    1    2  501    0 -0.86934465729E+01 -0.39804092792E+02 -0.75531628229E+03  0.75641432305E+03  0.00000000000E+00 0. -1.
          1    1    1    2  502    0  0.48805706281E+02 -0.89981087342E+02  0.11632583015E+04  0.11677535995E+04  0.00000000000E+00 0. -1.
         22    1    3    3    0    0 -0.55021164222E+02  0.71989834739E+01 -0.21723234509E+02  0.59590710626E+02  0.00000000000E+00 0. -1.
         22    1    3    3    0    0  0.14908904514E+02  0.12258619666E+03 -0.13067660150E+03  0.17979439709E+03  0.00000000000E+00 0. -1.
</event>
<event>
 7    1  0.5970484E-006  0.4725455E+02  0.7818608E-02  0.1468748E+00
          2   -1    0    0  502    0  0.00000000000E+00  0.00000000000E+00  0.10388589148E+04  0.10388589148E+04  0.00000000000E+00 0. -1.
          1   -1    0    0  501    0 -0.00000000000E+00 -0.00000000000E+00 -0.15358667340E+03  0.15358667340E+03  0.00000000000E+00 0. -1.
         25    2    1    2    0    0  0.15647447499E+02  0.37545055749E+01  0.11483792553E+03  0.17050456886E+03  0.12500047975E+03 0.  0.
          2    1    1    2  501    0 -0.80803218187E+01  0.43862916575E+02 -0.12112671967E+03  0.12907722212E+03  0.00000000000E+00 0. -1.
          1    1    1    2  502    0 -0.75671256800E+01 -0.47617422150E+02  0.89156103557E+03  0.89286379724E+03  0.00000000000E+00 0. -1.
         22    1    3    3    0    0 -0.27768638741E+02 -0.49570498121E+02  0.59156487170E+02  0.82023298859E+02  0.00000000000E+00 0. -1.
         22    1    3    3    0    0  0.43416086239E+02  0.53325003696E+02  0.55681438363E+02  0.88481270005E+02  0.00000000000E+00 0. -1.
</event>
<event>
 7    1  0.5970484E-006  0.8133854E+02  0.7818608E-02  0.1452634E+00
          2   -1    0    0  502    0  0.00000000000E+00  0.00000000000E+00  0.11011076863E+04  0.11011076863E+04  0.00000000000E+00 0. -1.
          1   -1    0    0  501    0 -0.00000000000E+00 -0.00000000000E+00 -0.68601490704E+03  0.68601490704E+03  0.00000000000E+00 0. -1.
         25    2    1    2    0    0 -0.70625877372E+02  0.73700004738E+02  0.67648671637E+03  0.69547047616E+03  0.12500080215E+03 0.  0.
          2    1    1    2  501    0  0.41773764713E+02 -0.69716395909E+02 -0.67356632874E+03  0.67845193086E+03  0.00000000000E+00 0. -1.
          1    1    1    2  502    0  0.28852112659E+02 -0.39836088294E+01  0.41217239159E+03  0.41320018627E+03  0.00000000000E+00 0. -1.
         22    1    3    3    0    0 -0.10507558043E+03  0.51756078896E+02  0.43210353499E+03  0.44769748074E+03  0.00000000000E+00 0.  1.
         22    1    3    3    0    0  0.34449703059E+02  0.21943925842E+02  0.24438318138E+03  0.24777299543E+03  0.00000000000E+00 0.  1.
</event>
<event>
 7    1  0.5970484E-006  0.5280594E+02  0.7818608E-02  0.1489292E+00
          2   -1    0    0  502    0  0.00000000000E+00  0.00000000000E+00  0.11545521832E+04  0.11545521832E+04  0.00000000000E+00 0. -1.
          1   -1    0    0  501    0 -0.00000000000E+00 -0.00000000000E+00 -0.14053577481E+03  0.14053577481E+03  0.00000000000E+00 0. -1.
         25    2    1    2    0    0 -0.33480904550E+02 -0.21783832728E+02  0.38347701711E+02  0.13670700723E+03  0.12499101272E+03 0.  0.
          2    1    1    2  501    0  0.54518526022E+02 -0.55772025659E+01 -0.82830604813E+02  0.99319101697E+02  0.00000000000E+00 0. -1.
          1    1    1    2  502    0 -0.21037621472E+02  0.27361035294E+02  0.10584993115E+04  0.10590618491E+04  0.00000000000E+00 0. -1.
         22    1    3    3    0    0 -0.73365335406E+02 -0.21610644677E+02 -0.64178253837E+01  0.76750771235E+02  0.00000000000E+00 0. -1.
         22    1    3    3    0    0  0.39884430855E+02 -0.17318805109E+00  0.44765527095E+02  0.59956235996E+02  0.00000000000E+00 0. -1.
</event>
<event>
 7    1  0.5970484E-006  0.1142224E+03  0.7818608E-02  0.1289460E+00
          2   -1    0    0  502    0  0.00000000000E+00  0.00000000000E+00  0.24161174556E+04  0.24161174556E+04  0.00000000000E+00 0. -1.
          1   -1    0    0  501    0 -0.00000000000E+00 -0.00000000000E+00 -0.43184893622E+03  0.43184893622E+03  0.00000000000E+00 0. -1.
         25    2    1    2    0    0 -0.12045548813E+03 -0.11248759160E+03  0.18202089746E+04  0.18319248265E+04  0.12499950362E+03 0.  0.
          2    1    1    2  501    0  0.48030201637E+02  0.64341748571E+02 -0.41895334160E+03  0.42657785141E+03  0.00000000000E+00 0. -1.
          1    1    1    2  502    0  0.72425286491E+02  0.48145843025E+02  0.58301288634E+03  0.58946371387E+03  0.00000000000E+00 0. -1.
         22    1    3    3    0    0 -0.72797615690E+02 -0.34395879686E+01  0.38837664349E+03  0.39515533759E+03  0.00000000000E+00 0. -1.
         22    1    3    3    0    0 -0.47657872438E+02 -0.10904800363E+03  0.14318323311E+04  0.14367694890E+04  0.00000000000E+00 0. -1.
</event>
<event>
 7    1  0.5970484E-006  0.1154158E+03  0.7818608E-02  0.1343649E+00
          2   -1    0    0  502    0  0.00000000000E+00  0.00000000000E+00  0.19202993057E+03  0.19202993057E+03  0.00000000000E+00 0. -1.
          1   -1    0    0  501    0 -0.00000000000E+00 -0.00000000000E+00 -0.88846560002E+03  0.88846560002E+03  0.00000000000E+00 0. -1.
         25    2    1    2    0    0  0.62471002197E+02  0.33943094691E+02 -0.24959517596E+03  0.28805836531E+03  0.12500044067E+03 0.  0.
          2    1    1    2  501    0  0.47622024684E+02  0.10795357766E+02 -0.59809415449E+03  0.60008417295E+03  0.00000000000E+00 0. -1.
          1    1    1    2  502    0 -0.11009302688E+03 -0.44738452458E+02  0.15125366100E+03  0.19235299234E+03  0.00000000000E+00 0. -1.
         22    1    3    3    0    0  0.42031894885E+02  0.65396701667E+02 -0.70074718315E+02  0.10466076115E+03  0.00000000000E+00 0.  1.
         22    1    3    3    0    0  0.20439107312E+02 -0.31453606976E+02 -0.17952045764E+03  0.18339760416E+03  0.00000000000E+00 0.  1.
</event>
<event>
 7    1  0.5970484E-006  0.2057817E+03  0.7818608E-02  0.1298715E+00
          2   -1    0    0  502    0  0.00000000000E+00  0.00000000000E+00  0.24660696550E+04  0.24660696550E+04  0.00000000000E+00 0. -1.
          1   -1    0    0  501    0 -0.00000000000E+00 -0.00000000000E+00 -0.28994732745E+03  0.28994732745E+03  0.00000000000E+00 0. -1.
         25    2    1    2    0    0 -0.17021044355E+03 -0.25679770383E+02  0.39877093870E+03  0.45196690224E+03  0.12499909389E+03 0.  0.
          2    1    1    2  501    0 -0.39478054448E+02 -0.10652799999E+02 -0.25617524584E+03  0.25941810945E+03  0.00000000000E+00 0. -1.
          1    1    1    2  502    0  0.20968849800E+03  0.36332570382E+02  0.20335266347E+04  0.20446319708E+04  0.00000000000E+00 0. -1.
         22    1    3    3    0    0 -0.43931293529E+02 -0.55133037691E+02  0.73692641892E+02  0.10198144863E+03  0.00000000000E+00 0. -1.
         22    1    3    3    0    0 -0.12627915002E+03  0.29453267308E+02  0.32507829680E+03  0.34998545361E+03  0.00000000000E+00 0. -1.
</event>
<event>
 7    1  0.5970484E-006  0.7434898E+02  0.7818608E-02  0.1367687E+00
          2   -1    0    0  502    0  0.00000000000E+00  0.00000000000E+00  0.10117932688E+04  0.10117932688E+04  0.00000000000E+00 0. -1.
          1   -1    0    0  501    0 -0.00000000000E+00 -0.00000000000E+00 -0.42634940191E+02  0.42634940191E+02  0.00000000000E+00 0. -1.
         25    2    1    2    0    0 -0.10525776897E+03  0.11182450729E+02  0.36026807250E+03  0.39575521342E+03  0.12499943901E+03 0.  0.
          2    1    1    2  501    0  0.63306862043E+02  0.34271355835E+02  0.32518917401E+02  0.78992180635E+02  0.00000000000E+00 0. -1.
          1    1    1    2  502    0  0.41950906925E+02 -0.45453806564E+02  0.57637133873E+03  0.57968081496E+03  0.00000000000E+00 0. -1.
         22    1    3    3    0    0 -0.39007768184E+02 -0.22530585649E+02  0.28995828954E+03  0.29343660805E+03  0.00000000000E+00 0. -1.
         22    1    3    3    0    0 -0.66250000784E+02  0.33713036378E+02  0.70309782960E+02  0.10231860537E+03  0.00000000000E+00 0. -1.
</event>
<event>
 7    1  0.5970484E-006  0.1176678E+03  0.7818608E-02  0.1414951E+00
          2   -1    0    0  502    0  0.00000000000E+00  0.00000000000E+00  0.14193551998E+04  0.14193551998E+04  0.00000000000E+00 0. -1.
          1   -1    0    0  501    0 -0.00000000000E+00 -0.00000000000E+00 -0.18225436955E+03  0.18225436955E+03  0.00000000000E+00 0. -1.
         25    2    1    2    0    0 -0.16660302636E+02 -0.13896570419E+03  0.33530107529E+03  0.38424071670E+03  0.12500033860E+03 0.  0.
          2    1    1    2  501    0  0.25196574970E+02  0.11361443223E+03 -0.13613053816E+03  0.17909391397E+03  0.00000000000E+00 0. -1.
          1    1    1    2  502    0 -0.85362723345E+01  0.25351271960E+02  0.10379302932E+04  0.10382749387E+04  0.00000000000E+00 0. -1.
         22    1    3    3    0    0 -0.20842544208E+02 -0.10683712349E+03  0.33457102661E+03  0.35183285016E+03  0.00000000000E+00 0. -1.
         22    1    3    3    0    0  0.41822415721E+01 -0.32128580695E+02  0.73004867906E+00  0.32407866532E+02  0.00000000000E+00 0. -1.
</event>
<event>
 7    1  0.5970484E-006  0.4686550E+02  0.7818608E-02  0.1473177E+00
          2   -1    0    0  502    0  0.00000000000E+00  0.00000000000E+00  0.64383096042E+03  0.64383096042E+03  0.00000000000E+00 0. -1.
          1   -1    0    0  501    0 -0.00000000000E+00 -0.00000000000E+00 -0.24757173586E+03  0.24757173586E+03  0.00000000000E+00 0. -1.
         25    2    1    2    0    0  0.10915938896E+02  0.73538710210E+02 -0.11672586775E+03  0.18648652677E+03  0.12500078737E+03 0.  0.
          2    1    1    2  501    0 -0.30534493158E+02 -0.31078569235E+02 -0.90067751137E+02  0.10005214907E+03  0.00000000000E+00 0. -1.
          1    1    1    2  502    0  0.19618554262E+02 -0.42460140974E+02  0.60305284345E+03  0.60486402045E+03  0.00000000000E+00 0. -1.
         22    1    3    3    0    0  0.13135418592E+02  0.10205113289E+03 -0.51064840082E+02  0.11486771017E+03  0.00000000000E+00 0. -1.
         22    1    3    3    0    0 -0.22194796962E+01 -0.28512422684E+02 -0.65661027667E+02  0.71618816604E+02  0.00000000000E+00 0. -1.
</event>
<event>
 7    1  0.5970484E-006  0.5293083E+02  0.7818608E-02  0.1442495E+00
          2   -1    0    0  502    0  0.00000000000E+00  0.00000000000E+00  0.13256365386E+04  0.13256365386E+04  0.00000000000E+00 0. -1.
          1   -1    0    0  501    0 -0.00000000000E+00 -0.00000000000E+00 -0.11836832688E+03  0.11836832688E+03  0.00000000000E+00 0. -1.
         25    2    1    2    0    0 -0.57527801390E+02 -0.65099684332E+02  0.24761808359E+03  0.29066657937E+03  0.12499971282E+03 0.  0.
          2    1    1    2  501    0  0.46121457214E+02  0.14142862414E+02 -0.90146992851E+02  0.10224328679E+03  0.00000000000E+00 0. -1.
          1    1    1    2  502    0  0.11406344176E+02  0.50956821917E+02  0.10497971210E+04  0.10510949993E+04  0.00000000000E+00 0. -1.
         22    1    3    3    0    0 -0.49909443930E+02 -0.10245869101E+03  0.19061964415E+03  0.22209138816E+03  0.00000000000E+00 0. -1.
         22    1    3    3    0    0 -0.76183574599E+01  0.37359006682E+02  0.56998439441E+02  0.68575191209E+02  0.00000000000E+00 0. -1.
</event>
<event>
 7    1  0.5970484E-006  0.1408485E+03  0.7818608E-02  0.1323826E+00
          2   -1    0    0  502    0  0.00000000000E+00  0.00000000000E+00  0.15124713727E+04  0.15124713727E+04  0.00000000000E+00 0. -1.
          1   -1    0    0  501    0 -0.00000000000E+00 -0.00000000000E+00 -0.13370534071E+04  0.13370534071E+04  0.00000000000E+00 0. -1.
         25    2    1    2    0    0 -0.31447950502E+02  0.12790126573E+03 -0.14136575336E+03  0.23012324030E+03  0.12499888854E+03 0.  0.
          2    1    1    2  501    0  0.78206567906E+02 -0.11905455003E+03 -0.11465147164E+04  0.11553294977E+04  0.00000000000E+00 0. -1.
          1    1    1    2  502    0 -0.46758617405E+02 -0.88467156921E+01  0.14632984353E+04  0.14640720418E+04  0.00000000000E+00 0. -1.
         22    1    3    3    0    0 -0.52568647416E+02  0.14508790952E+03 -0.11851750259E+03  0.19457739488E+03  0.00000000000E+00 0.  1.
         22    1    3    3    0    0  0.21120696914E+02 -0.17186643792E+02 -0.22848250774E+02  0.35545845417E+02  0.00000000000E+00 0.  1.
</event>
<event>
 7    1  0.5970484E-006  0.6040361E+02  0.7818608E-02  0.1483727E+00
          2   -1    0    0  502    0  0.00000000000E+00  0.00000000000E+00  0.31401059764E+04  0.31401059764E+04  0.00000000000E+00 0. -1.
          1   -1    0    0  501    0 -0.00000000000E+00 -0.00000000000E+00 -0.48365076874E+02  0.48365076874E+02  0.00000000000E+00 0. -1.
         25    2    1    2    0    0 -0.12940487987E+02  0.81416853712E+02  0.28311844789E+03  0.32027407951E+03  0.12499308051E+03 0.  0.
          2    1    1    2  501    0 -0.14368311661E+02 -0.27887494713E+02 -0.21118932133E+02  0.37817588974E+02  0.00000000000E+00 0. -1.
          1    1    1    2  502    0  0.27308799647E+02 -0.53529358998E+02  0.28297413838E+04  0.28303793848E+04  0.00000000000E+00 0. -1.
         22    1    3    3    0    0  0.91092539343E+01  0.36092176053E+02  0.26361271372E+03  0.26622788456E+03  0.00000000000E+00 0.  1.
         22    1    3    3    0    0 -0.22049741921E+02  0.45324677659E+02  0.19505734166E+02  0.54046194954E+02  0.00000000000E+00 0.  1.
</event>
<event>
 7    1  0.5970484E-006  0.7024711E+02  0.7818608E-02  0.1361138E+00
          2   -1    0    0  502    0  0.00000000000E+00  0.00000000000E+00  0.37599462734E+03  0.37599462734E+03  0.00000000000E+00 0. -1.
          1   -1    0    0  501    0 -0.00000000000E+00 -0.00000000000E+00 -0.44491935401E+03  0.44491935401E+03  0.00000000000E+00 0. -1.
         25    2    1    2    0    0  0.35599360729E+02 -0.50205575172E+02  0.28129362756E+03  0.31391406255E+03  0.12501207740E+03 0.  0.
          2    1    1    2  501    0  0.64650501010E+02  0.24520224382E+02 -0.39003503263E+03  0.39611646691E+03  0.00000000000E+00 0. -1.
          1    1    1    2  502    0 -0.10024986174E+03  0.25685350791E+02  0.39816678398E+02  0.11088345189E+03  0.00000000000E+00 0. -1.
         22    1    3    3    0    0  0.75360813900E+02 -0.10557851467E+02  0.11082300853E+03  0.13443384886E+03  0.00000000000E+00 0. -1.
         22    1    3    3    0    0 -0.39761453171E+02 -0.39647723705E+02  0.17047061903E+03  0.17948021369E+03  0.00000000000E+00 0. -1.
</event>
<event>
 7    1  0.5970484E-006  0.9113238E+02  0.7818608E-02  0.1406886E+00
          2   -1    0    0  502    0  0.00000000000E+00  0.00000000000E+00  0.86149880242E+03  0.86149880242E+03  0.00000000000E+00 0. -1.
          1   -1    0    0  501    0 -0.00000000000E+00 -0.00000000000E+00 -0.34665035077E+03  0.34665035077E+03  0.00000000000E+00 0. -1.
         25    2    1    2    0    0 -0.66267321215E+02  0.10831800577E+03 -0.29361263989E+02  0.18058994462E+03  0.12500598402E+03 0.  0.
          2    1    1    2  501    0  0.20480764922E+02 -0.30549023954E+02 -0.23766473454E+03  0.24049372266E+03  0.00000000000E+00 0. -1.
          1    1    1    2  502    0  0.45786556293E+02 -0.77768981814E+02  0.78187445017E+03  0.78706548591E+03  0.00000000000E+00 0. -1.
         22    1    3    3    0    0 -0.88757484439E+02  0.12273101143E+03 -0.25728082357E+02  0.15363178848E+03  0.00000000000E+00 0. -1.
         22    1    3    3    0    0  0.22490163224E+02 -0.14413005658E+02 -0.36331816318E+01  0.26958156145E+02  0.00000000000E+00 0. -1.
</event>
<event>
 7    1  0.5970484E-006  0.7218301E+02  0.7818608E-02  0.1384999E+00
          2   -1    0    0  502    0  0.00000000000E+00  0.00000000000E+00  0.11326145159E+04  0.11326145159E+04  0.00000000000E+00 0. -1.
          1   -1    0    0  501    0 -0.00000000000E+00 -0.00000000000E+00 -0.15189247466E+03  0.15189247466E+03  0.00000000000E+00 0. -1.
         25    2    1    2    0    0  0.10390853283E+03  0.66310364439E+02  0.88051439261E+02  0.19640128900E+03  0.12500545084E+03 0.  0.
          2    1    1    2  501    0 -0.52500748064E+02 -0.17302240778E+02 -0.88512166773E+02  0.10435564072E+03  0.00000000000E+00 0. -1.
          1    1    1    2  502    0 -0.51407784770E+02 -0.49008123660E+02  0.98118276875E+03  0.98375006084E+03  0.00000000000E+00 0. -1.
         22    1    3    3    0    0  0.35103417217E+02 -0.13770386555E+02 -0.22193858145E+02  0.43754323049E+02  0.00000000000E+00 0. -1.
         22    1    3    3    0    0  0.68805115617E+02  0.80080750993E+02  0.11024529741E+03  0.15264696595E+03  0.00000000000E+00 0. -1.
</event>
<event>
 7    1  0.5970484E-006  0.7813919E+02  0.7818608E-02  0.1345341E+00
          2   -1    0    0  502    0  0.00000000000E+00  0.00000000000E+00  0.21009226107E+03  0.21009226107E+03  0.00000000000E+00 0. -1.
          1   -1    0    0  501    0 -0.00000000000E+00 -0.00000000000E+00 -0.90066349698E+03  0.90066349698E+03  0.00000000000E+00 0. -1.
         25    2    1    2    0    0 -0.10755616027E+02  0.20641967115E+02 -0.21033786510E+03  0.24578142604E+03  0.12499887124E+03 0.  0.
          2    1    1    2  501    0  0.51707973040E+02  0.48775187927E+02 -0.66217555109E+03  0.66597987499E+03  0.00000000000E+00 0. -1.
          1    1    1    2  502    0 -0.40952357013E+02 -0.69417155042E+02  0.18194218027E+03  0.19899445701E+03  0.00000000000E+00 0. -1.
         22    1    3    3    0    0 -0.62287579438E+02  0.27545570898E+02 -0.15778203915E+03  0.17185363804E+03  0.00000000000E+00 0. -1.
         22    1    3    3    0    0  0.51531963412E+02 -0.69036037831E+01 -0.52555825947E+02  0.73927788004E+02  0.00000000000E+00 0. -1.
</event>
<event>
 7    1  0.5970484E-006  0.4705815E+02  0.7818608E-02  0.1495349E+00
          2   -1    0    0  502    0  0.00000000000E+00  0.00000000000E+00  0.68941064843E+03  0.68941064843E+03  0.00000000000E+00 0. -1.
          1   -1    0    0  501    0 -0.00000000000E+00 -0.00000000000E+00 -0.24603009535E+02  0.24603009535E+02  0.00000000000E+00 0. -1.
         25    2    1    2    0    0  0.40132959581E+02 -0.54454535162E+02  0.34628657520E+03  0.37431905697E+03  0.12499765356E+03 0.  0.
          2    1    1    2  501    0 -0.41676853034E+02  0.17352257221E+02  0.45274288155E+02  0.63936078057E+02  0.00000000000E+00 0. -1.
          1    1    1    2  502    0  0.15438934521E+01  0.37102277941E+02  0.27324677553E+03  0.27575852294E+03  0.00000000000E+00 0. -1.
         22    1    3    3    0    0  0.35708297385E+02 -0.88837211596E+02  0.17422583883E+03  0.19880084402E+03  0.00000000000E+00 0. -1.
         22    1    3    3    0    0  0.44246621961E+01  0.34382676434E+02  0.17206073637E+03  0.17551821295E+03  0.00000000000E+00 0. -1.
</event>
<event>
 7    1  0.5970484E-006  0.5136354E+02  0.7818608E-02  0.1501217E+00
          2   -1    0    0  502    0  0.00000000000E+00  0.00000000000E+00  0.53639832953E+03  0.53639832953E+03  0.00000000000E+00 0. -1.
          1   -1    0    0  501    0 -0.00000000000E+00 -0.00000000000E+00 -0.59417299458E+03  0.59417299458E+03  0.00000000000E+00 0. -1.
         25    2    1    2    0    0 -0.43093348129E+01 -0.40267936364E+02 -0.10995675408E+03  0.17133427882E+03  0.12499948106E+03 0.  0.
          2    1    1    2  501    0  0.36834945697E+02  0.37156771961E+02 -0.45148739196E+03  0.45450886023E+03  0.00000000000E+00 0. -1.
          1    1    1    2  502    0 -0.32525610884E+02  0.31111644034E+01  0.50366948099E+03  0.50472818506E+03  0.00000000000E+00 0. -1.
         22    1    3    3    0    0 -0.18484371589E+02  0.27660302990E+02 -0.94578832166E+02  0.10025926316E+03  0.00000000000E+00 0.  1.
         22    1    3    3    0    0  0.14175036776E+02 -0.67928239354E+02 -0.15377921917E+02  0.71075015665E+02  0.00000000000E+00 0.  1.
</event>
<event>
 7    1  0.5970484E-006  0.9214474E+02  0.7818608E-02  0.1361513E+00
          2   -1    0    0  502    0  0.00000000000E+00  0.00000000000E+00  0.15048822794E+03  0.15048822794E+03  0.00000000000E+00 0. -1.
          1   -1    0    0  501    0 -0.00000000000E+00 -0.00000000000E+00 -0.63469907306E+03  0.63469907306E+03  0.00000000000E+00 0. -1.
         25    2    1    2    0    0  0.98301521476E+01  0.50316058772E+02 -0.16367368636E+03  0.21223321122E+03  0.12500209068E+03 0.  0.
          2    1    1    2  501    0  0.42590467237E+02  0.30777918917E+02 -0.42642408071E+03  0.42964953718E+03  0.00000000000E+00 0. -1.
          1    1    1    2  502    0 -0.52420619385E+02 -0.81093977690E+02  0.10588692196E+03  0.14330455260E+03  0.00000000000E+00 0. -1.
         22    1    3    3    0    0  0.51452583656E+01 -0.16259796598E+02  0.14237113692E+02  0.22215986931E+02  0.00000000000E+00 0. -1.
         22    1    3    3    0    0  0.46848937820E+01  0.66575855370E+02 -0.17791080006E+03  0.19001722428E+03  0.00000000000E+00 0. -1.
</event>
<event>
 7    1  0.5970484E-006  0.1185971E+03  0.7818608E-02  0.1337472E+00
          2   -1    0    0  502    0  0.00000000000E+00  0.00000000000E+00  0.29457110819E+04  0.29457110819E+04  0.00000000000E+00 0. -1.
          1   -1    0    0  501    0 -0.00000000000E+00 -0.00000000000E+00 -0.16869962409E+02  0.16869962409E+02  0.00000000000E+00 0. -1.
         25    2    1    2    0    0  0.44515789496E+02 -0.88573938277E+02  0.10333889642E+04  0.10456321189E+04  0.12500711512E+03 0.  0.
          2    1    1    2  501    0 -0.94588662887E+02  0.86180442117E+02  0.38585348617E+03  0.40651813802E+03  0.00000000000E+00 0. -1.
          1    1    1    2  502    0  0.50072873391E+02  0.23934961604E+01  0.15095986692E+04  0.15104307874E+04  0.00000000000E+00 0. -1.
         22    1    3    3    0    0 -0.20699826761E+02  0.20412367628E+02  0.29192091010E+03  0.29336490133E+03  0.00000000000E+00 0.  1.
         22    1    3    3    0    0  0.65215616257E+02 -0.10898630590E+03  0.74146805407E+03  0.75226721761E+03  0.00000000000E+00 0.  1.
</event>
<event>
 7    1  0.5970484E-006  0.8371178E+02  0.7818608E-02  0.1319892E+00
          2   -1    0    0  502    0  0.00000000000E+00  0.00000000000E+00  0.12650449769E+04  0.12650449769E+04  0.00000000000E+00 0. -1.
          1   -1    0    0  501    0 -0.00000000000E+00 -0.00000000000E+00 -0.34603128938E+03  0.34603128938E+03  0.00000000000E+00 0. -1.
         25    2    1    2    0    0  0.32536340386E+02 -0.22219715321E+02  0.50756735978E+02  0.14054795883E+03  0.12500061315E+03 0.  0.
          2    1    1    2  501    0 -0.59553889157E+02 -0.58830238190E+02 -0.29371924848E+03  0.30541555227E+03  0.00000000000E+00 0. -1.
          1    1    1    2  502    0  0.27017548771E+02  0.81049953511E+02  0.11619762001E+04  0.11651127552E+04  0.00000000000E+00 0. -1.
         22    1    3    3    0    0 -0.16168264972E+02 -0.44782044430E+02  0.69020475264E+02  0.83849092429E+02  0.00000000000E+00 0. -1.
         22    1    3    3    0    0  0.48704605358E+02  0.22562329110E+02 -0.18263739286E+02  0.56698866396E+02  0.00000000000E+00 0. -1.
</event>
<event>
 7    1  0.5970484E-006  0.1745930E+03  0.7818608E-02  0.1245864E+00
          2   -1    0    0  502    0  0.00000000000E+00  0.00000000000E+00  0.30954936294E+03  0.30954936294E+03  0.00000000000E+00 0. -1.
          1   -1    0    0  501    0 -0.00000000000E+00 -0.00000000000E+00 -0.16919970768E+04  0.16919970768E+04  0.00000000000E+00 0. -1.
         25    2    1    2    0    0 -0.22735261586E+03  0.98071035573E+02 -0.26480341053E+03  0.38347611522E+03  0.12500377899E+03 0.  0.
          2    1    1    2  501    0  0.76888389009E+02 -0.22839038374E+02 -0.13382449556E+04  0.13406464886E+04  0.00000000000E+00 0. -1.
          1    1    1    2  502    0  0.15046422685E+03 -0.75231997200E+02  0.22060065230E+03  0.27742383596E+03  0.00000000000E+00 0. -1.
         22    1    3    3    0    0 -0.17445461561E+03  0.10964083547E+03 -0.14484946749E+03  0.25186681787E+03  0.00000000000E+00 0.  1.
         22    1    3    3    0    0 -0.52898000250E+02 -0.11569799900E+02 -0.11995394303E+03  0.13160929735E+03  0.00000000000E+00 0.  1.
</event>
<event>
 7    1  0.5970484E-006  0.9905854E+02  0.7818608E-02  0.1408756E+00
          2   -1    0    0  502    0  0.00000000000E+00  0.00000000000E+00  0.10123758667E+03  0.10123758667E+03  0.00000000000E+00 0. -1.
          1   -1    0    0  501    0 -0.00000000000E+00 -0.00000000000E+00 -0.63414261921E+03  0.63414261921E+03  0.00000000000E+00 0. -1.
         25    2    1    2    0    0 -0.99281928152E+02  0.24933041481E+01 -0.20148844506E+03  0.25707208704E+03  0.12500138647E+03 0.  0.
          2    1    1    2  501    0  0.59885999127E+01  0.32802418683E+02 -0.36989643012E+03  0.37139632607E+03  0.00000000000E+00 0. -1.
          1    1    1    2  502    0  0.93293328239E+02 -0.35295722831E+02  0.38479842638E+02  0.10691179277E+03  0.00000000000E+00 0. -1.
         22    1    3    3    0    0 -0.11301529322E+03 -0.71993355852E+01 -0.20973044693E+03  0.23835089114E+03  0.00000000000E+00 0.  1.
         22    1    3    3    0    0  0.13733365071E+02  0.96926397332E+01  0.82420018749E+01  0.18721195904E+02  0.00000000000E+00 0.  1.
</event>
<event>
 7    1  0.5970484E-006  0.1323966E+03  0.7818608E-02  0.1252041E+00
          2   -1    0    0  502    0  0.00000000000E+00  0.00000000000E+00  0.30989889342E+04  0.30989889342E+04  0.00000000000E+00 0. -1.
          1   -1    0    0  501    0 -0.00000000000E+00 -0.00000000000E+00 -0.43461411903E+03  0.43461411903E+03  0.00000000000E+00 0. -1.
         25    2    1    2    0    0 -0.79090860162E+02  0.16610386376E+03  0.38148843955E+03  0.44159403431E+03  0.12500401557E+03 0.  0.
          2    1    1    2  501    0  0.92755683892E+02 -0.35822620259E+02 -0.39682747984E+03  0.40909525269E+03  0.00000000000E+00 0. -1.
          1    1    1    2  502    0 -0.13664823730E+02 -0.13028124350E+03  0.26797138555E+04  0.26829137663E+04  0.00000000000E+00 0. -1.
         22    1    3    3    0    0 -0.52407944018E+02  0.13712254276E+03  0.16207468930E+03  0.21867187575E+03  0.00000000000E+00 0. -1.
         22    1    3    3    0    0 -0.26682916143E+02  0.28981320998E+02  0.21941375024E+03  0.22292215856E+03  0.00000000000E+00 0. -1.
</event>
<event>
 7    1  0.5970484E-006  0.1173679E+03  0.7818608E-02  0.1261190E+00
          2   -1    0    0  502    0  0.00000000000E+00  0.00000000000E+00  0.22545273993E+04  0.22545273993E+04  0.00000000000E+00 0. -1.
          1   -1    0    0  501    0 -0.00000000000E+00 -0.00000000000E+00 -0.69165723169E+03  0.69165723169E+03  0.00000000000E+00 0. -1.
         25    2    1    2    0    0 -0.13815308307E+03 -0.11507006156E+03 -0.11782160217E+03  0.24867014833E+03  0.12501007681E+03 0.  0.
          2    1    1    2  501    0  0.11247337257E+03  0.15870434186E+02 -0.50084936116E+03  0.51356811894E+03  0.00000000000E+00 0. -1.
          1    1    1    2  502    0  0.25679710506E+02  0.99199627373E+02  0.21815411310E+04  0.21839463638E+04  0.00000000000E+00 0. -1.
         22    1    3    3    0    0 -0.61283092845E+02 -0.86076549678E+02 -0.77266135052E+00  0.10566639427E+03  0.00000000000E+00 0.  1.
         22    1    3    3    0    0 -0.76869990230E+02 -0.28993511881E+02 -0.11704894082E+03  0.14300375406E+03  0.00000000000E+00 0.  1.
</event>
<event>
 7    1  0.5970484E-006  0.5826785E+02  0.7818608E-02  0.1466025E+00
          2   -1    0    0  502    0  0.00000000000E+00  0.00000000000E+00  0.20306430510E+04  0.20306430510E+04  0.00000000000E+00 0. -1.
          1   -1    0    0  501    0 -0.00000000000E+00 -0.00000000000E+00 -0.17057601996E+04  0.17057601996E+04  0.00000000000E+00 0. -1.
         25    2    1    2    0    0  0.66482217411E+01 -0.89915651517E+02  0.17670863412E+03  0.23447808977E+03  0.12500003988E+03 0.  0.
          2    1    1    2  501    0 -0.16548590498E+02  0.32965413304E+02 -0.16762148156E+04  0.16766206137E+04  0.00000000000E+00 0. -1.
          1    1    1    2  502    0  0.99003687570E+01  0.56950238214E+02  0.18243890328E+04  0.18253045471E+04  0.00000000000E+00 0. -1.
         22    1    3    3    0    0  0.53923142780E+02 -0.46516567978E+02  0.35936289427E+02  0.79767871486E+02  0.00000000000E+00 0. -1.
         22    1    3    3    0    0 -0.47274921039E+02 -0.43399083540E+02  0.14077234469E+03  0.15471021828E+03  0.00000000000E+00 0. -1.
</event>
<event>
 7    1  0.5970484E-006  0.4806142E+02  0.7818608E-02  0.1586225E+00
          2   -1    0    0  502    0  0.00000000000E+00  0.00000000000E+00  0.10363094883E+04  0.10363094883E+04  0.00000000000E+00 0. -1.
          1   -1    0    0  501    0 -0.00000000000E+00 -0.00000000000E+00 -0.59562367731E+02  0.59562367731E+02  0.00000000000E+00 0. -1.
         25    2    1    2    0    0 -0.28616619499E+02 -0.15490874852E+02  0.67612393674E+02  0.14580189354E+03  0.12501151253E+03 0.  0.
          2    1    1    2  501    0 -0.18936654397E+02  0.68163485783E+01 -0.14730606968E+02  0.24940935614E+02  0.00000000000E+00 0. -1.
          1    1    1    2  502    0  0.47553273896E+02  0.86745262738E+01  0.92386533382E+03  0.92512902684E+03  0.00000000000E+00 0. -1.
         22    1    3    3    0    0 -0.42667639077E+02 -0.25216135516E+02 -0.22251413715E+02  0.54327767551E+02  0.00000000000E+00 0.  1.
         22    1    3    3    0    0  0.14051019578E+02  0.97252606642E+01  0.89863807390E+02  0.91474125985E+02  0.00000000000E+00 0.  1.
</event>
<event>
 7    1  0.5970484E-006  0.1708414E+03  0.7818608E-02  0.1266536E+00
          2   -1    0    0  502    0  0.00000000000E+00  0.00000000000E+00  0.81313498389E+03  0.81313498389E+03  0.00000000000E+00 0. -1.
          1   -1    0    0  501    0 -0.00000000000E+00 -0.00000000000E+00 -0.28823392189E+03  0.28823392189E+03  0.00000000000E+00 0. -1.
         25    2    1    2    0    0  0.16478084533E+03  0.59258804943E+02 -0.38392789598E+02  0.21854702182E+03  0.12499784599E+03 0.  0.
          2    1    1    2  501    0  0.65281892609E+01 -0.66495288965E+02 -0.14202746979E+03  0.15695872988E+03  0.00000000000E+00 0. -1.
          1    1    1    2  502    0 -0.17130903459E+03  0.72364840227E+01  0.70532132139E+03  0.72586315407E+03  0.00000000000E+00 0. -1.
         22    1    3    3    0    0  0.74227434541E+02  0.42122262852E+02 -0.80410702268E+02  0.11725987423E+03  0.00000000000E+00 0. -1.
         22    1    3    3    0    0  0.90553410787E+02  0.17136542091E+02  0.42017912671E+02  0.10128714758E+03  0.00000000000E+00 0. -1.
</event>
<event>
 7    1  0.5970484E-006  0.1078744E+03  0.7818608E-02  0.1380186E+00
          2   -1    0    0  502    0  0.00000000000E+00  0.00000000000E+00  0.16153750200E+04  0.16153750200E+04  0.00000000000E+00 0. -1.
          1   -1    0    0  501    0 -0.00000000000E+00 -0.00000000000E+00 -0.16544164117E+04  0.16544164117E+04  0.00000000000E+00 0. -1.
         25    2    1    2    0    0 -0.11027326864E+03 -0.28192302224E+02  0.89680855991E+02  0.19137086101E+03  0.12500060332E+03 0.  0.
          2    1    1    2  501    0  0.28597473677E+01  0.38357646296E+02 -0.16013669085E+04  0.16018287869E+04  0.00000000000E+00 0. -1.
          1    1    1    2  502    0  0.10741352128E+03 -0.10165344072E+02  0.14726446608E+04  0.14765917837E+04  0.00000000000E+00 0. -1.
         22    1    3    3    0    0 -0.38032083558E+01 -0.47257249514E+02  0.64955666732E+02  0.80417353015E+02  0.00000000000E+00 0.  1.
         22    1    3    3    0    0 -0.10647006029E+03  0.19064947290E+02  0.24725189260E+02  0.11095350800E+03  0.00000000000E+00 0.  1.
</event>
<event>
 7    1  0.5970484E-006  0.1017121E+03  0.7818608E-02  0.1387083E+00
          2   -1    0    0  502    0  0.00000000000E+00  0.00000000000E+00  0.59935652279E+03  0.59935652279E+03  0.00000000000E+00 0. -1.
          1   -1    0    0  501    0 -0.00000000000E+00 -0.00000000000E+00 -0.16761040796E+03  0.16761040796E+03  0.00000000000E+00 0. -1.
         25    2    1    2    0    0 -0.17030768365E+02  0.81831066078E+02 -0.11858683236E+02  0.15083582815E+03  0.12499779294E+03 0.  0.
          2    1    1    2  501    0 -0.38210404593E+02  0.52902259475E+01 -0.76617001704E+02  0.85779872114E+02  0.00000000000E+00 0. -1.
          1    1    1    2  502    0  0.55241172958E+02 -0.87121292025E+02  0.52022179978E+03  0.53035123048E+03  0.00000000000E+00 0. -1.
         22    1    3    3    0    0 -0.59865801706E+01  0.10640150880E+03 -0.38151357757E+02  0.11319296054E+03  0.00000000000E+00 0.  1.
         22    1    3    3    0    0 -0.11044188194E+02 -0.24570442723E+02  0.26292674521E+02  0.37642867610E+02  0.00000000000E+00 0.  1.
</event>
<event>
 7    1  0.5970484E-006  0.7145369E+02  0.7818608E-02  0.1388122E+00
          2   -1    0    0  502    0  0.00000000000E+00  0.00000000000E+00  0.76870354966E+03  0.76870354966E+03  0.00000000000E+00 0. -1.
          1   -1    0    0  501    0 -0.00000000000E+00 -0.00000000000E+00 -0.48516754608E+02  0.48516754608E+02  0.00000000000E+00 0. -1.
         25    2    1    2    0    0 -0.51994815606E+02 -0.59717812013E+02  0.16591311748E+03  0.22231118064E+03  0.12500168224E+03 0.  0.
          2    1    1    2  501    0 -0.54830519502E+00  0.74008214664E+02  0.53840453533E+02  0.91522188091E+02  0.00000000000E+00 0. -1.
          1    1    1    2  502    0  0.52543120801E+02 -0.14290402651E+02  0.50043322403E+03  0.50338693553E+03  0.00000000000E+00 0. -1.
         22    1    3    3    0    0 -0.20423486931E+02 -0.71452055293E+02  0.17264854740E+03  0.18796285789E+03  0.00000000000E+00 0.  1.
         22    1    3    3    0    0 -0.31571328675E+02  0.11734243280E+02 -0.67354299215E+01  0.34348322752E+02  0.00000000000E+00 0.  1.
</event>
<event>
 7    1  0.5970484E-006  0.2606503E+03  0.7818608E-02  0.1251200E+00
          2   -1    0    0  502    0  0.00000000000E+00  0.00000000000E+00  0.14581064330E+04  0.14581064330E+04  0.00000000000E+00 0. -1.
          1   -1    0    0  501    0 -0.00000000000E+00 -0.00000000000E+00 -0.16179924060E+03  0.16179924060E+03  0.00000000000E+00 0. -1.
         25    2    1    2    0    0  0.78351732233E+02  0.20990666957E+03  0.11425339074E+04  0.11709856777E+04  0.12499569522E+03 0.  0.
          2    1    1    2  501    0 -0.60592838323E+02 -0.25764188384E+03 -0.22318548569E+02  0.26561052309E+03  0.00000000000E+00 0. -1.
          1    1    1    2  502    0 -0.17758893910E+02  0.47735214269E+02  0.17609183357E+03  0.18330947287E+03  0.00000000000E+00 0. -1.
         22    1    3    3    0    0  0.10009174065E+03  0.99522691613E+02  0.54697785953E+03  0.56489636351E+03  0.00000000000E+00 0.  1.
         22    1    3    3    0    0 -0.21740008415E+02  0.11038397796E+03  0.59555604792E+03  0.60608931418E+03  0.00000000000E+00 0.  1.
</event>
<event>
 7    1  0.5970484E-006  0.1456908E+03  0.7818608E-02  0.1319872E+00
          2   -1    0    0  502    0  0.00000000000E+00  0.00000000000E+00  0.16320822062E+04  0.16320822062E+04  0.00000000000E+00 0. -1.
          1   -1    0    0  501    0 -0.00000000000E+00 -0.00000000000E+00 -0.33222937283E+03  0.33222937283E+03  0.00000000000E+00 0. -1.
         25    2    1    2    0    0  0.14315611745E+02  0.16018949766E+03  0.37803834383E+03  0.42942072670E+03  0.12499423671E+03 0.  0.
          2    1    1    2  501    0  0.29828858630E+02 -0.14223518318E+03 -0.28881788656E+03  0.32332086190E+03  0.00000000000E+00 0. -1.
          1    1    1    2  502    0 -0.44144470375E+02 -0.17954314476E+02  0.12106323761E+04  0.12115699905E+04  0.00000000000E+00 0. -1.
         22    1    3    3    0    0  0.17235598983E+02  0.11211318171E+03  0.36088670970E+03  0.37829307240E+03  0.00000000000E+00 0.  1.
         22    1    3    3    0    0 -0.29199872379E+01  0.48076315947E+02  0.17151634123E+02  0.51127654293E+02  0.00000000000E+00 0.  1.
</event>
<event>
 7    1  0.5970484E-006  0.1778107E+03  0.7818608E-02  0.1239238E+00
          2   -1    0    0  502    0  0.00000000000E+00  0.00000000000E+00  0.42411109309E+04  0.42411109309E+04  0.00000000000E+00 0. -1.
          1   -1    0    0  501    0 -0.00000000000E+00 -0.00000000000E+00 -0.88365717089E+03  0.88365717089E+03  0.00000000000E+00 0. -1.
         25    2    1    2    0    0  0.21289277211E+03  0.12037680411E+03  0.48920660656E+03  0.56103606223E+03  0.12499780734E+03 0.  0.
          2    1    1    2  501    0 -0.12868095414E+03 -0.12118245832E+03 -0.83804503213E+03  0.85648318842E+03  0.00000000000E+00 0. -1.
          1    1    1    2  502    0 -0.84211817968E+02  0.80565421374E+00  0.37062921856E+04  0.37072488511E+04  0.00000000000E+00 0. -1.
         22    1    3    3    0    0  0.47984758440E+01  0.52475921090E+02  0.13156695104E+03  0.14172723898E+03  0.00000000000E+00 0.  1.
         22    1    3    3    0    0  0.20809429626E+03  0.67900883017E+02  0.35763965553E+03  0.41930882325E+03  0.00000000000E+00 0.  1.
</event>
<event>
 7    1  0.5970484E-006  0.1280348E+03  0.7818608E-02  0.1377774E+00
          2   -1    0    0  502    0  0.00000000000E+00  0.00000000000E+00  0.22139406677E+04  0.22139406677E+04  0.00000000000E+00 0. -1.
          1   -1    0    0  501    0 -0.00000000000E+00 -0.00000000000E+00 -0.36599324984E+03  0.36599324984E+03  0.00000000000E+00 0. -1.
         25    2    1    2    0    0  0.56701309080E+02  0.11939772213E+03  0.26491020776E+03  0.32135998493E+03  0.12499586889E+03 0.  0.
          2    1    1    2  501    0 -0.32446346662E+02  0.62999018958E+01 -0.33482074936E+03  0.33644819568E+03  0.00000000000E+00 0. -1.
          1    1    1    2  502    0 -0.24254962417E+02 -0.12569762403E+03  0.19178579595E+04  0.19221257369E+04  0.00000000000E+00 0. -1.
         22    1    3    3    0    0 -0.31426985140E+02  0.64737875695E+02  0.15126803683E+03  0.16751318429E+03  0.00000000000E+00 0. -1.
         22    1    3    3    0    0  0.88128294219E+02  0.54659846440E+02  0.11364217093E+03  0.15384680065E+03  0.00000000000E+00 0. -1.
</event>
<event>
 7    1  0.1394777E-005  0.7618820E+02  0.7818608E-02  0.1458761E+00
          2   -1    0    0  502    0  0.00000000000E+00  0.00000000000E+00  0.11529997022E+04  0.11529997022E+04  0.00000000000E+00 0. -1.
          1   -1    0    0  501    0 -0.00000000000E+00 -0.00000000000E+00 -0.11492332410E+04  0.11492332410E+04  0.00000000000E+00 0. -1.
         25    2    1    2    0    0 -0.57809762639E+02  0.58992962844E+02 -0.57358067514E+03  0.59282926902E+03  0.12501845063E+03 0.  0.
          2    1    1    2  501    0  0.27637819067E+02  0.10964172694E+02 -0.56436736395E+03  0.56515005407E+03  0.00000000000E+00 0. -1.
          1    1    1    2  502    0  0.30171943572E+02 -0.69957135537E+02  0.11417145003E+04  0.11442536201E+04  0.00000000000E+00 0. -1.
         22    1    3    3    0    0 -0.40306956994E+01  0.67734755109E+02 -0.47814585129E+03  0.48293653689E+03  0.00000000000E+00 0. -1.
         22    1    3    3    0    0 -0.53779066940E+02 -0.87417922650E+01 -0.95434823852E+02  0.10989273214E+03  0.00000000000E+00 0. -1.
</event>
<event>
 7    1  0.5970484E-006  0.9325263E+02  0.7818608E-02  0.1322231E+00
          2   -1    0    0  502    0  0.00000000000E+00  0.00000000000E+00  0.32512727228E+02  0.32512727228E+02  0.00000000000E+00 0. -1.
          1   -1    0    0  501    0 -0.00000000000E+00 -0.00000000000E+00 -0.88973827498E+03  0.88973827498E+03  0.00000000000E+00 0. -1.
         25    2    1    2    0    0 -0.36632742554E+02 -0.22433661619E+02 -0.42135688355E+03  0.44160227536E+03  0.12500287712E+03 0.  0.
          2    1    1    2  501    0 -0.65611707933E+02 -0.31782531256E+02 -0.26070533660E+03  0.27070703360E+03  0.00000000000E+00 0. -1.
          1    1    1    2  502    0  0.10224445049E+03  0.54216192875E+02 -0.17516332760E+03  0.20994169325E+03  0.00000000000E+00 0. -1.
         22    1    3    3    0    0 -0.41198775727E+00  0.25517857442E+02 -0.12619206563E+02  0.28470601620E+02  0.00000000000E+00 0.  1.
         22    1    3    3    0    0 -0.36220754797E+02 -0.47951519061E+02 -0.40873767699E+03  0.41313167374E+03  0.00000000000E+00 0.  1.
</event>
<event>
 7    1  0.5970484E-006  0.7817987E+02  0.7818608E-02  0.1487716E+00
          2   -1    0    0  502    0  0.00000000000E+00  0.00000000000E+00  0.41421971877E+02  0.41421971877E+02  0.00000000000E+00 0. -1.
          1   -1    0    0  501    0 -0.00000000000E+00 -0.00000000000E+00 -0.66798823329E+03  0.66798823329E+03  0.00000000000E+00 0. -1.
         25    2    1    2    0    0  0.43135523243E+02  0.44272202366E+02 -0.17230002769E+03  0.22165681555E+03  0.12499497219E+03 0.  0.
          2    1    1    2  501    0 -0.43681978434E+02 -0.67835943678E+02 -0.45696143007E+03  0.46402971787E+03  0.00000000000E+00 0. -1.
          1    1    1    2  502    0  0.54645519122E+00  0.23563741312E+02  0.26951963418E+01  0.23723671748E+02  0.00000000000E+00 0. -1.
         22    1    3    3    0    0  0.57553601258E+02 -0.53367850377E+01 -0.20535234057E+02  0.61339988018E+02  0.00000000000E+00 0. -1.
         22    1    3    3    0    0 -0.14418078015E+02  0.49608987404E+02 -0.15176479363E+03  0.16031682753E+03  0.00000000000E+00 0. -1.
</event>
<event>
 7    1  0.5970484E-006  0.6207737E+02  0.7818608E-02  0.1444862E+00
          2   -1    0    0  502    0  0.00000000000E+00  0.00000000000E+00  0.21257463450E+04  0.21257463450E+04  0.00000000000E+00 0. -1.
          1   -1    0    0  501    0 -0.00000000000E+00 -0.00000000000E+00 -0.23540359901E+03  0.23540359901E+03  0.00000000000E+00 0. -1.
         25    2    1    2    0    0 -0.91871124233E+02 -0.20704361423E+02  0.14146153903E+04  0.14232464090E+04  0.12499865676E+03 0.  0.
          2    1    1    2  501    0  0.53077036303E+02  0.32038700333E+02 -0.22633821980E+03  0.23467560556E+03  0.00000000000E+00 0. -1.
          1    1    1    2  502    0  0.38794087930E+02 -0.11334338910E+02  0.70206557553E+03  0.70322792951E+03  0.00000000000E+00 0. -1.
         22    1    3    3    0    0 -0.17850978143E+02 -0.57228211367E+02  0.32307678158E+03  0.32859143688E+03  0.00000000000E+00 0.  1.
         22    1    3    3    0    0 -0.74020146090E+02  0.36523849943E+02  0.10915386087E+04  0.10946549721E+04  0.00000000000E+00 0.  1.
</event>
<event>
 7    1  0.5970484E-006  0.1000425E+03  0.7818608E-02  0.1356661E+00
          2   -1    0    0  502    0  0.00000000000E+00  0.00000000000E+00  0.25740447149E+04  0.25740447149E+04  0.00000000000E+00 0. -1.
          1   -1    0    0  501    0 -0.00000000000E+00 -0.00000000000E+00 -0.12276744467E+04  0.12276744467E+04  0.00000000000E+00 0. -1.
         25    2    1    2    0    0 -0.98811555356E+02  0.77311257805E+02 -0.26564655137E+02  0.17908448024E+03  0.12499926442E+03 0.  0.
          2    1    1    2  501    0  0.26335901696E+01 -0.50346928726E+02 -0.11232856298E+04  0.11244164510E+04  0.00000000000E+00 0. -1.
          1    1    1    2  502    0  0.96177965186E+02 -0.26964329079E+02  0.24962205533E+04  0.24982182304E+04  0.00000000000E+00 0. -1.
         22    1    3    3    0    0 -0.96723921616E+02  0.48920321630E+02  0.32801267404E+02  0.11324591836E+03  0.00000000000E+00 0.  1.
         22    1    3    3    0    0 -0.20876337400E+01  0.28390936175E+02 -0.59365922542E+02  0.65838561882E+02  0.00000000000E+00 0.  1.
</event>
<event>
 7    1  0.5970484E-006  0.7013703E+02  0.7818608E-02  0.1505201E+00
          2   -1    0    0  502    0  0.00000000000E+00  0.00000000000E+00  0.35222943837E+03  0.35222943837E+03  0.00000000000E+00 0. -1.
          1   -1    0    0  501    0 -0.00000000000E+00 -0.00000000000E+00 -0.16999340069E+04  0.16999340069E+04  0.00000000000E+00 0. -1.
         25    2    1    2    0    0 -0.78748837059E+02  0.48283416477E+01  0.24347345648E+02  0.14981009671E+03  0.12500231844E+03 0.  0.
          2    1    1    2  501    0  0.10839201996E+02 -0.20608199375E+02 -0.16325351912E+04  0.16327012392E+04  0.00000000000E+00 0. -1.
          1    1    1    2  502    0  0.67909635063E+02  0.15779857728E+02  0.26048327702E+03  0.26965210930E+03  0.00000000000E+00 0. -1.
         22    1    3    3    0    0 -0.54140105110E+02 -0.50123080342E+02  0.44686519169E+02  0.86257516540E+02  0.00000000000E+00 0. -1.
         22    1    3    3    0    0 -0.24608731950E+02  0.54951421990E+02 -0.20339173520E+02  0.63552580171E+02  0.00000000000E+00 0. -1.
</event>
<event>
 7    1  0.5970484E-006  0.5033725E+02  0.7818608E-02  0.1457995E+00
          2   -1    0    0  502    0  0.00000000000E+00  0.00000000000E+00  0.29892447818E+04  0.29892447818E+04  0.00000000000E+00 0. -1.
          1   -1    0    0  501    0 -0.00000000000E+00 -0.00000000000E+00 -0.19416697996E+03  0.19416697996E+03  0.00000000000E+00 0. -1.
         25    2    1    2    0    0 -0.94976849233E+02 -0.75657244375E+01  0.14930125310E+03  0.21678278385E+03  0.12500427641E+03 0.  0.
          2    1    1    2  501    0  0.45173537414E+02  0.27056105673E+01 -0.15700698504E+03  0.16339878262E+03  0.00000000000E+00 0. -1.
          1    1    1    2  502    0  0.49803311819E+02  0.48601138702E+01  0.28027835337E+04  0.28032301953E+04  0.00000000000E+00 0. -1.
         22    1    3    3    0    0 -0.10401787044E+03 -0.15128896526E+01  0.47428240949E+02  0.11433041698E+03  0.00000000000E+00 0.  1.
         22    1    3    3    0    0  0.90410212096E+01 -0.60528347849E+01  0.10187301215E+03  0.10245236688E+03  0.00000000000E+00 0.  1.
</event>
<event>
 7    1  0.5970484E-006  0.1098114E+03  0.7818608E-02  0.1308655E+00
          2   -1    0    0  502    0  0.00000000000E+00  0.00000000000E+00  0.40417837217E+03  0.40417837217E+03  0.00000000000E+00 0. -1.
          1   -1    0    0  501    0 -0.00000000000E+00 -0.00000000000E+00 -0.10022499972E+04  0.10022499972E+04  0.00000000000E+00 0. -1.
         25    2    1    2    0    0  0.10155030859E+03 -0.13540843236E+03 -0.77522371295E+02  0.22423949901E+03  0.12500290451E+03 0.  0.
          2    1    1    2  501    0 -0.41994538946E+02  0.98711032218E+02 -0.84423866696E+03  0.85102663646E+03  0.00000000000E+00 0. -1.
          1    1    1    2  502    0 -0.59555769644E+02  0.36697400145E+02  0.32368941326E+03  0.33116223386E+03  0.00000000000E+00 0. -1.
         22    1    3    3    0    0  0.17254100865E+02  0.42772466668E+01 -0.57115821105E+02  0.59818190011E+02  0.00000000000E+00 0. -1.
         22    1    3    3    0    0  0.84296207726E+02 -0.13968567903E+03 -0.20406550190E+02  0.16442130900E+03  0.00000000000E+00 0. -1.
</event>
<event>
 7    1  0.5970484E-006  0.1955020E+03  0.7818608E-02  0.1249984E+00
          2   -1    0    0  502    0  0.00000000000E+00  0.00000000000E+00  0.29187472182E+04  0.29187472182E+04  0.00000000000E+00 0. -1.
          1   -1    0    0  501    0 -0.00000000000E+00 -0.00000000000E+00 -0.17431904895E+03  0.17431904895E+03  0.00000000000E+00 0. -1.
         25    2    1    2    0    0  0.13888613950E+03 -0.14381119053E+03  0.25749918676E+03  0.34914436831E+03  0.12499976189E+03 0.  0.
          2    1    1    2  501    0 -0.17677916684E+03  0.86467381348E+02 -0.52410405611E+02  0.20365247969E+03  0.00000000000E+00 0. -1.
          1    1    1    2  502    0  0.37893027345E+02  0.57343809185E+02  0.25393393881E+04  0.25402694192E+04  0.00000000000E+00 0. -1.
         22    1    3    3    0    0  0.90380787761E+01  0.13032961186E+02 -0.52733894331E+01  0.16713873918E+02  0.00000000000E+00 0.  1.
         22    1    3    3    0    0  0.12984806072E+03 -0.15684415172E+03  0.26277257619E+03  0.33243049439E+03  0.00000000000E+00 0.  1.
</event>
<event>
 7    1  0.5970484E-006  0.1368341E+03  0.7818608E-02  0.1256502E+00
          2   -1    0    0  502    0  0.00000000000E+00  0.00000000000E+00  0.14508732235E+04  0.14508732235E+04  0.00000000000E+00 0. -1.
          1   -1    0    0  501    0 -0.00000000000E+00 -0.00000000000E+00 -0.39062013108E+03  0.39062013108E+03  0.00000000000E+00 0. -1.
         25    2    1    2    0    0  0.50309037008E+02  0.71326067906E+02  0.29529782171E+03  0.33233119542E+03  0.12499925110E+03 0.  0.
          2    1    1    2  501    0 -0.40885937227E+02  0.82464870903E+02 -0.36108365664E+03  0.37263054342E+03  0.00000000000E+00 0. -1.
          1    1    1    2  502    0 -0.94230997813E+01 -0.15379093881E+03  0.11260389273E+04  0.11365316157E+04  0.00000000000E+00 0. -1.
         22    1    3    3    0    0  0.59953270012E+02  0.53864643401E+02  0.30098457478E+03  0.31158868505E+03  0.00000000000E+00 0.  1.
         22    1    3    3    0    0 -0.96442330040E+01  0.17461424505E+02 -0.56867530732E+01  0.20742510371E+02  0.00000000000E+00 0.  1.
</event>
<event>
 7    1  0.5970484E-006  0.3723071E+02  0.7818608E-02  0.1545792E+00
          2   -1    0    0  502    0  0.00000000000E+00  0.00000000000E+00  0.11249449647E+03  0.11249449647E+03  0.00000000000E+00 0. -1.
          1   -1    0    0  501    0 -0.00000000000E+00 -0.00000000000E+00 -0.66652607138E+03  0.66652607138E+03  0.00000000000E+00 0. -1.
         25    2    1    2    0    0  0.42644238919E+02 -0.43062098015E+02  0.43044783950E+02  0.14542864741E+03  0.12499505055E+03 0.  0.
          2    1    1    2  501    0 -0.99411631821E+01  0.35779220663E+02 -0.59888856763E+03  0.60003874524E+03  0.00000000000E+00 0. -1.
          1    1    1    2  502    0 -0.32703075737E+02  0.72828773516E+01  0.18122087639E+01  0.33553175197E+02  0.00000000000E+00 0. -1.
         22    1    3    3    0    0  0.24701198009E+02 -0.50983127693E+02  0.83248177959E+02  0.10069601594E+03  0.00000000000E+00 0. -1.
         22    1    3    3    0    0  0.17943040911E+02  0.79210296780E+01 -0.40203394009E+02  0.44732631468E+02  0.00000000000E+00 0. -1.
</event>
<event>
 7    1  0.5970484E-006  0.1131471E+03  0.7818608E-02  0.1266981E+00
          2   -1    0    0  502    0  0.00000000000E+00  0.00000000000E+00  0.99243091987E+02  0.99243091987E+02  0.00000000000E+00 0. -1.
          1   -1    0    0  501    0 -0.00000000000E+00 -0.00000000000E+00 -0.17529415871E+04  0.17529415871E+04  0.00000000000E+00 0. -1.
         25    2    1    2    0    0  0.72288304802E+02 -0.23867222056E+02 -0.25639854780E+03  0.29523056041E+03  0.12500250073E+03 0.  0.
          2    1    1    2  501    0  0.29850478165E+02  0.95911715282E+02 -0.14253247083E+04  0.14288599064E+04  0.00000000000E+00 0. -1.
          1    1    1    2  502    0 -0.10213878297E+03 -0.72044493226E+02  0.28024760942E+02  0.12809421227E+03  0.00000000000E+00 0. -1.
         22    1    3    3    0    0  0.30935944417E+02 -0.74495021566E+02 -0.15135714074E+03  0.17150954769E+03  0.00000000000E+00 0. -1.
         22    1    3    3    0    0  0.41352360385E+02  0.50627799510E+02 -0.10504140706E+03  0.12372101273E+03  0.00000000000E+00 0. -1.
</event>
<event>
 7    1  0.5970484E-006  0.1292072E+03  0.7818608E-02  0.1342265E+00
          2   -1    0    0  502    0  0.00000000000E+00  0.00000000000E+00  0.12097276248E+04  0.12097276248E+04  0.00000000000E+00 0. -1.
          1   -1    0    0  501    0 -0.00000000000E+00 -0.00000000000E+00 -0.73909487746E+02  0.73909487746E+02  0.00000000000E+00 0. -1.
         25    2    1    2    0    0  0.10656252653E+03  0.49989482821E+02  0.36872076106E+03  0.40673624211E+03  0.12499940222E+03 0.  0.
          2    1    1    2  501    0  0.26632432724E+02 -0.35202624820E+02 -0.39507001779E+02  0.59239467052E+02  0.00000000000E+00 0. -1.
          1    1    1    2  502    0 -0.13319495926E+03 -0.14786858001E+02  0.80660437780E+03  0.81766140341E+03  0.00000000000E+00 0. -1.
         22    1    3    3    0    0 -0.18482726560E+02  0.31558031494E+02  0.14736643037E+03  0.15183670615E+03  0.00000000000E+00 0. -1.
         22    1    3    3    0    0  0.12504525309E+03  0.18431451327E+02  0.22135433068E+03  0.25489953596E+03  0.00000000000E+00 0. -1.
</event>
<event>
 7    1  0.5970484E-006  0.9161722E+02  0.7818608E-02  0.1352238E+00
          2   -1    0    0  502    0  0.00000000000E+00  0.00000000000E+00  0.55202708095E+03  0.55202708095E+03  0.00000000000E+00 0. -1.
          1   -1    0    0  501    0 -0.00000000000E+00 -0.00000000000E+00 -0.99205601387E+03  0.99205601387E+03  0.00000000000E+00 0. -1.
         25    2    1    2    0    0 -0.39353531894E+02  0.96279608547E+02  0.86566076891E+02  0.18421955145E+03  0.12499877589E+03 0.  0.
          2    1    1    2  501    0 -0.17456602987E+02 -0.90011070431E+02 -0.93902570917E+03  0.94349139279E+03  0.00000000000E+00 0. -1.
          1    1    1    2  502    0  0.56810134881E+02 -0.62685381156E+01  0.41243069937E+03  0.41637215058E+03  0.00000000000E+00 0. -1.
         22    1    3    3    0    0 -0.74249619720E+02  0.10193302421E+03  0.76357761656E+02  0.14742406594E+03  0.00000000000E+00 0.  1.
         22    1    3    3    0    0  0.34896087826E+02 -0.56534156615E+01  0.10208315234E+02  0.36795485513E+02  0.00000000000E+00 0.  1.
</event>
<event>
 7    1  0.5970484E-006  0.9672894E+02  0.7818608E-02  0.1356337E+00
          2   -1    0    0  502    0  0.00000000000E+00  0.00000000000E+00  0.12977713172E+03  0.12977713172E+03  0.00000000000E+00 0. -1.
          1   -1    0    0  501    0 -0.00000000000E+00 -0.00000000000E+00 -0.13840497729E+04  0.13840497729E+04  0.00000000000E+00 0. -1.
         25    2    1    2    0    0  0.64755459191E+02 -0.10037892133E+03 -0.30385966433E+03  0.34960694835E+03  0.12500050154E+03 0.  0.
          2    1    1    2  501    0 -0.80987891511E+02  0.50676392672E+02 -0.10486191912E+04  0.10529621757E+04  0.00000000000E+00 0. -1.
          1    1    1    2  502    0  0.16232432321E+02  0.49702528656E+02  0.98206214311E+02  0.11125778060E+03  0.00000000000E+00 0. -1.
         22    1    3    3    0    0 -0.32995723703E+02 -0.18037945853E+01 -0.74602328361E+02  0.81593375065E+02  0.00000000000E+00 0. -1.
         22    1    3    3    0    0  0.97751182894E+02 -0.98575126743E+02 -0.22925733597E+03  0.26801357328E+03  0.00000000000E+00 0. -1.
</event>
<event>
 7    1  0.5970484E-006  0.9442973E+02  0.7818608E-02  0.1295243E+00
          2   -1    0    0  502    0  0.00000000000E+00  0.00000000000E+00  0.12542480249E+03  0.12542480249E+03  0.00000000000E+00 0. -1.
          1   -1    0    0  501    0 -0.00000000000E+00 -0.00000000000E+00 -0.80185425992E+03  0.80185425992E+03  0.00000000000E+00 0. -1.
         25    2    1    2    0    0 -0.19130908459E+02 -0.26263771531E+02 -0.24746710928E+03  0.27914228659E+03  0.12499867452E+03 0.  0.
          2    1    1    2  501    0  0.50268160414E+02  0.11285574304E+03 -0.51047101828E+03  0.52520849878E+03  0.00000000000E+00 0. -1.
          1    1    1    2  502    0 -0.31137251955E+02 -0.86591971510E+02  0.81508670127E+02  0.12292827704E+03  0.00000000000E+00 0. -1.
         22    1    3    3    0    0 -0.65902715166E+02 -0.41360942749E+02 -0.12572174664E+03  0.14785077960E+03  0.00000000000E+00 0.  1.
         22    1    3    3    0    0  0.46771806707E+02  0.15097171218E+02 -0.12174536264E+03  0.13129150699E+03  0.00000000000E+00 0.  1.
</event>
<event>
 7    1  0.5970484E-006  0.3571440E+02  0.7818608E-02  0.1586288E+00
          2   -1    0    0  502    0  0.00000000000E+00  0.00000000000E+00  0.71028741446E+03  0.71028741446E+03  0.00000000000E+00 0. -1.
          1   -1    0    0  501    0 -0.00000000000E+00 -0.00000000000E+00 -0.58418602371E+02  0.58418602371E+02  0.00000000000E+00 0. -1.
         25    2    1    2    0    0  0.12149050116E+02  0.16978555940E+02  0.52739465921E+02  0.13726724269E+03  0.12499989548E+03 0.  0.
          2    1    1    2  501    0  0.67487000304E+00 -0.40822280827E+02  0.10459057146E+02  0.42146244646E+02  0.00000000000E+00 0. -1.
          1    1    1    2  502    0 -0.12823920119E+02  0.23843724887E+02  0.58867028902E+03  0.58929252949E+03  0.00000000000E+00 0. -1.
         22    1    3    3    0    0 -0.15855954637E+02  0.57394762377E+02  0.63375009161E+02  0.86959541350E+02  0.00000000000E+00 0. -1.
         22    1    3    3    0    0  0.28005004753E+02 -0.40416206437E+02 -0.10635543239E+02  0.50307701338E+02  0.00000000000E+00 0. -1.
</event>
<event>
 7    1  0.5970484E-006  0.6729712E+02  0.7818608E-02  0.1385295E+00
          2   -1    0    0  502    0  0.00000000000E+00  0.00000000000E+00  0.10195026996E+04  0.10195026996E+04  0.00000000000E+00 0. -1.
          1   -1    0    0  501    0 -0.00000000000E+00 -0.00000000000E+00 -0.48070426655E+03  0.48070426655E+03  0.00000000000E+00 0. -1.
         25    2    1    2    0    0  0.39602413459E+02 -0.80763932243E+02  0.14349394451E+02  0.15466346383E+03  0.12499487197E+03 0.  0.
          2    1    1    2  501    0  0.17398860052E+02  0.64965311177E+02 -0.40684827630E+03  0.41236965446E+03  0.00000000000E+00 0. -1.
          1    1    1    2  502    0 -0.57001273511E+02  0.15798621066E+02  0.93129731495E+03  0.93317384792E+03  0.00000000000E+00 0. -1.
         22    1    3    3    0    0  0.42084315240E+02  0.10089580334E+02  0.41344312359E+02  0.59851828585E+02  0.00000000000E+00 0.  1.
         22    1    3    3    0    0 -0.24819017804E+01 -0.90853512577E+02 -0.26994917908E+02  0.94811635240E+02  0.00000000000E+00 0.  1.
</event>
<event>
 7    1  0.5970484E-006  0.7204269E+02  0.7818608E-02  0.1474706E+00
          2   -1    0    0  502    0  0.00000000000E+00  0.00000000000E+00  0.64946368122E+03  0.64946368122E+03  0.00000000000E+00 0. -1.
          1   -1    0    0  501    0 -0.00000000000E+00 -0.00000000000E+00 -0.23927923221E+04  0.23927923221E+04  0.00000000000E+00 0. -1.
         25    2    1    2    0    0  0.41823739918E+02 -0.69023188354E+02  0.12902282030E+03  0.19694052000E+03  0.12500101804E+03 0.  0.
          2    1    1    2  501    0 -0.56254078759E+02  0.44986731669E+02 -0.23578791249E+04  0.23589790790E+04  0.00000000000E+00 0. -1.
          1    1    1    2  502    0  0.14430338841E+02  0.24036456686E+02  0.48552766373E+03  0.48633640433E+03  0.00000000000E+00 0. -1.
         22    1    3    3    0    0  0.92138551193E+01  0.34184206034E+02  0.56421796382E+02  0.66609865450E+02  0.00000000000E+00 0.  1.
         22    1    3    3    0    0  0.32609884798E+02 -0.10320739439E+03  0.72601023915E+02  0.13033065455E+03  0.00000000000E+00 0.  1.
</event>
<event>
 7    1  0.5970484E-006  0.9202821E+02  0.7818608E-02  0.1397412E+00
          2   -1    0    0  502    0  0.00000000000E+00  0.00000000000E+00  0.14315212141E+04  0.14315212141E+04  0.00000000000E+00 0. -1.
          1   -1    0    0  501    0 -0.00000000000E+00 -0.00000000000E+00 -0.49467345014E+02  0.49467345014E+02  0.00000000000E+00 0. -1.
         25    2    1    2    0    0  0.43002270829E+02  0.11242019423E+03  0.33222352162E+03  0.37481276436E+03  0.12499857857E+03 0.  0.
          2    1    1    2  501    0 -0.14173940593E+02 -0.85785093787E+02  0.40215060687E+02  0.95797881051E+02  0.00000000000E+00 0. -1.
          1    1    1    2  502    0 -0.28828330236E+02 -0.26635100441E+02  0.10096152868E+04  0.10103779137E+04  0.00000000000E+00 0. -1.
         22    1    3    3    0    0 -0.22241556252E+01  0.92722330946E+02  0.30431550957E+03  0.31813567371E+03  0.00000000000E+00 0.  1.
         22    1    3    3    0    0  0.45226426454E+02  0.19697863282E+02  0.27908012050E+02  0.56677090647E+02  0.00000000000E+00 0.  1.
</event>
<event>
 7    1  0.5970484E-006  0.4141496E+02  0.7818608E-02  0.1582384E+00
          2   -1    0    0  502    0  0.00000000000E+00  0.00000000000E+00  0.38116704668E+04  0.38116704668E+04  0.00000000000E+00 0. -1.
          1   -1    0    0  501    0 -0.00000000000E+00 -0.00000000000E+00 -0.16223441608E+02  0.16223441608E+02  0.00000000000E+00 0. -1.
         25    2    1    2    0    0  0.96282037703E+00  0.29945259616E+02  0.22313182562E+04  0.22350175977E+04  0.12499942317E+03 0.  0.
          2    1    1    2  501    0  0.22385802347E+02 -0.35112040093E+02  0.16072326621E+02  0.44635178830E+02  0.00000000000E+00 0. -1.
          1    1    1    2  502    0 -0.23348622724E+02  0.51667804762E+01  0.15480564424E+04  0.15482411320E+04  0.00000000000E+00 0. -1.
         22    1    3    3    0    0 -0.22005122626E+02 -0.28538255391E+01  0.72308286340E+02  0.75636353795E+02  0.00000000000E+00 0.  1.
         22    1    3    3    0    0  0.22967943003E+02  0.32799085155E+02  0.21590099699E+04  0.21593812439E+04  0.00000000000E+00 0.  1.
</event>
<event>
 7    1  0.5970484E-006  0.3995560E+02  0.7818608E-02  0.1600653E+00
          2   -1    0    0  502    0  0.00000000000E+00  0.00000000000E+00  0.28317079759E+03  0.28317079759E+03  0.00000000000E+00 0. -1.
          1   -1    0    0  501    0 -0.00000000000E+00 -0.00000000000E+00 -0.50597611711E+03  0.50597611711E+03  0.00000000000E+00 0. -1.
         25    2    1    2    0    0 -0.19269500099E+01 -0.19328037038E+02  0.81177743450E+02  0.15030679913E+03  0.12500008673E+03 0.  0.
          2    1    1    2  501    0  0.10954287167E+01 -0.22152798561E+02 -0.46857495573E+03  0.46909960092E+03  0.00000000000E+00 0. -1.
          1    1    1    2  502    0  0.83152129317E+00  0.41480835599E+02  0.16459189276E+03  0.16974051465E+03  0.00000000000E+00 0. -1.
         22    1    3    3    0    0  0.60739115258E+02 -0.67106385196E+01  0.51108905433E+02  0.79664251746E+02  0.00000000000E+00 0.  1.
         22    1    3    3    0    0 -0.62666065268E+02 -0.12617398518E+02  0.30068838017E+02  0.70642547386E+02  0.00000000000E+00 0.  1.
</event>
<event>
 7    1  0.5970484E-006  0.6361342E+02  0.7818608E-02  0.1411206E+00
          2   -1    0    0  502    0  0.00000000000E+00  0.00000000000E+00  0.51482045262E+03  0.51482045262E+03  0.00000000000E+00 0. -1.
          1   -1    0    0  501    0 -0.00000000000E+00 -0.00000000000E+00 -0.26855318619E+03  0.26855318619E+03  0.00000000000E+00 0. -1.
         25    2    1    2    0    0 -0.11294148039E+01  0.23283012065E+02  0.92596105878E+02  0.15729656082E+03  0.12499917997E+03 0.  0.
          2    1    1    2  501    0  0.47088865120E+02 -0.45253819022E+02 -0.22997251263E+03  0.23906615385E+03  0.00000000000E+00 0. -1.
          1    1    1    2  502    0 -0.45959450316E+02  0.21970806957E+02  0.38364367318E+03  0.38701092414E+03  0.00000000000E+00 0. -1.
         22    1    3    3    0    0  0.18480085103E+02  0.19786442051E+02  0.12022516227E+03  0.12323597883E+03  0.00000000000E+00 0.  1.
         22    1    3    3    0    0 -0.19609499907E+02  0.34965700146E+01 -0.27629056392E+02  0.34060581992E+02  0.00000000000E+00 0.  1.
</event>
<event>
 7    1  0.5970484E-006  0.1257109E+03  0.7818608E-02  0.1260024E+00
          2   -1    0    0  502    0  0.00000000000E+00  0.00000000000E+00  0.10118489085E+04  0.10118489085E+04  0.00000000000E+00 0. -1.
          1   -1    0    0  501    0 -0.00000000000E+00 -0.00000000000E+00 -0.10132535228E+03  0.10132535228E+03  0.00000000000E+00 0. -1.
         25    2    1    2    0    0 -0.61048352712E+02  0.25728903395E+02  0.14939357489E+03  0.20574863377E+03  0.12500072896E+03 0.  0.
          2    1    1    2  501    0  0.11558538164E+03 -0.10566788143E+03  0.17563523795E+02  0.15758857504E+03  0.00000000000E+00 0. -1.
          1    1    1    2  502    0 -0.54537028931E+02  0.79938978033E+02  0.74356645754E+03  0.74983705197E+03  0.00000000000E+00 0. -1.
         22    1    3    3    0    0 -0.97869458219E+02  0.33978360463E+02  0.11344848688E+03  0.15363436792E+03  0.00000000000E+00 0.  1.
         22    1    3    3    0    0  0.36821105507E+02 -0.82494570681E+01  0.35945088010E+02  0.52114265846E+02  0.00000000000E+00 0.  1.
</event>
<event>
 7    1  0.5970484E-006  0.6303433E+02  0.7818608E-02  0.1398092E+00
          2   -1    0    0  502    0  0.00000000000E+00  0.00000000000E+00  0.48812378935E+03  0.48812378935E+03  0.00000000000E+00 0. -1.
          1   -1    0    0  501    0 -0.00000000000E+00 -0.00000000000E+00 -0.23969566986E+04  0.23969566986E+04  0.00000000000E+00 0. -1.
         25    2    1    2    0    0 -0.39160241551E+01  0.95079896819E+02 -0.15561136646E+03  0.22112872977E+03  0.12500998253E+03 0.  0.
          2    1    1    2  501    0 -0.34200358602E+02 -0.52707015605E+02 -0.22063543183E+04  0.22072487563E+04  0.00000000000E+00 0. -1.
          1    1    1    2  502    0  0.38116382757E+02 -0.42372881213E+02  0.45313277554E+03  0.45670300192E+03  0.00000000000E+00 0. -1.
         22    1    3    3    0    0  0.31222290342E+02  0.46335909226E+02 -0.16954328293E+01  0.55899216368E+02  0.00000000000E+00 0.  1.
         22    1    3    3    0    0 -0.35138314498E+02  0.48743987593E+02 -0.15391593363E+03  0.16522951340E+03  0.00000000000E+00 0.  1.
</event>
<event>
 7    1  0.5970484E-006  0.4638140E+02  0.7818608E-02  0.1492640E+00
          2   -1    0    0  502    0  0.00000000000E+00  0.00000000000E+00  0.26980495592E+03  0.26980495592E+03  0.00000000000E+00 0. -1.
          1   -1    0    0  501    0 -0.00000000000E+00 -0.00000000000E+00 -0.27589214553E+04  0.27589214553E+04  0.00000000000E+00 0. -1.
         25    2    1    2    0    0  0.66329991960E+01 -0.66421209747E+01  0.22178713891E+02  0.12729877888E+03  0.12499987722E+03 0.  0.
          2    1    1    2  501    0 -0.14050815509E+02  0.44308582944E+02 -0.27042709265E+04  0.27046703903E+04  0.00000000000E+00 0. -1.
          1    1    1    2  502    0  0.74178163132E+01 -0.37666461969E+02  0.19297571332E+03  0.19675724202E+03  0.00000000000E+00 0. -1.
         22    1    3    3    0    0  0.21818029293E+02 -0.53573588441E+02 -0.21202761170E+02  0.61609356935E+02  0.00000000000E+00 0. -1.
         22    1    3    3    0    0 -0.15185030097E+02  0.46931467467E+02  0.43381475061E+02  0.65689421950E+02  0.00000000000E+00 0. -1.
</event>
<event>
 7    1  0.5970484E-006  0.1702594E+03  0.7818608E-02  0.1269400E+00
          2   -1    0    0  502    0  0.00000000000E+00  0.00000000000E+00  0.11055087732E+04  0.11055087732E+04  0.00000000000E+00 0. -1.
          1   -1    0    0  501    0 -0.00000000000E+00 -0.00000000000E+00 -0.14403405246E+04  0.14403405246E+04  0.00000000000E+00 0. -1.
         25    2    1    2    0    0 -0.16877147390E+03  0.14110330302E+02 -0.25742486398E+02  0.21206189409E+03  0.12499863796E+03 0.  0.
          2    1    1    2  501    0  0.54826266538E+01 -0.64975745681E+02 -0.13134002928E+04  0.13150179603E+04  0.00000000000E+00 0. -1.
          1    1    1    2  502    0  0.16328884725E+03  0.50865415379E+02  0.10043110278E+04  0.10187694433E+04  0.00000000000E+00 0. -1.
         22    1    3    3    0    0 -0.39730637535E+01  0.36267337814E+02 -0.27636502128E+02  0.45769873034E+02  0.00000000000E+00 0.  1.
         22    1    3    3    0    0 -0.16479841015E+03 -0.22157007512E+02  0.18940157305E+01  0.16629202105E+03  0.00000000000E+00 0.  1.
</event>
<event>
 7    1  0.1170036E-005  0.6315444E+02  0.7818608E-02  0.1466087E+00
          2   -1    0    0  502    0  0.00000000000E+00  0.00000000000E+00  0.14028925056E+04  0.14028925056E+04  0.00000000000E+00 0. -1.
          1   -1    0    0  501    0 -0.00000000000E+00 -0.00000000000E+00 -0.71451698448E+03  0.71451698448E+03  0.00000000000E+00 0. -1.
         25    2    1    2    0    0  0.29939072856E+02  0.32914843789E+02 -0.33220112619E+03  0.35771990983E+03  0.12500484241E+03 0.  0.
          2    1    1    2  501    0  0.30620776019E+02 -0.14815655121E+02 -0.36805327846E+03  0.36962190323E+03  0.00000000000E+00 0. -1.
          1    1    1    2  502    0 -0.60559848875E+02 -0.18099188668E+02  0.13886299258E+04  0.13900676770E+04  0.00000000000E+00 0. -1.
         22    1    3    3    0    0 -0.94907313333E+01  0.52701688512E+02 -0.54025156911E+02  0.76067466979E+02  0.00000000000E+00 0.  1.
         22    1    3    3    0    0  0.39429804189E+02 -0.19786844724E+02 -0.27817596928E+03  0.28165244286E+03  0.00000000000E+00 0.  1.
</event>
<event>
 7    1  0.5970484E-006  0.3530991E+02  0.7818608E-02  0.1580274E+00
          2   -1    0    0  502    0  0.00000000000E+00  0.00000000000E+00  0.43710595106E+03  0.43710595106E+03  0.00000000000E+00 0. -1.
          1   -1    0    0  501    0 -0.00000000000E+00 -0.00000000000E+00 -0.58823788433E+02  0.58823788433E+02  0.00000000000E+00 0. -1.
         25    2    1    2    0    0 -0.45177027428E+02 -0.24784051993E+02  0.30593851309E+03  0.33448425349E+03  0.12500451593E+03 0.  0.
          2    1    1    2  501    0  0.11721302875E+02  0.25884880950E+02 -0.37251801334E+02  0.46852029898E+02  0.00000000000E+00 0. -1.
          1    1    1    2  502    0  0.33455724553E+02 -0.11008289564E+01  0.10959545087E+03  0.11459345610E+03  0.00000000000E+00 0. -1.
         22    1    3    3    0    0 -0.16995040260E+02 -0.67697026641E+02  0.24527174241E+03  0.25500969871E+03  0.00000000000E+00 0.  1.
         22    1    3    3    0    0 -0.28181987167E+02  0.42912974648E+02  0.60666770675E+02  0.79474554783E+02  0.00000000000E+00 0.  1.
</event>
<event>
 7    1  0.5970484E-006  0.7901775E+02  0.7818608E-02  0.1387166E+00
          2   -1    0    0  502    0  0.00000000000E+00  0.00000000000E+00  0.11668713225E+04  0.11668713225E+04  0.00000000000E+00 0. -1.
          1   -1    0    0  501    0 -0.00000000000E+00 -0.00000000000E+00 -0.90696177247E+02  0.90696177247E+02  0.00000000000E+00 0. -1.
         25    2    1    2    0    0  0.56253543015E+02 -0.10939792892E+03  0.37280286442E+03  0.41199372500E+03  0.12499794306E+03 0.  0.
          2    1    1    2  501    0 -0.13629682109E+02  0.47711775594E+02 -0.60378077140E+02  0.78151736793E+02  0.00000000000E+00 0. -1.
          1    1    1    2  502    0 -0.42623860906E+02  0.61686153322E+02  0.76375035796E+03  0.76742203794E+03  0.00000000000E+00 0. -1.
         22    1    3    3    0    0  0.55996954553E+02 -0.21461150083E+00  0.19911098760E+03  0.20683541854E+03  0.00000000000E+00 0. -1.
         22    1    3    3    0    0  0.25658846263E+00 -0.10918331741E+03  0.17369187681E+03  0.20515830646E+03  0.00000000000E+00 0. -1.
</event>
<event>
 7    1  0.5970484E-006  0.6936055E+02  0.7818608E-02  0.1462628E+00
          2   -1    0    0  502    0  0.00000000000E+00  0.00000000000E+00  0.75824758881E+03  0.75824758881E+03  0.00000000000E+00 0. -1.
          1   -1    0    0  501    0 -0.00000000000E+00 -0.00000000000E+00 -0.19388661799E+03  0.19388661799E+03  0.00000000000E+00 0. -1.
         25    2    1    2    0    0 -0.56449132378E+02  0.74481548903E+02  0.79345586189E+02  0.17508430978E+03  0.12499915124E+03 0.  0.
          2    1    1    2  501    0  0.27088650587E+02 -0.62381509841E+02 -0.13767162777E+03  0.15355365464E+03  0.00000000000E+00 0. -1.
          1    1    1    2  502    0  0.29360481792E+02 -0.12100039062E+02  0.62268701241E+03  0.62349624238E+03  0.00000000000E+00 0. -1.
         22    1    3    3    0    0 -0.64002052627E+02  0.22199574138E+01  0.79937655482E+02  0.10242665530E+03  0.00000000000E+00 0. -1.
         22    1    3    3    0    0  0.75529202493E+01  0.72261591489E+02 -0.59206929313E+00  0.72657654482E+02  0.00000000000E+00 0. -1.
</event>
<event>
 7    1  0.5970484E-006  0.2548521E+02  0.7818608E-02  0.1676333E+00
          2   -1    0    0  502    0  0.00000000000E+00  0.00000000000E+00  0.50077284695E+03  0.50077284695E+03  0.00000000000E+00 0. -1.
          1   -1    0    0  501    0 -0.00000000000E+00 -0.00000000000E+00 -0.75514095156E+03  0.75514095156E+03  0.00000000000E+00 0. -1.
         25    2    1    2    0    0 -0.15134137000E+02 -0.34052454778E+02 -0.15353931527E+03  0.20146797386E+03  0.12500564538E+03 0.  0.
          2    1    1    2  501    0 -0.69915846789E+01  0.21423001160E+02 -0.57707692406E+03  0.57751675605E+03  0.00000000000E+00 0. -1.
          1    1    1    2  502    0  0.22125721679E+02  0.12629453618E+02  0.47624813471E+03  0.47692906860E+03  0.00000000000E+00 0. -1.
         22    1    3    3    0    0  0.96886033888E+01  0.43597392603E+02 -0.31292432442E+02  0.54532724172E+02  0.00000000000E+00 0.  1.
         22    1    3    3    0    0 -0.24822740389E+02 -0.77649847381E+02 -0.12224688283E+03  0.14693524969E+03  0.00000000000E+00 0.  1.
</event>
<event>
 7    1  0.5970484E-006  0.5748633E+02  0.7818608E-02  0.1429432E+00
          2   -1    0    0  502    0  0.00000000000E+00  0.00000000000E+00  0.10204379624E+04  0.10204379624E+04  0.00000000000E+00 0. -1.
          1   -1    0    0  501    0 -0.00000000000E+00 -0.00000000000E+00 -0.29503915089E+03  0.29503915089E+03  0.00000000000E+00 0. -1.
         25    2    1    2    0    0  0.86065239444E+02 -0.13580980011E+01 -0.74898556814E+02  0.16924045851E+03  0.12499387630E+03 0.  0.
          2    1    1    2  501    0 -0.46743264211E+02  0.30595607366E+02 -0.16782285154E+03  0.17687717048E+03  0.00000000000E+00 0. -1.
          1    1    1    2  502    0 -0.39321975233E+02 -0.29237509365E+02  0.96812021982E+03  0.96935948426E+03  0.00000000000E+00 0. -1.
         22    1    3    3    0    0  0.45035138048E+02 -0.58353791005E+02 -0.65079322459E+02  0.98329277407E+02  0.00000000000E+00 0. -1.
         22    1    3    3    0    0  0.41030101397E+02  0.56995693004E+02 -0.98192343549E+01  0.70911181100E+02  0.00000000000E+00 0. -1.
</event>
<event>
 7    1  0.5970484E-006  0.9238559E+02  0.7818608E-02  0.1400728E+00
          2   -1    0    0  502    0  0.00000000000E+00  0.00000000000E+00  0.23074171030E+03  0.23074171030E+03  0.00000000000E+00 0. -1.
          1   -1    0    0  501    0 -0.00000000000E+00 -0.00000000000E+00 -0.55454601192E+03  0.55454601192E+03  0.00000000000E+00 0. -1.
         25    2    1    2    0    0 -0.26538102629E+02 -0.55297558940E+02  0.76429598196E+02  0.15883563657E+03  0.12500074018E+03 0.  0.
          2    1    1    2  501    0  0.61387205067E+02  0.70654277803E+02 -0.50571675392E+03  0.51430521203E+03  0.00000000000E+00 0. -1.
          1    1    1    2  502    0 -0.34849102437E+02 -0.15356718862E+02  0.10548285411E+03  0.11214687363E+03  0.00000000000E+00 0. -1.
         22    1    3    3    0    0 -0.49601564349E+01 -0.29282662918E+01 -0.34129523142E+02  0.34612169034E+02  0.00000000000E+00 0. -1.
         22    1    3    3    0    0 -0.21577946195E+02 -0.52369292649E+02  0.11055912134E+03  0.12422346753E+03  0.00000000000E+00 0. -1.
</event>
<event>
 7    1  0.5970484E-006  0.4940233E+02  0.7818608E-02  0.1482932E+00
          2   -1    0    0  502    0  0.00000000000E+00  0.00000000000E+00  0.13298926616E+04  0.13298926616E+04  0.00000000000E+00 0. -1.
          1   -1    0    0  501    0 -0.00000000000E+00 -0.00000000000E+00 -0.12540376709E+04  0.12540376709E+04  0.00000000000E+00 0. -1.
         25    2    1    2    0    0 -0.25301672047E+02 -0.41658513155E+02  0.14726702908E+03  0.19921908119E+03  0.12500023252E+03 0.  0.
          2    1    1    2  501    0  0.48280643607E+02  0.10678027221E+02 -0.12272420516E+04  0.12282378003E+04  0.00000000000E+00 0. -1.
          1    1    1    2  502    0 -0.22978971560E+02  0.30980485934E+02  0.11558300132E+04  0.11564734510E+04  0.00000000000E+00 0. -1.
         22    1    3    3    0    0 -0.48348802066E+02  0.12037872781E+02  0.11103682217E+02  0.51047123338E+02  0.00000000000E+00 0.  1.
         22    1    3    3    0    0  0.23047130019E+02 -0.53696385936E+02  0.13616334686E+03  0.14817195785E+03  0.00000000000E+00 0.  1.
</event>
<event>
 7    1  0.5970484E-006  0.9486309E+02  0.7818608E-02  0.1298845E+00
          2   -1    0    0  502    0  0.00000000000E+00  0.00000000000E+00  0.24959607311E+04  0.24959607311E+04  0.00000000000E+00 0. -1.
          1   -1    0    0  501    0 -0.00000000000E+00 -0.00000000000E+00 -0.35494901658E+03  0.35494901658E+03  0.00000000000E+00 0. -1.
         25    2    1    2    0    0  0.74061914641E+02  0.45552254012E+02  0.33704312075E+03  0.36984205541E+03  0.12499962262E+03 0.  0.
          2    1    1    2  501    0  0.14538756041E+02 -0.87392911418E+02 -0.33161097092E+03  0.34324150744E+03  0.00000000000E+00 0. -1.
          1    1    1    2  502    0 -0.88600670682E+02  0.41840657406E+02  0.21355795647E+04  0.21378261849E+04  0.00000000000E+00 0. -1.
         22    1    3    3    0    0  0.95515613698E+02  0.61725731550E+02  0.19895533854E+03  0.22916484270E+03  0.00000000000E+00 0. -1.
         22    1    3    3    0    0 -0.21453699057E+02 -0.16173477538E+02  0.13808778221E+03  0.14067721271E+03  0.00000000000E+00 0. -1.
</event>
<event>
 7    1  0.5970484E-006  0.1007771E+03  0.7818608E-02  0.1370252E+00
          2   -1    0    0  502    0  0.00000000000E+00  0.00000000000E+00  0.17663183737E+04  0.17663183737E+04  0.00000000000E+00 0. -1.
          1   -1    0    0  501    0 -0.00000000000E+00 -0.00000000000E+00 -0.22729417174E+04  0.22729417174E+04  0.00000000000E+00 0. -1.
         25    2    1    2    0    0 -0.59544004528E+02  0.11238373340E+03  0.75996772993E+03  0.78060994225E+03  0.12500135757E+03 0.  0.
          2    1    1    2  501    0  0.16819151342E+02 -0.99334154530E+02 -0.22609973782E+04  0.22632408847E+04  0.00000000000E+00 0. -1.
          1    1    1    2  502    0  0.42724853187E+02 -0.13049578866E+02  0.99440630456E+03  0.99540926414E+03  0.00000000000E+00 0. -1.
         22    1    3    3    0    0 -0.13636969611E+02 -0.20848266558E+02  0.41103169089E+02  0.48063371374E+02  0.00000000000E+00 0.  1.
         22    1    3    3    0    0 -0.45907034918E+02  0.13323199995E+03  0.71886456084E+03  0.73254657088E+03  0.00000000000E+00 0.  1.
</event>
<event>
 7    1  0.5970484E-006  0.8922646E+02  0.7818608E-02  0.1459043E+00
          2   -1    0    0  502    0  0.00000000000E+00  0.00000000000E+00  0.37690676241E+03  0.37690676241E+03  0.00000000000E+00 0. -1.
          1   -1    0    0  501    0 -0.00000000000E+00 -0.00000000000E+00 -0.28021734976E+04  0.28021734976E+04  0.00000000000E+00 0. -1.
         25    2    1    2    0    0  0.19467007103E+02 -0.86010276049E+02 -0.12650622690E+04  0.12742774653E+04  0.12499512895E+03 0.  0.
          2    1    1    2  501    0 -0.25151413953E+02 -0.30544161590E+01 -0.15270486271E+04  0.15272587969E+04  0.00000000000E+00 0. -1.
          1    1    1    2  502    0  0.56844068502E+01  0.89064692208E+02  0.36684416092E+03  0.37754399781E+03  0.00000000000E+00 0. -1.
         22    1    3    3    0    0  0.42750657079E+02  0.83413174761E+01 -0.66234696359E+03  0.66377759561E+03  0.00000000000E+00 0. -1.
         22    1    3    3    0    0 -0.23283649976E+02 -0.94351593525E+02 -0.60271530538E+03  0.61049986970E+03  0.00000000000E+00 0. -1.
</event>
<event>
 7    1  0.5970484E-006  0.8484443E+02  0.7818608E-02  0.1471770E+00
          2   -1    0    0  502    0  0.00000000000E+00  0.00000000000E+00  0.37751552449E+03  0.37751552449E+03  0.00000000000E+00 0. -1.
          1   -1    0    0  501    0 -0.00000000000E+00 -0.00000000000E+00 -0.24749934956E+03  0.24749934956E+03  0.00000000000E+00 0. -1.
         25    2    1    2    0    0 -0.63562341699E+02 -0.56947395820E+02 -0.58706355326E+02  0.16234245369E+03  0.12500183575E+03 0.  0.
          2    1    1    2  501    0  0.77112040825E+02  0.36764900176E+02 -0.12313597629E+03  0.14986791979E+03  0.00000000000E+00 0. -1.
          1    1    1    2  502    0 -0.13549699126E+02  0.20182495644E+02  0.31185850654E+03  0.31280450058E+03  0.00000000000E+00 0. -1.
         22    1    3    3    0    0 -0.66876984685E+01 -0.47436752623E+02 -0.86078516367E+02  0.98511328233E+02  0.00000000000E+00 0. -1.
         22    1    3    3    0    0 -0.56874643231E+02 -0.95106431962E+01  0.27372161041E+02  0.63831125454E+02  0.00000000000E+00 0. -1.
</event>
<event>
 7    1  0.5970484E-006  0.1394172E+03  0.7818608E-02  0.1277071E+00
          2   -1    0    0  502    0  0.00000000000E+00  0.00000000000E+00  0.12943108688E+03  0.12943108688E+03  0.00000000000E+00 0. -1.
          1   -1    0    0  501    0 -0.00000000000E+00 -0.00000000000E+00 -0.57786899951E+03  0.57786899951E+03  0.00000000000E+00 0. -1.
         25    2    1    2    0    0  0.13956976685E+03 -0.20722521559E+02 -0.10549228381E+03  0.21602410616E+03  0.12501459826E+03 0.  0.
          2    1    1    2  501    0 -0.49027030133E+01  0.73804565787E+02 -0.33846750881E+03  0.34645548769E+03  0.00000000000E+00 0. -1.
          1    1    1    2  502    0 -0.13466706384E+03 -0.53082044229E+02 -0.44781200163E+01  0.14482049254E+03  0.00000000000E+00 0. -1.
         22    1    3    3    0    0  0.10878651364E+03 -0.47736475503E+02 -0.12342933700E+03  0.17131280710E+03  0.00000000000E+00 0. -1.
         22    1    3    3    0    0  0.30783253214E+02  0.27013953944E+02  0.17937053196E+02  0.44711299058E+02  0.00000000000E+00 0. -1.
</event>
<event>
 7    1  0.5970484E-006  0.1321670E+03  0.7818608E-02  0.1290115E+00
          2   -1    0    0  502    0  0.00000000000E+00  0.00000000000E+00  0.71607367914E+03  0.71607367914E+03  0.00000000000E+00 0. -1.
          1   -1    0    0  501    0 -0.00000000000E+00 -0.00000000000E+00 -0.18604300628E+04  0.18604300628E+04  0.00000000000E+00 0. -1.
         25    2    1    2    0    0 -0.13006529697E+03  0.13603122191E+03 -0.57016000955E+03  0.61329383766E+03  0.12500168006E+03 0.  0.
          2    1    1    2  501    0  0.10031533703E+03 -0.73811804858E+02 -0.12639227553E+04  0.12700441255E+04  0.00000000000E+00 0. -1.
          1    1    1    2  502    0  0.29749959933E+02 -0.62219417049E+02  0.68972638118E+03  0.69316577878E+03  0.00000000000E+00 0. -1.
         22    1    3    3    0    0 -0.86638405617E+02  0.41666530037E+01 -0.20248781325E+03  0.22028365541E+03  0.00000000000E+00 0. -1.
         22    1    3    3    0    0 -0.43426891350E+02  0.13186456890E+03 -0.36767219630E+03  0.39301018225E+03  0.00000000000E+00 0. -1.
</event>
<event>
 7    1  0.5970484E-006  0.1082464E+03  0.7818608E-02  0.1332086E+00
          2   -1    0    0  502    0  0.00000000000E+00  0.00000000000E+00  0.38214222857E+04  0.38214222857E+04  0.00000000000E+00 0. -1.
          1   -1    0    0  501    0 -0.00000000000E+00 -0.00000000000E+00 -0.12762215325E+04  0.12762215325E+04  0.00000000000E+00 0. -1.
         25    2    1    2    0    0  0.25966930986E+02  0.12157204550E+03 -0.15068613528E+03  0.23191433680E+03  0.12499561791E+03 0.  0.
          2    1    1    2  501    0  0.28891993164E+02 -0.10411962988E+03 -0.10820110217E+04  0.10873929812E+04  0.00000000000E+00 0. -1.
          1    1    1    2  502    0 -0.54858924150E+02 -0.17452415614E+02  0.37778979102E+04  0.37783365001E+04  0.00000000000E+00 0. -1.
         22    1    3    3    0    0  0.49030603935E+02  0.13784544401E+03 -0.11317971008E+03  0.18497300703E+03  0.00000000000E+00 0. -1.
         22    1    3    3    0    0 -0.23063672949E+02 -0.16273398514E+02 -0.37506425205E+02  0.46941329772E+02  0.00000000000E+00 0. -1.
</event>
<event>
 7    1  0.5970484E-006  0.1665669E+03  0.7818608E-02  0.1234840E+00
          2   -1    0    0  502    0  0.00000000000E+00  0.00000000000E+00  0.12466816151E+04  0.12466816151E+04  0.00000000000E+00 0. -1.
          1   -1    0    0  501    0 -0.00000000000E+00 -0.00000000000E+00 -0.11223016130E+03  0.11223016130E+03  0.00000000000E+00 0. -1.
         25    2    1    2    0    0  0.24023389243E+03 -0.13777512458E+02  0.30725012251E+03  0.40979285488E+03  0.12500161281E+03 0.  0.
          2    1    1    2  501    0 -0.14629457044E+03  0.17823690308E+02  0.35155299237E+02  0.15151132084E+03  0.00000000000E+00 0. -1.
          1    1    1    2  502    0 -0.93939321983E+02 -0.40461778508E+01  0.79204603205E+03  0.79760760068E+03  0.00000000000E+00 0. -1.
         22    1    3    3    0    0 -0.27334891006E+01 -0.12037884556E+02  0.66889221971E+02  0.68018752143E+02  0.00000000000E+00 0.  1.
         22    1    3    3    0    0  0.24296738153E+03 -0.17396279014E+01  0.24036090054E+03  0.34177410274E+03  0.00000000000E+00 0.  1.
</event>
<event>
 7    1  0.5970484E-006  0.9748343E+02  0.7818608E-02  0.1406035E+00
          2   -1    0    0  502    0  0.00000000000E+00  0.00000000000E+00  0.49955753999E+03  0.49955753999E+03  0.00000000000E+00 0. -1.
          1   -1    0    0  501    0 -0.00000000000E+00 -0.00000000000E+00 -0.14453474875E+03  0.14453474875E+03  0.00000000000E+00 0. -1.
         25    2    1    2    0    0  0.35481222764E+02 -0.80029545140E+02 -0.32857296211E+02  0.15610588592E+03  0.12500320172E+03 0.  0.
          2    1    1    2  501    0 -0.15127049922E+02  0.10802572114E+03  0.11126010425E+02  0.10964566647E+03  0.00000000000E+00 0. -1.
          1    1    1    2  502    0 -0.20354172842E+02 -0.27996176004E+02  0.37675407702E+03  0.37834073634E+03  0.00000000000E+00 0. -1.
         22    1    3    3    0    0  0.19862897520E+02 -0.21515102232E+02 -0.76199178952E+02  0.81631790345E+02  0.00000000000E+00 0. -1.
         22    1    3    3    0    0  0.15618325244E+02 -0.58514442908E+02  0.43341882741E+02  0.74474095575E+02  0.00000000000E+00 0. -1.
</event>
<event>
 7    1  0.5970484E-006  0.2682345E+02  0.7818608E-02  0.1686408E+00
          2   -1    0    0  502    0  0.00000000000E+00  0.00000000000E+00  0.11302523492E+03  0.11302523492E+03  0.00000000000E+00 0. -1.
          1   -1    0    0  501    0 -0.00000000000E+00 -0.00000000000E+00 -0.11106253350E+04  0.11106253350E+04  0.00000000000E+00 0. -1.
         25    2    1    2    0    0 -0.68915317547E+01 -0.44766740428E+02 -0.41000013001E+03  0.43101791785E+03  0.12499913858E+03 0.  0.
          2    1    1    2  501    0 -0.32440901880E+01  0.20009300231E+02 -0.68821930062E+03  0.68851775719E+03  0.00000000000E+00 0. -1.
          1    1    1    2  502    0  0.10135621943E+02  0.24757440198E+02  0.10061933050E+03  0.10411489493E+03  0.00000000000E+00 0. -1.
         22    1    3    3    0    0 -0.40243350073E+02 -0.76800741055E+02 -0.26611966643E+03  0.27988847406E+03  0.00000000000E+00 0. -1.
         22    1    3    3    0    0  0.33351818318E+02  0.32034000627E+02 -0.14388046358E+03  0.15112944379E+03  0.00000000000E+00 0. -1.
</event>
<event>
 7    1  0.5970484E-006  0.9916495E+02  0.7818608E-02  0.1282185E+00
          2   -1    0    0  502    0  0.00000000000E+00  0.00000000000E+00  0.24280923515E+03  0.24280923515E+03  0.00000000000E+00 0. -1.
          1   -1    0    0  501    0 -0.00000000000E+00 -0.00000000000E+00 -0.17441408855E+04  0.17441408855E+04  0.00000000000E+00 0. -1.
         25    2    1    2    0    0 -0.16417129109E+01 -0.36729772863E+01 -0.65801930121E+02  0.14131931373E+03  0.12500027377E+03 0.  0.
          2    1    1    2  501    0  0.52307752288E+02  0.88917568351E+02 -0.16268608383E+04  0.16301284066E+04  0.00000000000E+00 0. -1.
          1    1    1    2  502    0 -0.50666039377E+02 -0.85244591065E+02  0.19133111799E+03  0.21550240037E+03  0.00000000000E+00 0. -1.
         22    1    3    3    0    0 -0.51441074341E+02  0.13936076897E+02 -0.70400526181E+02  0.88298541637E+02  0.00000000000E+00 0.  1.
         22    1    3    3    0    0  0.49799361430E+02 -0.17609054184E+02  0.45985960597E+01  0.53020772098E+02  0.00000000000E+00 0.  1.
</event>
<event>
 7    1  0.5970484E-006  0.1266750E+03  0.7818608E-02  0.1377704E+00
          2   -1    0    0  502    0  0.00000000000E+00  0.00000000000E+00  0.39737628543E+03  0.39737628543E+03  0.00000000000E+00 0. -1.
          1   -1    0    0  501    0 -0.00000000000E+00 -0.00000000000E+00 -0.18886242711E+03  0.18886242711E+03  0.00000000000E+00 0. -1.
         25    2    1    2    0    0 -0.74173197032E+02 -0.13188226587E+03  0.40044096368E+02  0.20031764924E+03  0.12501614189E+03 0.  0.
          2    1    1    2  501    0  0.49634670476E+02  0.10918477365E+03 -0.74151278426E+02  0.14100825296E+03  0.00000000000E+00 0. -1.
          1    1    1    2  502    0  0.24538526556E+02  0.22697492216E+02  0.24262104037E+03  0.24491281034E+03  0.00000000000E+00 0. -1.
         22    1    3    3    0    0 -0.17930464350E+02  0.19833434979E+02 -0.13410129839E+02  0.29911507437E+02  0.00000000000E+00 0. -1.
         22    1    3    3    0    0 -0.56242732682E+02 -0.15171570085E+03  0.53454226207E+02  0.17040614180E+03  0.00000000000E+00 0. -1.
</event>
<event>
 7    1  0.5970484E-006  0.7109004E+02  0.7818608E-02  0.1437717E+00
          2   -1    0    0  502    0  0.00000000000E+00  0.00000000000E+00  0.20172361326E+04  0.20172361326E+04  0.00000000000E+00 0. -1.
          1   -1    0    0  501    0 -0.00000000000E+00 -0.00000000000E+00 -0.39957759380E+02  0.39957759380E+02  0.00000000000E+00 0. -1.
         25    2    1    2    0    0 -0.33676476110E+02  0.39761301522E+02  0.54333673008E+03  0.55996809458E+03  0.12503758855E+03 0.  0.
          2    1    1    2  501    0  0.18189894971E+02  0.32476743689E+02 -0.19421713865E+02  0.41985880116E+02  0.00000000000E+00 0. -1.
          1    1    1    2  502    0  0.15486581139E+02 -0.72238045211E+02  0.14533633570E+04  0.14552399173E+04  0.00000000000E+00 0. -1.
         22    1    3    3    0    0  0.25140435544E+02  0.35185745316E+02  0.65401433296E+02  0.78405520532E+02  0.00000000000E+00 0.  1.
         22    1    3    3    0    0 -0.58816911654E+02  0.45755562057E+01  0.47793529678E+03  0.48156257405E+03  0.00000000000E+00 0.  1.
</event>
<event>
 7    1  0.5970484E-006  0.1214547E+03  0.7818608E-02  0.1412950E+00
          2   -1    0    0  502    0  0.00000000000E+00  0.00000000000E+00  0.17639169682E+04  0.17639169682E+04  0.00000000000E+00 0. -1.
          1   -1    0    0  501    0 -0.00000000000E+00 -0.00000000000E+00 -0.87364621076E+02  0.87364621076E+02  0.00000000000E+00 0. -1.
         25    2    1    2    0    0  0.15494304681E+02  0.97246361738E+02  0.42302503158E+02  0.16465581511E+03  0.12500042931E+03 0.  0.
          2    1    1    2  501    0 -0.85868300454E+01  0.24881403676E+02 -0.16685842017E+02  0.31164647005E+02  0.00000000000E+00 0. -1.
          1    1    1    2  502    0 -0.69074746352E+01 -0.12212776541E+03  0.16509356860E+04  0.16554611272E+04  0.00000000000E+00 0. -1.
         22    1    3    3    0    0  0.64879673165E+02  0.86043649229E+02  0.21378411417E+02  0.10986317872E+03  0.00000000000E+00 0.  1.
         22    1    3    3    0    0 -0.49385368485E+02  0.11202712508E+02  0.20924091741E+02  0.54792636395E+02  0.00000000000E+00 0.  1.
</event>
<event>
 7    1  0.5970484E-006  0.8752112E+02  0.7818608E-02  0.1369520E+00
          2   -1    0    0  502    0  0.00000000000E+00  0.00000000000E+00  0.88446805825E+03  0.88446805825E+03  0.00000000000E+00 0. -1.
          1   -1    0    0  501    0 -0.00000000000E+00 -0.00000000000E+00 -0.17567905807E+04  0.17567905807E+04  0.00000000000E+00 0. -1.
         25    2    1    2    0    0  0.68844435588E+02  0.37159543985E+02 -0.57156905209E+02  0.15815274609E+03  0.12499996504E+03 0.  0.
          2    1    1    2  501    0 -0.87361938502E+02  0.11166071209E+02 -0.16471552949E+04  0.16495082160E+04  0.00000000000E+00 0. -1.
          1    1    1    2  502    0  0.18517502914E+02 -0.48325615194E+02  0.83198967765E+03  0.83359767677E+03  0.00000000000E+00 0. -1.
         22    1    3    3    0    0  0.60406159431E+02 -0.13738796122E+02  0.20208925677E+02  0.65161793200E+02  0.00000000000E+00 0. -1.
         22    1    3    3    0    0  0.84382761577E+01  0.50898340107E+02 -0.77365830886E+02  0.92990952887E+02  0.00000000000E+00 0. -1.
</event>
<event>
 7    1  0.5970484E-006  0.1591053E+03  0.7818608E-02  0.1268835E+00
          2   -1    0    0  502    0  0.00000000000E+00  0.00000000000E+00  0.22425290474E+04  0.22425290474E+04  0.00000000000E+00 0. -1.
          1   -1    0    0  501    0 -0.00000000000E+00 -0.00000000000E+00 -0.20247237731E+04  0.20247237731E+04  0.00000000000E+00 0. -1.
         25    2    1    2    0    0  0.29331446794E+02 -0.93648676649E+02 -0.46487070203E+02  0.16557356563E+03  0.12499259790E+03 0.  0.
          2    1    1    2  501    0 -0.80862079112E+02  0.14126294768E+03 -0.19146757331E+04  0.19215819158E+04  0.00000000000E+00 0. -1.
          1    1    1    2  502    0  0.51530632318E+02 -0.47614271031E+02  0.21789680776E+04  0.21800973391E+04  0.00000000000E+00 0. -1.
         22    1    3    3    0    0 -0.30203026397E+01  0.28781548217E+02  0.40648671736E+01  0.29223670046E+02  0.00000000000E+00 0. -1.
         22    1    3    3    0    0  0.32351749434E+02 -0.12243022487E+03 -0.50551937377E+02  0.13634989558E+03  0.00000000000E+00 0. -1.
</event>
<event>
 7    1  0.5970484E-006  0.1740690E+03  0.7818608E-02  0.1284643E+00
          2   -1    0    0  502    0  0.00000000000E+00  0.00000000000E+00  0.17528557562E+04  0.17528557562E+04  0.00000000000E+00 0. -1.
          1   -1    0    0  501    0 -0.00000000000E+00 -0.00000000000E+00 -0.50085826442E+03  0.50085826442E+03  0.00000000000E+00 0. -1.
         25    2    1    2    0    0 -0.17974259268E+02  0.20447291998E+03 -0.28767734743E+03  0.37485547829E+03  0.12500449741E+03 0.  0.
          2    1    1    2  501    0  0.44343097829E+02 -0.32756055874E+02 -0.16056513230E+03  0.16976581290E+03  0.00000000000E+00 0. -1.
          1    1    1    2  502    0 -0.26368838561E+02 -0.17171686411E+03  0.17002399715E+04  0.17090927294E+04  0.00000000000E+00 0. -1.
         22    1    3    3    0    0 -0.44751081110E+02  0.20848722887E+03 -0.25381043593E+03  0.33149558255E+03  0.00000000000E+00 0. -1.
         22    1    3    3    0    0  0.26776821842E+02 -0.40143088822E+01 -0.33866911503E+02  0.43359895739E+02  0.00000000000E+00 0. -1.
</event>
<event>
 7    1  0.5970484E-006  0.8410790E+02  0.7818608E-02  0.1325523E+00
          2   -1    0    0  502    0  0.00000000000E+00  0.00000000000E+00  0.91088893684E+03  0.91088893684E+03  0.00000000000E+00 0. -1.
          1   -1    0    0  501    0 -0.00000000000E+00 -0.00000000000E+00 -0.76604527267E+03  0.76604527267E+03  0.00000000000E+00 0. -1.
         25    2    1    2    0    0 -0.35663791308E+02 -0.61179296109E+02  0.39776961302E+03  0.42291868926E+03  0.12499896158E+03 0.  0.
          2    1    1    2  501    0 -0.41904677002E+02  0.73249377013E+02 -0.74800552387E+03  0.75275078009E+03  0.00000000000E+00 0. -1.
          1    1    1    2  502    0  0.77568468309E+02 -0.12070080904E+02  0.49507957502E+03  0.50126474016E+03  0.00000000000E+00 0. -1.
         22    1    3    3    0    0 -0.35375005886E+02  0.23569415006E+02  0.53288745776E+02  0.68165965053E+02  0.00000000000E+00 0.  1.
         22    1    3    3    0    0 -0.28878542141E+00 -0.84748711115E+02  0.34448086725E+03  0.35475272420E+03  0.00000000000E+00 0.  1.
</event>
<event>
 7    1  0.7024155E-006  0.1138930E+03  0.7818608E-02  0.1424185E+00
          2   -1    0    0  502    0  0.00000000000E+00  0.00000000000E+00  0.14224992731E+04  0.14224992731E+04  0.00000000000E+00 0. -1.
          1   -1    0    0  501    0 -0.00000000000E+00 -0.00000000000E+00 -0.11927584139E+04  0.11927584139E+04  0.00000000000E+00 0. -1.
         25    2    1    2    0    0 -0.10555129554E+03 -0.49499998415E+01 -0.44729752771E+03  0.47630416863E+03  0.12500001708E+03 0.  0.
          2    1    1    2  501    0 -0.66412011791E+01  0.24869309743E+02 -0.72842446696E+03  0.72887913415E+03  0.00000000000E+00 0. -1.
          1    1    1    2  502    0  0.11219249672E+03 -0.19919309901E+02  0.14054628539E+04  0.14100743842E+04  0.00000000000E+00 0. -1.
         22    1    3    3    0    0 -0.19069125843E+02  0.54251140029E+02 -0.13013334483E+03  0.14227264386E+03  0.00000000000E+00 0.  1.
         22    1    3    3    0    0 -0.86482169698E+02 -0.59201139870E+02 -0.31716418288E+03  0.33403152476E+03  0.00000000000E+00 0.  1.
</event>
<event>
 7    1  0.5970484E-006  0.3816264E+02  0.7818608E-02  0.1530394E+00
          2   -1    0    0  502    0  0.00000000000E+00  0.00000000000E+00  0.23998587656E+04  0.23998587656E+04  0.00000000000E+00 0. -1.
          1   -1    0    0  501    0 -0.00000000000E+00 -0.00000000000E+00 -0.23298785932E+02  0.23298785932E+02  0.00000000000E+00 0. -1.
         25    2    1    2    0    0 -0.86532134100E+01  0.28620737766E+02  0.20933062739E+03  0.24563752158E+03  0.12499782283E+03 0.  0.
          2    1    1    2  501    0  0.36097823186E+02 -0.17680171684E+01  0.60727664888E+02  0.70668437129E+02  0.00000000000E+00 0. -1.
          1    1    1    2  502    0 -0.27444609776E+02 -0.26852720597E+02  0.21065016874E+04  0.21068515928E+04  0.00000000000E+00 0. -1.
         22    1    3    3    0    0 -0.12834121863E+01  0.54936836082E+01 -0.17050100281E+02  0.17959221197E+02  0.00000000000E+00 0.  1.
         22    1    3    3    0    0 -0.73698012237E+01  0.23127054157E+02  0.22638072768E+03  0.22767830039E+03  0.00000000000E+00 0.  1.
</event>
<event>
 7    1  0.5970484E-006  0.5512444E+02  0.7818608E-02  0.1513833E+00
          2   -1    0    0  502    0  0.00000000000E+00  0.00000000000E+00  0.13392698431E+04  0.13392698431E+04  0.00000000000E+00 0. -1.
          1   -1    0    0  501    0 -0.00000000000E+00 -0.00000000000E+00 -0.37221935717E+03  0.37221935717E+03  0.00000000000E+00 0. -1.
         25    2    1    2    0    0  0.13580511092E+02  0.76381493841E+02  0.11324041093E+03  0.18565344564E+03  0.12500099330E+03 0.  0.
          2    1    1    2  501    0  0.89667632595E+01 -0.26463721469E+02 -0.33480017957E+03  0.33596412254E+03  0.00000000000E+00 0. -1.
          1    1    1    2  502    0 -0.22547274352E+02 -0.49917772372E+02  0.11886102546E+04  0.11898716321E+04  0.00000000000E+00 0. -1.
         22    1    3    3    0    0  0.47932233521E+02  0.38263384398E+02  0.23927448534E-02  0.61331766660E+02  0.00000000000E+00 0.  1.
         22    1    3    3    0    0 -0.34351722429E+02  0.38118109443E+02  0.11323801818E+03  0.12432167898E+03  0.00000000000E+00 0.  1.
</event>
<event>
 7    1  0.5970484E-006  0.1364296E+03  0.7818608E-02  0.1299423E+00
          2   -1    0    0  502    0  0.00000000000E+00  0.00000000000E+00  0.46606414735E+03  0.46606414735E+03  0.00000000000E+00 0. -1.
          1   -1    0    0  501    0 -0.00000000000E+00 -0.00000000000E+00 -0.31948856488E+03  0.31948856488E+03  0.00000000000E+00 0. -1.
         25    2    1    2    0    0  0.78415235606E+02 -0.71756267011E+02  0.11765366632E+02  0.16450218718E+03  0.12499853881E+03 0.  0.
          2    1    1    2  501    0 -0.18682513540E+02 -0.58356616489E+02 -0.22532134894E+03  0.23350426396E+03  0.00000000000E+00 0. -1.
          1    1    1    2  502    0 -0.59732722066E+02  0.13011288350E+03  0.36013156477E+03  0.38754626109E+03  0.00000000000E+00 0. -1.
         22    1    3    3    0    0  0.10726198846E+03 -0.69048627576E+02 -0.10449542751E+02  0.12799234384E+03  0.00000000000E+00 0.  1.
         22    1    3    3    0    0 -0.28846752855E+02 -0.27076394349E+01  0.22214909384E+02  0.36509843337E+02  0.00000000000E+00 0.  1.
</event>
<event>
 7    1  0.5970484E-006  0.1297329E+03  0.7818608E-02  0.1252120E+00
          2   -1    0    0  502    0  0.00000000000E+00  0.00000000000E+00  0.99447072884E+03  0.99447072884E+03  0.00000000000E+00 0. -1.
          1   -1    0    0  501    0 -0.00000000000E+00 -0.00000000000E+00 -0.39797015429E+03  0.39797015429E+03  0.00000000000E+00 0. -1.
         25    2    1    2    0    0  0.11920832477E+03  0.99453279953E+02 -0.89183950844E+01  0.19951517437E+03  0.12500074978E+03 0.  0.
          2    1    1    2  501    0 -0.22156570497E+02 -0.12880985935E+03 -0.27616377439E+03  0.30553121570E+03  0.00000000000E+00 0. -1.
          1    1    1    2  502    0 -0.97051754269E+02  0.29356579398E+02  0.88158274402E+03  0.88739449306E+03  0.00000000000E+00 0. -1.
         22    1    3    3    0    0  0.73915953646E+02 -0.25049542042E+01  0.32132172940E+02  0.80636961356E+02  0.00000000000E+00 0.  1.
         22    1    3    3    0    0  0.45292371120E+02  0.10195823416E+03 -0.41050568024E+02  0.11887821301E+03  0.00000000000E+00 0.  1.
</event>
<event>
 7    1  0.5970484E-006  0.6718678E+02  0.7818608E-02  0.1443676E+00
          2   -1    0    0  502    0  0.00000000000E+00  0.00000000000E+00  0.64301105613E+02  0.64301105613E+02  0.00000000000E+00 0. -1.
          1   -1    0    0  501    0 -0.00000000000E+00 -0.00000000000E+00 -0.73323147049E+03  0.73323147049E+03  0.00000000000E+00 0. -1.
         25    2    1    2    0    0  0.51549536545E+02  0.27454660025E+02 -0.18434984504E+03  0.23026245207E+03  0.12499927357E+03 0.  0.
          2    1    1    2  501    0 -0.17548840909E+02  0.33335875123E+02 -0.49535782770E+03  0.49678830487E+03  0.00000000000E+00 0. -1.
          1    1    1    2  502    0 -0.34000695636E+02 -0.60790535147E+02  0.10777307869E+02  0.70481819160E+02  0.00000000000E+00 0. -1.
         22    1    3    3    0    0  0.54707137289E+02  0.40287158004E+02 -0.19915041803E+03  0.21042056689E+03  0.00000000000E+00 0.  1.
         22    1    3    3    0    0 -0.31576007440E+01 -0.12832497980E+02  0.14800572986E+02  0.19841885182E+02  0.00000000000E+00 0.  1.
</event>
<event>
 7    1  0.5970484E-006  0.1042149E+03  0.7818608E-02  0.1421088E+00
          2   -1    0    0  502    0  0.00000000000E+00  0.00000000000E+00  0.73956147803E+03  0.73956147803E+03  0.00000000000E+00 0. -1.
          1   -1    0    0  501    0 -0.00000000000E+00 -0.00000000000E+00 -0.95533090388E+03  0.95533090388E+03  0.00000000000E+00 0. -1.
         25    2    1    2    0    0 -0.55522879919E+02 -0.99215111908E+02  0.81118870368E+02  0.18743450879E+03  0.12499998132E+03 0.  0.
          2    1    1    2  501    0 -0.15886679610E+02  0.24030169458E+02 -0.89749936947E+03  0.89796155477E+03  0.00000000000E+00 0. -1.
          1    1    1    2  502    0  0.71409559529E+02  0.75184942450E+02  0.60061107325E+03  0.60949631835E+03  0.00000000000E+00 0. -1.
         22    1    3    3    0    0 -0.47443460130E+02 -0.10079309553E+03  0.56775157885E+01  0.11154534594E+03  0.00000000000E+00 0. -1.
         22    1    3    3    0    0 -0.80794197889E+01  0.15779836226E+01  0.75441354580E+02  0.75889162845E+02  0.00000000000E+00 0. -1.
</event>
<event>
 7    1  0.5970484E-006  0.5628156E+02  0.7818608E-02  0.1495955E+00
          2   -1    0    0  502    0  0.00000000000E+00  0.00000000000E+00  0.12269215735E+03  0.12269215735E+03  0.00000000000E+00 0. -1.
          1   -1    0    0  501    0 -0.00000000000E+00 -0.00000000000E+00 -0.36207770877E+03  0.36207770877E+03  0.00000000000E+00 0. -1.
         25    2    1    2    0    0 -0.52151436810E+02 -0.27499030631E+02 -0.15628139630E+03  0.20862884423E+03  0.12500460298E+03 0.  0.
          2    1    1    2  501    0  0.22842221465E+02 -0.20837884743E+02 -0.16982844373E+03  0.17262005915E+03  0.00000000000E+00 0. -1.
          1    1    1    2  502    0  0.29309215345E+02  0.48336915374E+02  0.86724288614E+02  0.10352096275E+03  0.00000000000E+00 0. -1.
         22    1    3    3    0    0 -0.39064102083E+02  0.46875436354E+02 -0.86141669879E+02  0.10556371486E+03  0.00000000000E+00 0. -1.
         22    1    3    3    0    0 -0.13087334727E+02 -0.74374466985E+02 -0.70139726424E+02  0.10306512937E+03  0.00000000000E+00 0. -1.
</event>
<event>
 7    1  0.5970484E-006  0.8535440E+02  0.7818608E-02  0.1367175E+00
          2   -1    0    0  502    0  0.00000000000E+00  0.00000000000E+00  0.39330567355E+03  0.39330567355E+03  0.00000000000E+00 0. -1.
          1   -1    0    0  501    0 -0.00000000000E+00 -0.00000000000E+00 -0.66873734390E+03  0.66873734390E+03  0.00000000000E+00 0. -1.
         25    2    1    2    0    0  0.85077210182E+02 -0.10802758610E+03  0.62313191179E+02  0.19600411744E+03  0.12500635667E+03 0.  0.
          2    1    1    2  501    0 -0.46293462158E+02  0.70297627695E+02 -0.59613308511E+03  0.60204609147E+03  0.00000000000E+00 0. -1.
          1    1    1    2  502    0 -0.38783748023E+02  0.37729958410E+02  0.25838822358E+03  0.26399280853E+03  0.00000000000E+00 0. -1.
         22    1    3    3    0    0  0.95402846962E+02 -0.59413772292E+02  0.85448448317E+02  0.14118476145E+03  0.00000000000E+00 0. -1.
         22    1    3    3    0    0 -0.10325636781E+02 -0.48613813813E+02 -0.23135257137E+02  0.54819355990E+02  0.00000000000E+00 0. -1.
</event>
<event>
 7    1  0.5970484E-006  0.7414452E+02  0.7818608E-02  0.1517201E+00
          2   -1    0    0  502    0  0.00000000000E+00  0.00000000000E+00  0.41328924373E+03  0.41328924373E+03  0.00000000000E+00 0. -1.
          1   -1    0    0  501    0 -0.00000000000E+00 -0.00000000000E+00 -0.21766971060E+03  0.21766971060E+03  0.00000000000E+00 0. -1.
         25    2    1    2    0    0  0.13288157886E+02 -0.67098728621E+02 -0.55204272533E+02  0.15281167247E+03  0.12500032406E+03 0.  0.
          2    1    1    2  501    0  0.20297726514E+02  0.66100222620E+00 -0.10891206178E+03  0.11078931278E+03  0.00000000000E+00 0. -1.
          1    1    1    2  502    0 -0.33585884400E+02  0.66437726395E+02  0.35973586744E+03  0.36735796907E+03  0.00000000000E+00 0. -1.
         22    1    3    3    0    0 -0.51139433415E+02 -0.17770806260E+02 -0.46197349025E+02  0.71170487297E+02  0.00000000000E+00 0. -1.
         22    1    3    3    0    0  0.64427591302E+02 -0.49327922362E+02 -0.90069235086E+01  0.81641185174E+02  0.00000000000E+00 0. -1.
</event>
<event>
 7    1  0.5970484E-006  0.9921312E+02  0.7818608E-02  0.1403630E+00
          2   -1    0    0  502    0  0.00000000000E+00  0.00000000000E+00  0.44943575713E+03  0.44943575713E+03  0.00000000000E+00 0. -1.
          1   -1    0    0  501    0 -0.00000000000E+00 -0.00000000000E+00 -0.81877650874E+03  0.81877650874E+03  0.00000000000E+00 0. -1.
         25    2    1    2    0    0  0.19898526315E+02  0.10967869401E+03 -0.56335108555E+03  0.58772005548E+03  0.12500020301E+03 0.  0.
          2    1    1    2  501    0 -0.41264737391E+02 -0.82388881684E+02 -0.23378823336E+03  0.25129195059E+03  0.00000000000E+00 0. -1.
          1    1    1    2  502    0  0.21366211077E+02 -0.27289812323E+02  0.42779856730E+03  0.42920025980E+03  0.00000000000E+00 0. -1.
         22    1    3    3    0    0 -0.31452484517E+02  0.48511973581E+02 -0.85322919689E+02  0.10306634265E+03  0.00000000000E+00 0. -1.
         22    1    3    3    0    0  0.51351010832E+02  0.61166720425E+02 -0.47802816586E+03  0.48465371283E+03  0.00000000000E+00 0. -1.
</event>
<event>
 7    1  0.5970484E-006  0.5066245E+02  0.7818608E-02  0.1493287E+00
          2   -1    0    0  502    0  0.00000000000E+00  0.00000000000E+00  0.19965344714E+03  0.19965344714E+03  0.00000000000E+00 0. -1.
          1   -1    0    0  501    0 -0.00000000000E+00 -0.00000000000E+00 -0.69142348694E+03  0.69142348694E+03  0.00000000000E+00 0. -1.
         25    2    1    2    0    0  0.37624730715E+01  0.46727960706E+02 -0.32890750694E+03  0.35496964360E+03  0.12500256493E+03 0.  0.
          2    1    1    2  501    0  0.30996753631E+02 -0.42728060791E+02 -0.34582439407E+03  0.34982995505E+03  0.00000000000E+00 0. -1.
          1    1    1    2  502    0 -0.34759226703E+02 -0.39998999145E+01  0.18296186121E+03  0.18627733544E+03  0.00000000000E+00 0. -1.
         22    1    3    3    0    0 -0.13422919928E+02  0.66892955423E+02 -0.82119658766E+02  0.10676366714E+03  0.00000000000E+00 0.  1.
         22    1    3    3    0    0  0.17185393000E+02 -0.20164994717E+02 -0.24678784817E+03  0.24820597646E+03  0.00000000000E+00 0.  1.
</event>
<event>
 7    1  0.5970484E-006  0.4933492E+02  0.7818608E-02  0.1579078E+00
          2   -1    0    0  502    0  0.00000000000E+00  0.00000000000E+00  0.25030609890E+03  0.25030609890E+03  0.00000000000E+00 0. -1.
          1   -1    0    0  501    0 -0.00000000000E+00 -0.00000000000E+00 -0.34550603028E+03  0.34550603028E+03  0.00000000000E+00 0. -1.
         25    2    1    2    0    0 -0.19378617256E+02 -0.37431648267E+02  0.13119731379E+03  0.18604937182E+03  0.12499989804E+03 0.  0.
          2    1    1    2  501    0  0.14656347773E+02 -0.14316150162E+02 -0.31035230069E+03  0.31102783031E+03  0.00000000000E+00 0. -1.
          1    1    1    2  502    0  0.47222694834E+01  0.51747798429E+02  0.83955055514E+02  0.98734927040E+02  0.00000000000E+00 0. -1.
         22    1    3    3    0    0 -0.16429450351E+02  0.32272382079E+02 -0.13754912561E+01  0.36239832506E+02  0.00000000000E+00 0. -1.
         22    1    3    3    0    0 -0.29491669055E+01 -0.69704030346E+02  0.13257280505E+03  0.14980953932E+03  0.00000000000E+00 0. -1.
</event>
<event>
 7    1  0.5970484E-006  0.7357847E+02  0.7818608E-02  0.1408943E+00
          2   -1    0    0  502    0  0.00000000000E+00  0.00000000000E+00  0.19099150128E+03  0.19099150128E+03  0.00000000000E+00 0. -1.
          1   -1    0    0  501    0 -0.00000000000E+00 -0.00000000000E+00 -0.12062990954E+03  0.12062990954E+03  0.00000000000E+00 0. -1.
         25    2    1    2    0    0  0.42390752964E+02  0.39433341218E+02  0.30386463957E+02  0.14106757102E+03  0.12499903226E+03 0.  0.
          2    1    1    2  501    0 -0.79781762302E+02 -0.14709021082E+02 -0.30800891309E+02  0.86776608614E+02  0.00000000000E+00 0. -1.
          1    1    1    2  502    0  0.37391009337E+02 -0.24724320136E+02  0.70776019095E+02  0.83777231181E+02  0.00000000000E+00 0. -1.
         22    1    3    3    0    0 -0.40403587371E+02  0.34302664230E+02  0.23031351466E+02  0.57788976424E+02  0.00000000000E+00 0.  1.
         22    1    3    3    0    0  0.82794340336E+02  0.51306769878E+01  0.73551124912E+01  0.83278594595E+02  0.00000000000E+00 0.  1.
</event>
<event>
 7    1  0.5970484E-006  0.2030389E+03  0.7818608E-02  0.1278101E+00
          2   -1    0    0  502    0  0.00000000000E+00  0.00000000000E+00  0.13606830488E+04  0.13606830488E+04  0.00000000000E+00 0. -1.
          1   -1    0    0  501    0 -0.00000000000E+00 -0.00000000000E+00 -0.64897833309E+03  0.64897833309E+03  0.00000000000E+00 0. -1.
         25    2    1    2    0    0  0.26292085733E+02 -0.17674998615E+03  0.37686400953E+03  0.43541427850E+03  0.12500912313E+03 0.  0.
          2    1    1    2  501    0 -0.74795951928E+02  0.19004352302E+03 -0.60218352234E+03  0.63587417753E+03  0.00000000000E+00 0. -1.
          1    1    1    2  502    0  0.48503866195E+02 -0.13293536877E+02  0.93702422852E+03  0.93837292586E+03  0.00000000000E+00 0. -1.
         22    1    3    3    0    0  0.54702863583E+02 -0.87102376830E+02  0.28882883491E+03  0.30659635224E+03  0.00000000000E+00 0. -1.
         22    1    3    3    0    0 -0.28410777851E+02 -0.89647609315E+02  0.88035174623E+02  0.12881792626E+03  0.00000000000E+00 0. -1.
</event>
<event>
 7    1  0.5970484E-006  0.4284922E+02  0.7818608E-02  0.1548859E+00
          2   -1    0    0  502    0  0.00000000000E+00  0.00000000000E+00  0.63285964009E+02  0.63285964009E+02  0.00000000000E+00 0. -1.
          1   -1    0    0  501    0 -0.00000000000E+00 -0.00000000000E+00 -0.84396928943E+03  0.84396928943E+03  0.00000000000E+00 0. -1.
         25    2    1    2    0    0 -0.16253645627E+02  0.63652673194E+02 -0.57741507054E+02  0.15256080070E+03  0.12499948989E+03 0.  0.
          2    1    1    2  501    0  0.20987867285E+01 -0.28463813099E+02 -0.71546673458E+03  0.71603578252E+03  0.00000000000E+00 0. -1.
          1    1    1    2  502    0  0.14154858899E+02 -0.35188860095E+02 -0.74750837903E+01  0.38658670216E+02  0.00000000000E+00 0. -1.
         22    1    3    3    0    0 -0.68463081013E+02  0.19387834613E+02 -0.40893606664E+02  0.82069291813E+02  0.00000000000E+00 0.  1.
         22    1    3    3    0    0  0.52209435386E+02  0.44264838581E+02 -0.16847900390E+02  0.70491508889E+02  0.00000000000E+00 0.  1.
</event>
<event>
 7    1  0.5970484E-006  0.4508281E+02  0.7818608E-02  0.1497485E+00
          2   -1    0    0  502    0  0.00000000000E+00  0.00000000000E+00  0.14745423451E+03  0.14745423451E+03  0.00000000000E+00 0. -1.
          1   -1    0    0  501    0 -0.00000000000E+00 -0.00000000000E+00 -0.56814093358E+03  0.56814093358E+03  0.00000000000E+00 0. -1.
         25    2    1    2    0    0  0.38629399162E+02 -0.72557164052E+02 -0.13161546065E+03  0.19925875812E+03  0.12499860267E+03 0.  0.
          2    1    1    2  501    0 -0.16039822326E+02  0.34662638595E+02 -0.39747165596E+03  0.39930250651E+03  0.00000000000E+00 0. -1.
          1    1    1    2  502    0 -0.22589576837E+02  0.37894525456E+02  0.10840041753E+03  0.11703390347E+03  0.00000000000E+00 0. -1.
         22    1    3    3    0    0  0.84102162361E+02 -0.56756620923E+02 -0.89830122270E+02  0.13551361038E+03  0.00000000000E+00 0.  1.
         22    1    3    3    0    0 -0.45472763199E+02 -0.15800543129E+02 -0.41785338376E+02  0.63745147731E+02  0.00000000000E+00 0.  1.
</event>
<event>
 7    1  0.5970484E-006  0.6958663E+02  0.7818608E-02  0.1367431E+00
          2   -1    0    0  502    0  0.00000000000E+00  0.00000000000E+00  0.28722891483E+04  0.28722891483E+04  0.00000000000E+00 0. -1.
          1   -1    0    0  501    0 -0.00000000000E+00 -0.00000000000E+00 -0.11467358864E+03  0.11467358864E+03  0.00000000000E+00 0. -1.
         25    2    1    2    0    0  0.45333768166E+02  0.63307505441E+02  0.12686659050E+04  0.12771849371E+04  0.12500077726E+03 0.  0.
          2    1    1    2  501    0  0.20812016508E+02 -0.66606455356E+02 -0.98628621982E+02  0.12081872785E+03  0.00000000000E+00 0. -1.
          1    1    1    2  502    0 -0.66145784675E+02  0.32989499144E+01  0.15875782767E+04  0.15889590720E+04  0.00000000000E+00 0. -1.
         22    1    3    3    0    0  0.31792315130E+02  0.56786653634E+02  0.12555542484E+04  0.12572398125E+04  0.00000000000E+00 0.  1.
         22    1    3    3    0    0  0.13541453036E+02  0.65208518067E+01  0.13111656544E+02  0.19945124616E+02  0.00000000000E+00 0.  1.
</event>
<event>
 7    1  0.5970484E-006  0.1948389E+03  0.7818608E-02  0.1328334E+00
          2   -1    0    0  502    0  0.00000000000E+00  0.00000000000E+00  0.20514453514E+04  0.20514453514E+04  0.00000000000E+00 0. -1.
          1   -1    0    0  501    0 -0.00000000000E+00 -0.00000000000E+00 -0.56802244386E+03  0.56802244386E+03  0.00000000000E+00 0. -1.
         25    2    1    2    0    0  0.17548873366E+03  0.13198871335E+03  0.70414513740E+03  0.74810618768E+03  0.12500070968E+03 0.  0.
          2    1    1    2  501    0 -0.30031156984E+02 -0.13814475550E+02 -0.53890755878E+03  0.53992042658E+03  0.00000000000E+00 0. -1.
          1    1    1    2  502    0 -0.14545757668E+03 -0.11817423780E+03  0.13181853289E+04  0.13314411810E+04  0.00000000000E+00 0. -1.
         22    1    3    3    0    0  0.92916262769E+02  0.52044782457E+00  0.19862711281E+03  0.21928618902E+03  0.00000000000E+00 0. -1.
         22    1    3    3    0    0  0.82572470893E+02  0.13146826553E+03  0.50551802459E+03  0.52881999865E+03  0.00000000000E+00 0. -1.
</event>
<event>
 7    1  0.5970484E-006  0.7783429E+02  0.7818608E-02  0.1436550E+00
          2   -1    0    0  502    0  0.00000000000E+00  0.00000000000E+00  0.62833666396E+03  0.62833666396E+03  0.00000000000E+00 0. -1.
          1   -1    0    0  501    0 -0.00000000000E+00 -0.00000000000E+00 -0.23918692925E+04  0.23918692925E+04  0.00000000000E+00 0. -1.
         25    2    1    2    0    0  0.46937124370E+02 -0.36830876080E+02 -0.19311123322E+03  0.23764773112E+03  0.12499955453E+03 0.  0.
          2    1    1    2  501    0 -0.36596651032E+02  0.69532477675E+02 -0.21752946790E+04  0.21767133529E+04  0.00000000000E+00 0. -1.
          1    1    1    2  502    0 -0.10340473338E+02 -0.32701601595E+02  0.60487328368E+03  0.60584487243E+03  0.00000000000E+00 0. -1.
         22    1    3    3    0    0  0.28152520553E+02  0.16180217727E+02  0.39571385023E+01  0.32711203039E+02  0.00000000000E+00 0.  1.
         22    1    3    3    0    0  0.18784603817E+02 -0.53011093807E+02 -0.19706837172E+03  0.20493652808E+03  0.00000000000E+00 0.  1.
</event>
<event>
 7    1  0.5970484E-006  0.6301123E+02  0.7818608E-02  0.1462060E+00
          2   -1    0    0  502    0  0.00000000000E+00  0.00000000000E+00  0.11959270059E+04  0.11959270059E+04  0.00000000000E+00 0. -1.
          1   -1    0    0  501    0 -0.00000000000E+00 -0.00000000000E+00 -0.99603043575E+03  0.99603043575E+03  0.00000000000E+00 0. -1.
         25    2    1    2    0    0  0.65918642440E+02  0.69910249400E+02 -0.18201065135E+03  0.24080063472E+03  0.12499743231E+03 0.  0.
          2    1    1    2  501    0 -0.46124880447E+02 -0.40923580217E+02 -0.78314859034E+03  0.78557237640E+03  0.00000000000E+00 0. -1.
          1    1    1    2  502    0 -0.19793761994E+02 -0.28986669183E+02  0.11650558118E+04  0.11655844305E+04  0.00000000000E+00 0. -1.
         22    1    3    3    0    0 -0.28717594158E+02  0.37423732204E+02 -0.10307208280E+03  0.11335382746E+03  0.00000000000E+00 0. -1.
         22    1    3    3    0    0  0.94636236598E+02  0.32486517196E+02 -0.78938568554E+02  0.12744680727E+03  0.00000000000E+00 0. -1.
</event>
<event>
 7    1  0.5970484E-006  0.7436010E+02  0.7818608E-02  0.1391517E+00
          2   -1    0    0  502    0  0.00000000000E+00  0.00000000000E+00  0.35579476980E+03  0.35579476980E+03  0.00000000000E+00 0. -1.
          1   -1    0    0  501    0 -0.00000000000E+00 -0.00000000000E+00 -0.88045783954E+03  0.88045783954E+03  0.00000000000E+00 0. -1.
         25    2    1    2    0    0 -0.74870246536E+02 -0.16355722843E+02 -0.84485820109E+01  0.14686517821E+03  0.12499975419E+03 0.  0.
          2    1    1    2  501    0  0.77214070362E+01  0.50326225659E+02 -0.79703461111E+03  0.79865920167E+03  0.00000000000E+00 0. -1.
          1    1    1    2  502    0  0.67148839500E+02 -0.33970502816E+02  0.28082012338E+03  0.29072822946E+03  0.00000000000E+00 0. -1.
         22    1    3    3    0    0  0.19660740884E+02  0.34145294036E+01  0.35527389179E+02  0.40747995350E+02  0.00000000000E+00 0. -1.
         22    1    3    3    0    0 -0.94530987420E+02 -0.19770252247E+02 -0.43975971190E+02  0.10611718286E+03  0.00000000000E+00 0. -1.
</event>
<event>
 7    1  0.5970484E-006  0.8888455E+02  0.7818608E-02  0.1362490E+00
          2   -1    0    0  502    0  0.00000000000E+00  0.00000000000E+00  0.10856341164E+03  0.10856341164E+03  0.00000000000E+00 0. -1.
          1   -1    0    0  501    0 -0.00000000000E+00 -0.00000000000E+00 -0.29683960225E+04  0.29683960225E+04  0.00000000000E+00 0. -1.
         25    2    1    2    0    0  0.75144847178E+01  0.14002875918E+03 -0.16922995562E+03  0.25284081893E+03  0.12500072384E+03 0.  0.
          2    1    1    2  501    0  0.63487154757E+01 -0.87807012775E+02 -0.27456059393E+04  0.27470169915E+04  0.00000000000E+00 0. -1.
          1    1    1    2  502    0 -0.13863200193E+02 -0.52221746408E+02  0.55003284075E+02  0.77101623696E+02  0.00000000000E+00 0. -1.
         22    1    3    3    0    0  0.23978907845E+02  0.15178122699E+03 -0.17391644224E+03  0.23207640502E+03  0.00000000000E+00 0.  1.
         22    1    3    3    0    0 -0.16464423127E+02 -0.11752467803E+02  0.46864866169E+01  0.20764413914E+02  0.00000000000E+00 0.  1.
</event>
<event>
 7    1  0.5970484E-006  0.1290077E+03  0.7818608E-02  0.1353311E+00
          2   -1    0    0  502    0  0.00000000000E+00  0.00000000000E+00  0.71071165260E+03  0.71071165260E+03  0.00000000000E+00 0. -1.
          1   -1    0    0  501    0 -0.00000000000E+00 -0.00000000000E+00 -0.65265687251E+02  0.65265687251E+02  0.00000000000E+00 0. -1.
         25    2    1    2    0    0 -0.71938696797E+02 -0.65943596735E+02  0.12607950979E+03  0.20259592805E+03  0.12500133290E+03 0.  0.
          2    1    1    2  501    0 -0.36658777739E+02 -0.16549254571E+02  0.41655277424E+01  0.40436313303E+02  0.00000000000E+00 0. -1.
          1    1    1    2  502    0  0.10859747454E+03  0.82492851306E+02  0.51520092781E+03  0.53294509850E+03  0.00000000000E+00 0. -1.
         22    1    3    3    0    0  0.15488912607E+02 -0.39776710577E+02 -0.48922659107E+01  0.42965420791E+02  0.00000000000E+00 0.  1.
         22    1    3    3    0    0 -0.87427609404E+02 -0.26166886158E+02  0.13097177570E+03  0.15963050726E+03  0.00000000000E+00 0.  1.
</event>
<event>
 7    1  0.5970484E-006  0.2401936E+02  0.7818608E-02  0.1698016E+00
          2   -1    0    0  502    0  0.00000000000E+00  0.00000000000E+00  0.24549336804E+04  0.24549336804E+04  0.00000000000E+00 0. -1.
          1   -1    0    0  501    0 -0.00000000000E+00 -0.00000000000E+00 -0.38437731679E+02  0.38437731679E+02  0.00000000000E+00 0. -1.
         25    2    1    2    0    0  0.86771679448E+01  0.18050426807E+02  0.14206025866E+04  0.14262363440E+04  0.12504914558E+03 0.  0.
          2    1    1    2  501    0 -0.23850530719E+02 -0.31426565091E+01 -0.31436468452E+02  0.39585043316E+02  0.00000000000E+00 0. -1.
          1    1    1    2  502    0  0.15173362775E+02 -0.14907770298E+02  0.10273298306E+04  0.10275500247E+04  0.00000000000E+00 0. -1.
         22    1    3    3    0    0  0.36613808951E+01  0.71325740413E+02  0.92508173174E+03  0.92783456357E+03  0.00000000000E+00 0. -1.
         22    1    3    3    0    0  0.50157870497E+01 -0.53275313606E+02  0.49552085486E+03  0.49840178045E+03  0.00000000000E+00 0. -1.
</event>
<event>
 7    1  0.5970484E-006  0.8992519E+02  0.7818608E-02  0.1383859E+00
          2   -1    0    0  502    0  0.00000000000E+00  0.00000000000E+00  0.12275389936E+04  0.12275389936E+04  0.00000000000E+00 0. -1.
          1   -1    0    0  501    0 -0.00000000000E+00 -0.00000000000E+00 -0.58225711447E+03  0.58225711447E+03  0.00000000000E+00 0. -1.
         25    2    1    2    0    0  0.35890619071E+02 -0.88564531683E+02  0.28163637538E+02  0.15984773518E+03  0.12500518051E+03 0.  0.
          2    1    1    2  501    0 -0.68814237051E+02  0.58206304503E+02 -0.51203523112E+03  0.51990715615E+03  0.00000000000E+00 0. -1.
          1    1    1    2  502    0  0.32923617980E+02  0.30358227180E+02  0.11291534727E+04  0.11300412167E+04  0.00000000000E+00 0. -1.
         22    1    3    3    0    0 -0.15783540065E+00 -0.29135247038E+02  0.71999787130E+02  0.77671467598E+02  0.00000000000E+00 0.  1.
         22    1    3    3    0    0  0.36048454471E+02 -0.59429284645E+02 -0.43836149592E+02  0.82176267586E+02  0.00000000000E+00 0.  1.
</event>
<event>
 7    1  0.5970484E-006  0.3852030E+02  0.7818608E-02  0.1523980E+00
          2   -1    0    0  502    0  0.00000000000E+00  0.00000000000E+00  0.10630576829E+04  0.10630576829E+04  0.00000000000E+00 0. -1.
          1   -1    0    0  501    0 -0.00000000000E+00 -0.00000000000E+00 -0.19804398981E+03  0.19804398981E+03  0.00000000000E+00 0. -1.
         25    2    1    2    0    0 -0.52183303565E+00  0.12860538360E+02  0.70600048907E+03  0.71709674714E+03  0.12500155370E+03 0.  0.
          2    1    1    2  501    0 -0.30374775277E+02  0.21750085059E+02 -0.18912972970E+03  0.19278420016E+03  0.00000000000E+00 0. -1.
          1    1    1    2  502    0  0.30896608313E+02 -0.34610623419E+02  0.34814293373E+03  0.35122072542E+03  0.00000000000E+00 0. -1.
         22    1    3    3    0    0 -0.42036936291E+02 -0.17343182970E+02  0.56864103609E+03  0.57045641194E+03  0.00000000000E+00 0. -1.
         22    1    3    3    0    0  0.41515103255E+02  0.30203721329E+02  0.13735945299E+03  0.14664033519E+03  0.00000000000E+00 0. -1.
</event>
<event>
 7    1  0.5970484E-006  0.1369992E+03  0.7818608E-02  0.1243149E+00
          2   -1    0    0  502    0  0.00000000000E+00  0.00000000000E+00  0.21908930944E+04  0.21908930944E+04  0.00000000000E+00 0. -1.
          1   -1    0    0  501    0 -0.00000000000E+00 -0.00000000000E+00 -0.31348187053E+03  0.31348187053E+03  0.00000000000E+00 0. -1.
         25    2    1    2    0    0  0.15276550954E+03  0.89165015832E+02  0.26934801269E+03  0.34563202989E+03  0.12500178874E+03 0.  0.
          2    1    1    2  501    0 -0.17052619416E+02 -0.10366156404E+03 -0.26274173477E+03  0.28296595357E+03  0.00000000000E+00 0. -1.
          1    1    1    2  502    0 -0.13571289013E+03  0.14496548207E+02  0.18708049460E+04  0.18757769815E+04  0.00000000000E+00 0. -1.
         22    1    3    3    0    0  0.10183364785E+03 -0.93479198288E+01  0.98768053148E+02  0.14217103700E+03  0.00000000000E+00 0. -1.
         22    1    3    3    0    0  0.50931861692E+02  0.98512935661E+02  0.17057995955E+03  0.20346099289E+03  0.00000000000E+00 0. -1.
</event>
<event>
 7    1  0.5970484E-006  0.2260642E+03  0.7818608E-02  0.1223400E+00
          2   -1    0    0  502    0  0.00000000000E+00  0.00000000000E+00  0.14437010990E+04  0.14437010990E+04  0.00000000000E+00 0. -1.
          1   -1    0    0  501    0 -0.00000000000E+00 -0.00000000000E+00 -0.10889547926E+03  0.10889547926E+03  0.00000000000E+00 0. -1.
         25    2    1    2    0    0  0.16788047176E+03 -0.22705441822E+03  0.86107148601E+03  0.91477143516E+03  0.12500045176E+03 0.  0.
          2    1    1    2  501    0 -0.97191745235E+02  0.19413126544E+03  0.72205166465E+02  0.22879416432E+03  0.00000000000E+00 0. -1.
          1    1    1    2  502    0 -0.70688726522E+02  0.32923152777E+02  0.40152896729E+03  0.40903097880E+03  0.00000000000E+00 0. -1.
         22    1    3    3    0    0  0.42250922533E+02  0.41444774616E+01  0.79951422864E+02  0.90523738137E+02  0.00000000000E+00 0.  1.
         22    1    3    3    0    0  0.12562954922E+03 -0.23119889568E+03  0.78112006314E+03  0.82424769702E+03  0.00000000000E+00 0.  1.
</event>
<event>
 7    1  0.5970484E-006  0.9535990E+02  0.7818608E-02  0.1362722E+00
          2   -1    0    0  502    0  0.00000000000E+00  0.00000000000E+00  0.56588905318E+03  0.56588905318E+03  0.00000000000E+00 0. -1.
          1   -1    0    0  501    0 -0.00000000000E+00 -0.00000000000E+00 -0.12323470714E+03  0.12323470714E+03  0.00000000000E+00 0. -1.
         25    2    1    2    0    0  0.58452010367E+02 -0.36046047676E+02  0.23621021221E+03  0.27592758411E+03  0.12499924899E+03 0.  0.
          2    1    1    2  501    0  0.48970351256E+02  0.11329787508E+02 -0.86586787213E+02  0.10011858522E+03  0.00000000000E+00 0. -1.
          1    1    1    2  502    0 -0.10742236162E+03  0.24716260168E+02  0.29303092104E+03  0.31307759099E+03  0.00000000000E+00 0. -1.
         22    1    3    3    0    0  0.42638521582E+02  0.18521713537E+02  0.20678628701E+03  0.21194731867E+03  0.00000000000E+00 0.  1.
         22    1    3    3    0    0  0.15813488785E+02 -0.54567761214E+02  0.29423925205E+02  0.63980265441E+02  0.00000000000E+00 0.  1.
</event>
<event>
 7    1  0.5970484E-006  0.6339302E+02  0.7818608E-02  0.1427841E+00
          2   -1    0    0  502    0  0.00000000000E+00  0.00000000000E+00  0.22159755406E+04  0.22159755406E+04  0.00000000000E+00 0. -1.
          1   -1    0    0  501    0 -0.00000000000E+00 -0.00000000000E+00 -0.19815078455E+02  0.19815078455E+02  0.00000000000E+00 0. -1.
         25    2    1    2    0    0  0.84206177132E+02  0.39036553193E+02  0.71809948839E+03  0.73478302411E+03  0.12499873814E+03 0.  0.
          2    1    1    2  501    0 -0.39776365163E+02 -0.46020472582E+02  0.72117722913E+02  0.94345159284E+02  0.00000000000E+00 0. -1.
          1    1    1    2  502    0 -0.44429811970E+02  0.69839193897E+01  0.14059432509E+04  0.14066624357E+04  0.00000000000E+00 0. -1.
         22    1    3    3    0    0  0.56645736971E+02  0.81327693410E+02  0.37007438400E+03  0.38311614809E+03  0.00000000000E+00 0. -1.
         22    1    3    3    0    0  0.27560440162E+02 -0.42291140218E+02  0.34802510439E+03  0.35166687602E+03  0.00000000000E+00 0. -1.
</event>
<event>
 7    1  0.5970484E-006  0.2657150E+03  0.7818608E-02  0.1238158E+00
          2   -1    0    0  502    0  0.00000000000E+00  0.00000000000E+00  0.22390572816E+03  0.22390572816E+03  0.00000000000E+00 0. -1.
          1   -1    0    0  501    0 -0.00000000000E+00 -0.00000000000E+00 -0.15355795280E+04  0.15355795280E+04  0.00000000000E+00 0. -1.
         25    2    1    2    0    0 -0.18592858492E+03 -0.22304116321E+03 -0.16148824909E+03  0.35499474592E+03  0.12500406339E+03 0.  0.
          2    1    1    2  501    0  0.56872870399E+02  0.34597438839E+01 -0.11483728089E+04  0.11497854589E+04  0.00000000000E+00 0. -1.
          1    1    1    2  502    0  0.12905571452E+03  0.21958141932E+03 -0.18127418515E+01  0.25470505137E+03  0.00000000000E+00 0. -1.
         22    1    3    3    0    0 -0.14866195937E+03 -0.81649660929E+02 -0.94531060056E+02  0.19417303265E+03  0.00000000000E+00 0.  1.
         22    1    3    3    0    0 -0.37266625544E+02 -0.14139150228E+03 -0.66957189034E+02  0.16082171327E+03  0.00000000000E+00 0.  1.
</event>
<event>
 7    1  0.5970484E-006  0.5893587E+02  0.7818608E-02  0.1433457E+00
          2   -1    0    0  502    0  0.00000000000E+00  0.00000000000E+00  0.16474518377E+03  0.16474518377E+03  0.00000000000E+00 0. -1.
          1   -1    0    0  501    0 -0.00000000000E+00 -0.00000000000E+00 -0.12828960668E+04  0.12828960668E+04  0.00000000000E+00 0. -1.
         25    2    1    2    0    0  0.16248702929E+02  0.80936627633E+02 -0.26915828476E+02  0.15219623947E+03  0.12499790177E+03 0.  0.
          2    1    1    2  501    0 -0.37576485382E+02 -0.27155879105E+02 -0.11846544573E+04  0.11855613089E+04  0.00000000000E+00 0. -1.
          1    1    1    2  502    0  0.21327782453E+02 -0.53780748528E+02  0.93419402693E+02  0.10988370223E+03  0.00000000000E+00 0. -1.
         22    1    3    3    0    0 -0.54377478377E+02  0.27179480463E+02 -0.66485498898E+01  0.61154211045E+02  0.00000000000E+00 0.  1.
         22    1    3    3    0    0  0.70626181307E+02  0.53757147170E+02 -0.20267278586E+02  0.91042028422E+02  0.00000000000E+00 0.  1.
</event>
<event>
 7    1  0.5970484E-006  0.1820303E+03  0.7818608E-02  0.1286630E+00
          2   -1    0    0  502    0  0.00000000000E+00  0.00000000000E+00  0.16386004486E+04  0.16386004486E+04  0.00000000000E+00 0. -1.
          1   -1    0    0  501    0 -0.00000000000E+00 -0.00000000000E+00 -0.50307257083E+03  0.50307257083E+03  0.00000000000E+00 0. -1.
         25    2    1    2    0    0 -0.47492648596E+02 -0.22261112803E+03  0.28816539101E+03  0.38791245292E+03  0.12500205023E+03 0.  0.
          2    1    1    2  501    0  0.34552090292E+01  0.51624313756E+02 -0.44570284040E+03  0.44869592174E+03  0.00000000000E+00 0. -1.
          1    1    1    2  502    0  0.44037439566E+02  0.17098681427E+03  0.12930653272E+04  0.13050646448E+04  0.00000000000E+00 0. -1.
         22    1    3    3    0    0  0.31547642469E+02 -0.49866584766E+02  0.26815226715E+02  0.64815016820E+02  0.00000000000E+00 0.  1.
         22    1    3    3    0    0 -0.79040291064E+02 -0.17274454326E+03  0.26135016430E+03  0.32309743611E+03  0.00000000000E+00 0.  1.
</event>
<event>
 7    1  0.5970484E-006  0.5437361E+02  0.7818608E-02  0.1491243E+00
          2   -1    0    0  502    0  0.00000000000E+00  0.00000000000E+00  0.73999452189E+03  0.73999452189E+03  0.00000000000E+00 0. -1.
          1   -1    0    0  501    0 -0.00000000000E+00 -0.00000000000E+00 -0.14553015665E+04  0.14553015665E+04  0.00000000000E+00 0. -1.
         25    2    1    2    0    0 -0.10953621290E+02 -0.82829742810E+02  0.15672208417E+03  0.21718067320E+03  0.12499954012E+03 0.  0.
          2    1    1    2  501    0  0.14449727735E+02  0.29742188509E+02 -0.14236003253E+04  0.14239842971E+04  0.00000000000E+00 0. -1.
          1    1    1    2  502    0 -0.34961064450E+01  0.53087554301E+02  0.55157119649E+03  0.55413111804E+03  0.00000000000E+00 0. -1.
         22    1    3    3    0    0  0.21201885139E+02  0.25638606355E+02  0.58774835604E+02  0.67537688512E+02  0.00000000000E+00 0.  1.
         22    1    3    3    0    0 -0.32155506430E+02 -0.10846834917E+03  0.97947248569E+02  0.14964298469E+03  0.00000000000E+00 0.  1.
</event>
<event>
 7    1  0.5970484E-006  0.9646288E+02  0.7818608E-02  0.1327043E+00
          2   -1    0    0  502    0  0.00000000000E+00  0.00000000000E+00  0.51651655163E+03  0.51651655163E+03  0.00000000000E+00 0. -1.
          1   -1    0    0  501    0 -0.00000000000E+00 -0.00000000000E+00 -0.47668655253E+03  0.47668655253E+03  0.00000000000E+00 0. -1.
         25    2    1    2    0    0  0.89167616287E+02 -0.12253580584E+03  0.27685077890E+02  0.19838736847E+03  0.12500078770E+03 0.  0.
          2    1    1    2  501    0 -0.58012513946E+02  0.34572558310E+02 -0.38294534701E+03  0.38885453882E+03  0.00000000000E+00 0. -1.
          1    1    1    2  502    0 -0.31155102341E+02  0.87963247529E+02  0.39509026823E+03  0.40596119687E+03  0.00000000000E+00 0. -1.
         22    1    3    3    0    0 -0.28018696662E+02 -0.10738748943E+02 -0.10846688379E+02  0.31906405944E+02  0.00000000000E+00 0. -1.
         22    1    3    3    0    0  0.11718631295E+03 -0.11179705690E+03  0.38531766269E+02  0.16648096253E+03  0.00000000000E+00 0. -1.
</event>
<event>
 7    1  0.5970484E-006  0.4364042E+02  0.7818608E-02  0.1526774E+00
          2   -1    0    0  502    0  0.00000000000E+00  0.00000000000E+00  0.45130087488E+03  0.45130087488E+03  0.00000000000E+00 0. -1.
          1   -1    0    0  501    0 -0.00000000000E+00 -0.00000000000E+00 -0.95846349217E+02  0.95846349217E+02  0.00000000000E+00 0. -1.
         25    2    1    2    0    0 -0.47325297447E+02 -0.42587680428E+02  0.17575049124E+03  0.22486866854E+03  0.12499715445E+03 0.  0.
          2    1    1    2  501    0  0.41865695470E+02  0.10681551963E+02 -0.63568377059E+02  0.76862022946E+02  0.00000000000E+00 0. -1.
          1    1    1    2  502    0  0.54596019766E+01  0.31906128465E+02  0.24327241149E+03  0.24541653261E+03  0.00000000000E+00 0. -1.
         22    1    3    3    0    0 -0.28152838288E+02  0.16106825397E+02 -0.59386975690E+01  0.32973932990E+02  0.00000000000E+00 0.  1.
         22    1    3    3    0    0 -0.19172459159E+02 -0.58694505825E+02  0.18168918880E+03  0.19189473555E+03  0.00000000000E+00 0.  1.
</event>
<event>
 7    1  0.5970484E-006  0.5713394E+02  0.7818608E-02  0.1428385E+00
          2   -1    0    0  502    0  0.00000000000E+00  0.00000000000E+00  0.63411303256E+03  0.63411303256E+03  0.00000000000E+00 0. -1.
          1   -1    0    0  501    0 -0.00000000000E+00 -0.00000000000E+00 -0.41265479919E+03  0.41265479919E+03  0.00000000000E+00 0. -1.
         25    2    1    2    0    0 -0.36769563342E+02 -0.45688107661E+02  0.18556903245E+03  0.23129952785E+03  0.12499680720E+03 0.  0.
          2    1    1    2  501    0 -0.11823326331E+02  0.56102962637E+02 -0.38621551634E+03  0.39044815088E+03  0.00000000000E+00 0. -1.
          1    1    1    2  502    0  0.48592889673E+02 -0.10414854975E+02  0.42210471726E+03  0.42502015301E+03  0.00000000000E+00 0. -1.
         22    1    3    3    0    0 -0.80161047540E+02 -0.44643923691E+02  0.14672354326E+03  0.17305106649E+03  0.00000000000E+00 0. -1.
         22    1    3    3    0    0  0.43391484198E+02 -0.10441839709E+01  0.38845489193E+02  0.58248461368E+02  0.00000000000E+00 0. -1.
</event>
<event>
 7    1  0.5970484E-006  0.5569814E+02  0.7818608E-02  0.1474945E+00
          2   -1    0    0  502    0  0.00000000000E+00  0.00000000000E+00  0.34061310272E+03  0.34061310272E+03  0.00000000000E+00 0. -1.
          1   -1    0    0  501    0 -0.00000000000E+00 -0.00000000000E+00 -0.19874109893E+04  0.19874109893E+04  0.00000000000E+00 0. -1.
         25    2    1    2    0    0 -0.24364836982E+02 -0.24134239500E+02 -0.50839918219E+03  0.52466244644E+03  0.12499938981E+03 0.  0.
          2    1    1    2  501    0  0.57003447393E+02  0.84744868851E+01 -0.14693282270E+04  0.14704579724E+04  0.00000000000E+00 0. -1.
          1    1    1    2  502    0 -0.32638610412E+02  0.15659752615E+02  0.33092952256E+03  0.33290367322E+03  0.00000000000E+00 0. -1.
         22    1    3    3    0    0  0.29252373648E+02  0.34362133629E+02 -0.11919655492E+03  0.12745303565E+03  0.00000000000E+00 0.  1.
         22    1    3    3    0    0 -0.53617210630E+02 -0.58496373129E+02 -0.38920262727E+03  0.39720941079E+03  0.00000000000E+00 0.  1.
</event>
<event>
 7    1  0.5970484E-006  0.1808359E+03  0.7818608E-02  0.1176855E+00
          2   -1    0    0  502    0  0.00000000000E+00  0.00000000000E+00  0.16673194541E+03  0.16673194541E+03  0.00000000000E+00 0. -1.
          1   -1    0    0  501    0 -0.00000000000E+00 -0.00000000000E+00 -0.14734438195E+04  0.14734438195E+04  0.00000000000E+00 0. -1.
         25    2    1    2    0    0 -0.34705717878E+02 -0.16372916856E+02 -0.21275659157E+03  0.24972682948E+03  0.12500225136E+03 0.  0.
          2    1    1    2  501    0 -0.15591530839E+03  0.91607983309E+02 -0.11608696043E+04  0.11748701393E+04  0.00000000000E+00 0. -1.
          1    1    1    2  502    0  0.19062102626E+03 -0.75235066453E+02  0.66914321794E+02  0.21557879613E+03  0.00000000000E+00 0. -1.
         22    1    3    3    0    0  0.43021636901E+02 -0.18194546060E+02 -0.11954103174E+03  0.12834313779E+03  0.00000000000E+00 0.  1.
         22    1    3    3    0    0 -0.77727354779E+02  0.18216292040E+01 -0.93215559831E+02  0.12138369169E+03  0.00000000000E+00 0.  1.
</event>
<event>
 7    1  0.5970484E-006  0.4043497E+02  0.7818608E-02  0.1590518E+00
          2   -1    0    0  502    0  0.00000000000E+00  0.00000000000E+00  0.34925063973E+03  0.34925063973E+03  0.00000000000E+00 0. -1.
          1   -1    0    0  501    0 -0.00000000000E+00 -0.00000000000E+00 -0.82062269458E+02  0.82062269458E+02  0.00000000000E+00 0. -1.
         25    2    1    2    0    0 -0.26147491806E+02  0.55325943655E+02  0.18010671846E+03  0.22761414030E+03  0.12500046185E+03 0.  0.
          2    1    1    2  501    0  0.23346893630E+02 -0.32191801065E+02 -0.50432116711E+02  0.64224511628E+02  0.00000000000E+00 0. -1.
          1    1    1    2  502    0  0.28005981758E+01 -0.23134142591E+02  0.13751376853E+03  0.13947425726E+03  0.00000000000E+00 0. -1.
         22    1    3    3    0    0 -0.21805217187E+02 -0.85060764852E+01 -0.11160253149E+02  0.25930138528E+02  0.00000000000E+00 0.  1.
         22    1    3    3    0    0 -0.43422746187E+01  0.63832020141E+02  0.19126697161E+03  0.20168400178E+03  0.00000000000E+00 0.  1.
</event>
<event>
 7    1  0.5970484E-006  0.9316642E+02  0.7818608E-02  0.1393363E+00
          2   -1    0    0  502    0  0.00000000000E+00  0.00000000000E+00  0.91083595504E+03  0.91083595504E+03  0.00000000000E+00 0. -1.
          1   -1    0    0  501    0 -0.00000000000E+00 -0.00000000000E+00 -0.38374421427E+03  0.38374421427E+03  0.00000000000E+00 0. -1.
         25    2    1    2    0    0 -0.15673816485E+02 -0.60713542094E+02  0.23704047012E+03  0.27521762136E+03  0.12499900766E+03 0.  0.
          2    1    1    2  501    0 -0.70206371005E+01  0.93702613532E+02 -0.35797412047E+03  0.37010125648E+03  0.00000000000E+00 0. -1.
          1    1    1    2  502    0  0.22694453586E+02 -0.32989071438E+02  0.64802539112E+03  0.64926129146E+03  0.00000000000E+00 0. -1.
         22    1    3    3    0    0 -0.13487697391E+02  0.19731731566E+02  0.16648796743E+03  0.16819483497E+03  0.00000000000E+00 0. -1.
         22    1    3    3    0    0 -0.21861190942E+01 -0.80445273661E+02  0.70552502688E+02  0.10702278639E+03  0.00000000000E+00 0. -1.
</event>
<event>
 7    1  0.5970484E-006  0.1853436E+03  0.7818608E-02  0.1251000E+00
          2   -1    0    0  502    0  0.00000000000E+00  0.00000000000E+00  0.24489984044E+04  0.24489984044E+04  0.00000000000E+00 0. -1.
          1   -1    0    0  501    0 -0.00000000000E+00 -0.00000000000E+00 -0.18546708771E+04  0.18546708771E+04  0.00000000000E+00 0. -1.
         25    2    1    2    0    0 -0.16716134985E+03  0.10545228871E+03 -0.54175685315E+03  0.59007486405E+03  0.12499902066E+03 0.  0.
          2    1    1    2  501    0  0.18147897402E+03 -0.35126582644E+02 -0.12815915893E+04  0.12948534653E+04  0.00000000000E+00 0. -1.
          1    1    1    2  502    0 -0.14317624170E+02 -0.70325706068E+02  0.24176759697E+04  0.24187409522E+04  0.00000000000E+00 0. -1.
         22    1    3    3    0    0 -0.15602881685E+03  0.10753340389E+03 -0.35018264067E+03  0.39816617946E+03  0.00000000000E+00 0. -1.
         22    1    3    3    0    0 -0.11132532995E+02 -0.20811151746E+01 -0.19157421248E+03  0.19190868459E+03  0.00000000000E+00 0. -1.
</event>
<event>
 7    1  0.5970484E-006  0.6102663E+02  0.7818608E-02  0.1437035E+00
          2   -1    0    0  502    0  0.00000000000E+00  0.00000000000E+00  0.11571922299E+04  0.11571922299E+04  0.00000000000E+00 0. -1.
          1   -1    0    0  501    0 -0.00000000000E+00 -0.00000000000E+00 -0.63609525895E+02  0.63609525895E+02  0.00000000000E+00 0. -1.
         25    2    1    2    0    0 -0.62145793710E+02 -0.76146633002E+02  0.77692342987E+03  0.79302990460E+03  0.12500401721E+03 0.  0.
          2    1    1    2  501    0  0.23810484215E+02  0.55409608237E+02 -0.37449868825E+02  0.70990538233E+02  0.00000000000E+00 0. -1.
          1    1    1    2  502    0  0.38335309495E+02  0.20737024765E+02  0.35410914295E+03  0.35678131295E+03  0.00000000000E+00 0. -1.
         22    1    3    3    0    0  0.29818243666E+01 -0.79836227279E+02  0.58254372087E+03  0.58799651461E+03  0.00000000000E+00 0.  1.
         22    1    3    3    0    0 -0.65127618076E+02  0.36895942772E+01  0.19437970899E+03  0.20503338999E+03  0.00000000000E+00 0.  1.
</event>
<event>
 7    1  0.5970484E-006  0.1243145E+03  0.7818608E-02  0.1281227E+00
          2   -1    0    0  502    0  0.00000000000E+00  0.00000000000E+00  0.22567380051E+04  0.22567380051E+04  0.00000000000E+00 0. -1.
          1   -1    0    0  501    0 -0.00000000000E+00 -0.00000000000E+00 -0.13851695221E+03  0.13851695221E+03  0.00000000000E+00 0. -1.
         25    2    1    2    0    0  0.67982885210E+02  0.10336061805E+02  0.23827733591E+03  0.27772151258E+03  0.12499857152E+03 0.  0.
          2    1    1    2  501    0 -0.12596353155E+03  0.44394856224E+02 -0.80187611699E+02  0.15578115293E+03  0.00000000000E+00 0. -1.
          1    1    1    2  502    0  0.57980646337E+02 -0.54730918029E+02  0.19601313286E+04  0.19617522918E+04  0.00000000000E+00 0. -1.
         22    1    3    3    0    0  0.49319466762E+02 -0.89323355279E+01  0.14269874787E+02  0.52113585044E+02  0.00000000000E+00 0.  1.
         22    1    3    3    0    0  0.18663418447E+02  0.19268397333E+02  0.22400746113E+03  0.22560792753E+03  0.00000000000E+00 0.  1.
</event>
<event>
 7    1  0.5970484E-006  0.5438263E+02  0.7818608E-02  0.1516809E+00
          2   -1    0    0  502    0  0.00000000000E+00  0.00000000000E+00  0.52640097323E+02  0.52640097323E+02  0.00000000000E+00 0. -1.
          1   -1    0    0  501    0 -0.00000000000E+00 -0.00000000000E+00 -0.58002238830E+03  0.58002238830E+03  0.00000000000E+00 0. -1.
         25    2    1    2    0    0 -0.36800151748E+02 -0.17668930395E+01 -0.87817210028E+02  0.15714614936E+03  0.12500270718E+03 0.  0.
          2    1    1    2  501    0 -0.23861069457E+02 -0.14189351258E+02 -0.40084075553E+03  0.40180094527E+03  0.00000000000E+00 0. -1.
          1    1    1    2  502    0  0.60661221205E+02  0.15956244297E+02 -0.38724325420E+02  0.73715390994E+02  0.00000000000E+00 0. -1.
         22    1    3    3    0    0 -0.16249671446E+02 -0.51053707477E+02  0.91477739138E+00  0.53585162937E+02  0.00000000000E+00 0.  1.
         22    1    3    3    0    0 -0.20550480302E+02  0.49286814438E+02 -0.88731987420E+02  0.10356098643E+03  0.00000000000E+00 0.  1.
</event>
<event>
 7    1  0.5970484E-006  0.1340065E+03  0.7818608E-02  0.1265900E+00
          2   -1    0    0  502    0  0.00000000000E+00  0.00000000000E+00  0.11641289216E+04  0.11641289216E+04  0.00000000000E+00 0. -1.
          1   -1    0    0  501    0 -0.00000000000E+00 -0.00000000000E+00 -0.62763329326E+03  0.62763329326E+03  0.00000000000E+00 0. -1.
         25    2    1    2    0    0  0.10222395549E+03 -0.31030989719E+02  0.22331332720E+03  0.27732040235E+03  0.12500041623E+03 0.  0.
          2    1    1    2  501    0 -0.12540459911E+03 -0.51484535973E+02 -0.59092803661E+03  0.60627791925E+03  0.00000000000E+00 0. -1.
          1    1    1    2  502    0  0.23180643626E+02  0.82515525692E+02  0.90411033777E+03  0.90816389329E+03  0.00000000000E+00 0. -1.
         22    1    3    3    0    0  0.98588453263E+02 -0.63915441073E+02  0.11634019455E+03  0.16534783819E+03  0.00000000000E+00 0.  1.
         22    1    3    3    0    0  0.36355022246E+01  0.32884451354E+02  0.10697313265E+03  0.11197256416E+03  0.00000000000E+00 0.  1.
</event>
<event>
 7    1  0.5970484E-006  0.1351401E+03  0.7818608E-02  0.1232743E+00
          2   -1    0    0  502    0  0.00000000000E+00  0.00000000000E+00  0.12314372573E+04  0.12314372573E+04  0.00000000000E+00 0. -1.
          1   -1    0    0  501    0 -0.00000000000E+00 -0.00000000000E+00 -0.84475525714E+03  0.84475525714E+03  0.00000000000E+00 0. -1.
         25    2    1    2    0    0  0.22904431254E+02  0.34056672117E+02  0.63151768415E+02  0.14593637980E+03  0.12499924483E+03 0.  0.
          2    1    1    2  501    0  0.11814792612E+03  0.79257738530E+01 -0.79414948032E+03  0.80292910486E+03  0.00000000000E+00 0. -1.
          1    1    1    2  502    0 -0.14105235737E+03 -0.41982445970E+02  0.11176797121E+04  0.11273270298E+04  0.00000000000E+00 0. -1.
         22    1    3    3    0    0 -0.11414826970E+02 -0.11281250303E+02  0.83889173856E+02  0.85410528469E+02  0.00000000000E+00 0. -1.
         22    1    3    3    0    0  0.34319258224E+02  0.45337922420E+02 -0.20737405441E+02  0.60525851327E+02  0.00000000000E+00 0. -1.
</event>
<event>
 7    1  0.5970484E-006  0.4304617E+02  0.7818608E-02  0.1516923E+00
          2   -1    0    0  502    0  0.00000000000E+00  0.00000000000E+00  0.17499578461E+03  0.17499578461E+03  0.00000000000E+00 0. -1.
          1   -1    0    0  501    0 -0.00000000000E+00 -0.00000000000E+00 -0.18472471637E+04  0.18472471637E+04  0.00000000000E+00 0. -1.
         25    2    1    2    0    0 -0.23016924986E+02  0.62809275881E+02 -0.12504054439E+03  0.18903638660E+03  0.12499933497E+03 0.  0.
          2    1    1    2  501    0  0.31743620812E+02 -0.28867836473E+02 -0.16877847505E+04  0.16883300546E+04  0.00000000000E+00 0. -1.
          1    1    1    2  502    0 -0.87266958259E+01 -0.33941439407E+02  0.14057391573E+03  0.14487650711E+03  0.00000000000E+00 0. -1.
         22    1    3    3    0    0 -0.35084400399E+02  0.19884247367E+01 -0.12199487351E+03  0.12695518165E+03  0.00000000000E+00 0. -1.
         22    1    3    3    0    0  0.12067475413E+02  0.60820851144E+02 -0.30456708756E+01  0.62081204948E+02  0.00000000000E+00 0. -1.
</event>
<event>
 7    1  0.5970484E-006  0.3249548E+02  0.7818608E-02  0.1622180E+00
          2   -1    0    0  502    0  0.00000000000E+00  0.00000000000E+00  0.15660014594E+03  0.15660014594E+03  0.00000000000E+00 0. -1.
          1   -1    0    0  501    0 -0.00000000000E+00 -0.00000000000E+00 -0.13723425621E+04  0.13723425621E+04  0.00000000000E+00 0. -1.
         25    2    1    2    0    0  0.85172575030E+01 -0.75990686590E+01  0.10762880678E+02  0.12598321409E+03  0.12500256442E+03 0.  0.
          2    1    1    2  501    0  0.42861211479E+01 -0.23618171500E+02 -0.13113926537E+04  0.13116123212E+04  0.00000000000E+00 0. -1.
          1    1    1    2  502    0 -0.12803378651E+02  0.31217240159E+02  0.84887356953E+02  0.91347172690E+02  0.00000000000E+00 0. -1.
         22    1    3    3    0    0  0.36490058067E+02  0.10110551458E+02 -0.46421799078E+02  0.59906018213E+02  0.00000000000E+00 0.  1.
         22    1    3    3    0    0 -0.27972800564E+02 -0.17709620117E+02  0.57184679755E+02  0.66077195875E+02  0.00000000000E+00 0.  1.
</event>
<event>
 7    1  0.9129404E-006  0.3783597E+02  0.7818608E-02  0.1618551E+00
          2   -1    0    0  502    0  0.00000000000E+00  0.00000000000E+00  0.15415790714E+04  0.15415790714E+04  0.00000000000E+00 0. -1.
          1   -1    0    0  501    0 -0.00000000000E+00 -0.00000000000E+00 -0.15216531097E+04  0.15216531097E+04  0.00000000000E+00 0. -1.
         25    2    1    2    0    0  0.20419649113E+02  0.13829696583E+02 -0.52306934349E+03  0.53836275759E+03  0.12499879229E+03 0.  0.
          2    1    1    2  501    0  0.17374458487E+02 -0.11900087959E+02 -0.99059172449E+03  0.99081554718E+03  0.00000000000E+00 0. -1.
          1    1    1    2  502    0 -0.37794107600E+02 -0.19296086239E+01  0.15335870297E+04  0.15340538764E+04  0.00000000000E+00 0. -1.
         22    1    3    3    0    0  0.46467061799E+02  0.59088150981E+02 -0.31324930728E+03  0.32214240008E+03  0.00000000000E+00 0.  1.
         22    1    3    3    0    0 -0.26047412687E+02 -0.45258454398E+02 -0.20982003622E+03  0.21622035751E+03  0.00000000000E+00 0.  1.
</event>
<event>
 7    1  0.5970484E-006  0.2523643E+02  0.7818608E-02  0.1674927E+00
          2   -1    0    0  502    0  0.00000000000E+00  0.00000000000E+00  0.13673308211E+02  0.13673308211E+02  0.00000000000E+00 0. -1.
          1   -1    0    0  501    0 -0.00000000000E+00 -0.00000000000E+00 -0.80936956583E+03  0.80936956583E+03  0.00000000000E+00 0. -1.
         25    2    1    2    0    0  0.33134955338E+01 -0.13385450676E+02 -0.35055580817E+03  0.37243087095E+03  0.12500091779E+03 0.  0.
          2    1    1    2  501    0 -0.25163661360E+02  0.64223815335E+01 -0.39038785487E+03  0.39125073043E+03  0.00000000000E+00 0. -1.
          1    1    1    2  502    0  0.21850165827E+02  0.69630691424E+01 -0.54752594581E+02  0.59361272661E+02  0.00000000000E+00 0. -1.
         22    1    3    3    0    0  0.54055359589E+02 -0.19854086929E+02 -0.89606319966E+02  0.10651506582E+03  0.00000000000E+00 0.  1.
         22    1    3    3    0    0 -0.50741864055E+02  0.64686362531E+01 -0.26094948820E+03  0.26591580513E+03  0.00000000000E+00 0.  1.
</event>
<event>
 7    1  0.5970484E-006  0.1642139E+03  0.7818608E-02  0.1251838E+00
          2   -1    0    0  502    0  0.00000000000E+00  0.00000000000E+00  0.36784056417E+03  0.36784056417E+03  0.00000000000E+00 0. -1.
          1   -1    0    0  501    0 -0.00000000000E+00 -0.00000000000E+00 -0.17571488068E+04  0.17571488068E+04  0.00000000000E+00 0. -1.
         25    2    1    2    0    0 -0.33642501779E+02  0.87103849376E+02 -0.17306645341E+03  0.23301764569E+03  0.12500530950E+03 0.  0.
          2    1    1    2  501    0 -0.67056564118E+01  0.80048951899E+02 -0.15311068834E+04  0.15332126691E+04  0.00000000000E+00 0. -1.
          1    1    1    2  502    0  0.40348158191E+02 -0.16715280127E+03  0.31486509415E+03  0.35875905614E+03  0.00000000000E+00 0. -1.
         22    1    3    3    0    0  0.16321414577E+02  0.84438478265E+02 -0.15944768740E+03  0.18116238628E+03  0.00000000000E+00 0.  1.
         22    1    3    3    0    0 -0.49963916356E+02  0.26653711105E+01 -0.13618766018E+02  0.51855259412E+02  0.00000000000E+00 0.  1.
</event>
<event>
 7    1  0.5970484E-006  0.9920303E+02  0.7818608E-02  0.1378366E+00
          2   -1    0    0  502    0  0.00000000000E+00  0.00000000000E+00  0.26695162581E+04  0.26695162581E+04  0.00000000000E+00 0. -1.
          1   -1    0    0  501    0 -0.00000000000E+00 -0.00000000000E+00 -0.36252892830E+03  0.36252892830E+03  0.00000000000E+00 0. -1.
         25    2    1    2    0    0  0.13063341860E+03 -0.53346889272E+02  0.60827216777E+03  0.63681324305E+03  0.12500038316E+03 0.  0.
          2    1    1    2  501    0 -0.92196547446E+02  0.35324526496E+02 -0.34103539313E+03  0.35503966666E+03  0.00000000000E+00 0. -1.
          1    1    1    2  502    0 -0.38436871153E+02  0.18022362775E+02  0.20397505552E+04  0.20401922767E+04  0.00000000000E+00 0. -1.
         22    1    3    3    0    0  0.43977154600E+02  0.41173978681E+02  0.20013591552E+03  0.20900639064E+03  0.00000000000E+00 0. -1.
         22    1    3    3    0    0  0.86656263999E+02 -0.94520867953E+02  0.40813625225E+03  0.42780685241E+03  0.00000000000E+00 0. -1.
</event>
<event>
 7    1  0.5970484E-006  0.2688773E+03  0.7818608E-02  0.1215843E+00
          2   -1    0    0  502    0  0.00000000000E+00  0.00000000000E+00  0.12629577336E+04  0.12629577336E+04  0.00000000000E+00 0. -1.
          1   -1    0    0  501    0 -0.00000000000E+00 -0.00000000000E+00 -0.38220934341E+03  0.38220934341E+03  0.00000000000E+00 0. -1.
         25    2    1    2    0    0  0.31173380266E+03 -0.11159465576E+03  0.61283487065E+02  0.35919126260E+03  0.12502546312E+03 0.  0.
          2    1    1    2  501    0 -0.70331296578E+02  0.95730847628E+01 -0.21104577952E+03  0.22266220219E+03  0.00000000000E+00 0. -1.
          1    1    1    2  502    0 -0.24140250608E+03  0.10202157100E+03  0.10305106827E+04  0.10633136122E+04  0.00000000000E+00 0. -1.
         22    1    3    3    0    0  0.28284779998E+03 -0.13514122074E+03  0.69367363765E+02  0.32105740709E+03  0.00000000000E+00 0.  1.
         22    1    3    3    0    0  0.28886002686E+02  0.23546564980E+02 -0.80838766996E+01  0.38133855509E+02  0.00000000000E+00 0.  1.
</event>
<event>
 7    1  0.1124935E-005  0.1051370E+03  0.7818608E-02  0.1444367E+00
          2   -1    0    0  502    0  0.00000000000E+00  0.00000000000E+00  0.19658268047E+04  0.19658268047E+04  0.00000000000E+00 0. -1.
          1   -1    0    0  501    0 -0.00000000000E+00 -0.00000000000E+00 -0.10192007080E+04  0.10192007080E+04  0.00000000000E+00 0. -1.
         25    2    1    2    0    0 -0.83517445358E+02 -0.25312704703E+02 -0.52011255472E+03  0.54199402655E+03  0.12499823413E+03 0.  0.
          2    1    1    2  501    0 -0.20806898955E+02  0.11862816842E+02 -0.48643758267E+03  0.48702687329E+03  0.00000000000E+00 0. -1.
          1    1    1    2  502    0  0.10432434431E+03  0.13449887861E+02  0.19531762341E+04  0.19560066129E+04  0.00000000000E+00 0. -1.
         22    1    3    3    0    0  0.77820232533E+00 -0.17702587264E+02 -0.36385433859E+03  0.36428555681E+03  0.00000000000E+00 0. -1.
         22    1    3    3    0    0 -0.84295647683E+02 -0.76101174393E+01 -0.15625821614E+03  0.17770846974E+03  0.00000000000E+00 0. -1.
</event>
<event>
 7    1  0.5970484E-006  0.7307198E+02  0.7818608E-02  0.1374748E+00
          2   -1    0    0  502    0  0.00000000000E+00  0.00000000000E+00  0.49416640130E+04  0.49416640130E+04  0.00000000000E+00 0. -1.
          1   -1    0    0  501    0 -0.00000000000E+00 -0.00000000000E+00 -0.23648395127E+04  0.23648395127E+04  0.00000000000E+00 0. -1.
         25    2    1    2    0    0 -0.15066107138E+02 -0.49243312509E+02  0.74645333182E+01  0.13540055743E+03  0.12500280111E+03 0.  0.
          2    1    1    2  501    0 -0.53968293399E+02  0.24739146264E+02 -0.23002130100E+04  0.23009790293E+04  0.00000000000E+00 0. -1.
          1    1    1    2  502    0  0.69034400536E+02  0.24504166245E+02  0.48695729769E+04  0.48701239389E+04  0.00000000000E+00 0. -1.
         22    1    3    3    0    0 -0.30904423192E+02  0.35700349811E+02 -0.71778897568E+01  0.47761076734E+02  0.00000000000E+00 0. -1.
         22    1    3    3    0    0  0.15838316055E+02 -0.84943662320E+02  0.14642423075E+02  0.87639480699E+02  0.00000000000E+00 0. -1.
</event>
<event>
 7    1  0.5970484E-006  0.1287519E+03  0.7818608E-02  0.1269285E+00
          2   -1    0    0  502    0  0.00000000000E+00  0.00000000000E+00  0.23395541746E+02  0.23395541746E+02  0.00000000000E+00 0. -1.
          1   -1    0    0  501    0 -0.00000000000E+00 -0.00000000000E+00 -0.27024986131E+04  0.27024986131E+04  0.00000000000E+00 0. -1.
         25    2    1    2    0    0  0.11797868680E+03 -0.25463108809E+02 -0.14268269333E+04  0.14373680531E+04  0.12499792788E+03 0.  0.
          2    1    1    2  501    0 -0.99743794634E+02  0.10983891726E+03 -0.11249738176E+04  0.11347156042E+04  0.00000000000E+00 0. -1.
          1    1    1    2  502    0 -0.18234892170E+02 -0.84375808455E+02 -0.12730232048E+03  0.15381049751E+03  0.00000000000E+00 0. -1.
         22    1    3    3    0    0  0.62486167553E+02 -0.63701305473E+02 -0.48551454657E+03  0.49364638395E+03  0.00000000000E+00 0.  1.
         22    1    3    3    0    0  0.55492519251E+02  0.38238196664E+02 -0.94131238678E+03  0.94372166918E+03  0.00000000000E+00 0.  1.
</event>
<event>
 7    1  0.5970484E-006  0.5579193E+02  0.7818608E-02  0.1431513E+00
          2   -1    0    0  502    0  0.00000000000E+00  0.00000000000E+00  0.34233775985E+03  0.34233775985E+03  0.00000000000E+00 0. -1.
          1   -1    0    0  501    0 -0.00000000000E+00 -0.00000000000E+00 -0.60469912267E+03  0.60469912267E+03  0.00000000000E+00 0. -1.
         25    2    1    2    0    0 -0.27438967645E+02  0.51031180273E+02  0.26598438384E+02  0.14032133618E+03  0.12500208861E+03 0.  0.
          2    1    1    2  501    0  0.55258808650E+02 -0.98481028442E+01 -0.54399497957E+03  0.54688303947E+03  0.00000000000E+00 0. -1.
          1    1    1    2  502    0 -0.27819841004E+02 -0.41183077429E+02  0.25503517837E+03  0.25983250687E+03  0.00000000000E+00 0. -1.
         22    1    3    3    0    0  0.43749131302E+02 -0.70187140253E+01  0.18809275374E+02  0.48135617544E+02  0.00000000000E+00 0. -1.
         22    1    3    3    0    0 -0.71188098947E+02  0.58049894298E+02  0.77891630100E+01  0.92185718635E+02  0.00000000000E+00 0. -1.
</event>
<event>
 7    1  0.5970484E-006  0.2311414E+03  0.7818608E-02  0.1170253E+00
          2   -1    0    0  502    0  0.00000000000E+00  0.00000000000E+00  0.19426032203E+04  0.19426032203E+04  0.00000000000E+00 0. -1.
          1   -1    0    0  501    0 -0.00000000000E+00 -0.00000000000E+00 -0.16505544572E+04  0.16505544572E+04  0.00000000000E+00 0. -1.
         25    2    1    2    0    0 -0.18538124706E+03 -0.28175493180E+03  0.88930995202E+03  0.95929671726E+03  0.12500381047E+03 0.  0.
          2    1    1    2  501    0  0.75500105056E+02  0.11347217159E+03 -0.16027236854E+04  0.16085084430E+04  0.00000000000E+00 0. -1.
          1    1    1    2  502    0  0.10988114200E+03  0.16828276021E+03  0.10054624965E+04  0.10253525172E+04  0.00000000000E+00 0. -1.
         22    1    3    3    0    0 -0.14021153314E+03 -0.11642590395E+03  0.54545412288E+03  0.57509517934E+03  0.00000000000E+00 0. -1.
         22    1    3    3    0    0 -0.45169713922E+02 -0.16532902785E+03  0.34385582914E+03  0.38420153792E+03  0.00000000000E+00 0. -1.
</event>
<event>
 7    1  0.5970484E-006  0.9831855E+02  0.7818608E-02  0.1313877E+00
          2   -1    0    0  502    0  0.00000000000E+00  0.00000000000E+00  0.27146927525E+03  0.27146927525E+03  0.00000000000E+00 0. -1.
          1   -1    0    0  501    0 -0.00000000000E+00 -0.00000000000E+00 -0.67023670858E+03  0.67023670858E+03  0.00000000000E+00 0. -1.
         25    2    1    2    0    0 -0.86837451839E+02  0.14600255618E+03 -0.11930737655E+02  0.21124683873E+03  0.12500157967E+03 0.  0.
          2    1    1    2  501    0  0.48539599766E+02 -0.82073884516E+02 -0.54623785740E+03  0.55449798207E+03  0.00000000000E+00 0. -1.
          1    1    1    2  502    0  0.38297852073E+02 -0.63928671665E+02  0.15940116172E+03  0.17596116302E+03  0.00000000000E+00 0. -1.
         22    1    3    3    0    0 -0.69120777329E+02  0.10664487487E+03 -0.65079487372E+02  0.14278007869E+03  0.00000000000E+00 0. -1.
         22    1    3    3    0    0 -0.17716674510E+02  0.39357681309E+02  0.53148749717E+02  0.68466760039E+02  0.00000000000E+00 0. -1.
</event>
<event>
 7    1  0.5970484E-006  0.1191588E+03  0.7818608E-02  0.1262441E+00
          2   -1    0    0  502    0  0.00000000000E+00  0.00000000000E+00  0.37939635479E+03  0.37939635479E+03  0.00000000000E+00 0. -1.
          1   -1    0    0  501    0 -0.00000000000E+00 -0.00000000000E+00 -0.12117778365E+04  0.12117778365E+04  0.00000000000E+00 0. -1.
         25    2    1    2    0    0  0.77919751117E+02  0.13598205874E+02 -0.13278903792E+03  0.19878032621E+03  0.12499716269E+03 0.  0.
          2    1    1    2  501    0  0.11912138002E+02 -0.98985368927E+02 -0.10324284462E+04  0.10372311694E+04  0.00000000000E+00 0. -1.
          1    1    1    2  502    0 -0.89831889120E+02  0.85387163053E+02  0.33283600239E+03  0.35516269568E+03  0.00000000000E+00 0. -1.
         22    1    3    3    0    0 -0.12281228342E+02 -0.40820887677E+01  0.18008834804E+02  0.22176793035E+02  0.00000000000E+00 0.  1.
         22    1    3    3    0    0  0.90200979459E+02  0.17680294642E+02 -0.15079787272E+03  0.17660353318E+03  0.00000000000E+00 0.  1.
</event>
<event>
 7    1  0.5970484E-006  0.4925950E+02  0.7818608E-02  0.1461754E+00
          2   -1    0    0  502    0  0.00000000000E+00  0.00000000000E+00  0.84789170052E+03  0.84789170052E+03  0.00000000000E+00 0. -1.
          1   -1    0    0  501    0 -0.00000000000E+00 -0.00000000000E+00 -0.16872817357E+03  0.16872817357E+03  0.00000000000E+00 0. -1.
         25    2    1    2    0    0 -0.49218992929E+02  0.17789153860E+01 -0.33432325663E+00  0.13435596453E+03  0.12500295848E+03 0.  0.
          2    1    1    2  501    0  0.18846262353E+02 -0.40861733595E+02 -0.95561294889E+02  0.10562586784E+03  0.00000000000E+00 0. -1.
          1    1    1    2  502    0  0.30372730576E+02  0.39082818209E+02  0.77505914509E+03  0.77663804171E+03  0.00000000000E+00 0. -1.
         22    1    3    3    0    0 -0.63272299798E+02 -0.14615894802E+02  0.48440191926E+02  0.81015186825E+02  0.00000000000E+00 0. -1.
         22    1    3    3    0    0  0.14053306869E+02  0.16394810188E+02 -0.48774515182E+02  0.53340777706E+02  0.00000000000E+00 0. -1.
</event>
<event>
 7    1  0.5970484E-006  0.7383525E+02  0.7818608E-02  0.1364347E+00
          2   -1    0    0  502    0  0.00000000000E+00  0.00000000000E+00  0.15077705652E+04  0.15077705652E+04  0.00000000000E+00 0. -1.
          1   -1    0    0  501    0 -0.00000000000E+00 -0.00000000000E+00 -0.42868913503E+03  0.42868913503E+03  0.00000000000E+00 0. -1.
         25    2    1    2    0    0  0.19615493280E+02  0.11798992366E+03  0.29020688976E+03  0.33786312796E+03  0.12500025883E+03 0.  0.
          2    1    1    2  501    0 -0.41219211800E+02 -0.49012546348E+02 -0.40122512890E+03  0.40630389757E+03  0.00000000000E+00 0. -1.
          1    1    1    2  502    0  0.21603718520E+02 -0.68977377316E+02  0.11900996694E+04  0.11922926747E+04  0.00000000000E+00 0. -1.
         22    1    3    3    0    0  0.17877665719E+02  0.10653336311E+03  0.30235638868E+03  0.32107375191E+03  0.00000000000E+00 0.  1.
         22    1    3    3    0    0  0.17378275612E+01  0.11456560552E+02 -0.12149498918E+02  0.16789376054E+02  0.00000000000E+00 0.  1.
</event>
<event>
 7    1  0.5970484E-006  0.8420891E+02  0.7818608E-02  0.1389979E+00
          2   -1    0    0  502    0  0.00000000000E+00  0.00000000000E+00  0.11022178320E+04  0.11022178320E+04  0.00000000000E+00 0. -1.
          1   -1    0    0  501    0 -0.00000000000E+00 -0.00000000000E+00 -0.10778518721E+04  0.10778518721E+04  0.00000000000E+00 0. -1.
         25    2    1    2    0    0 -0.11904848350E+03 -0.22690356136E+02  0.12809831990E+03  0.21615233135E+03  0.12500102841E+03 0.  0.
          2    1    1    2  501    0  0.36377619233E+02  0.27361356394E+02 -0.10314790247E+04  0.10324829071E+04  0.00000000000E+00 0. -1.
          1    1    1    2  502    0  0.82670864265E+02 -0.46710002576E+01  0.92774666472E+03  0.93143446572E+03  0.00000000000E+00 0. -1.
         22    1    3    3    0    0 -0.34362400150E+02 -0.65447484145E+02  0.82892347079E+02  0.11106434590E+03  0.00000000000E+00 0. -1.
         22    1    3    3    0    0 -0.84686083348E+02  0.42757128008E+02  0.45205972820E+02  0.10508798545E+03  0.00000000000E+00 0. -1.
</event>
<event>
 7    1  0.5970484E-006  0.1038234E+03  0.7818608E-02  0.1395529E+00
          2   -1    0    0  502    0  0.00000000000E+00  0.00000000000E+00  0.22308126217E+04  0.22308126217E+04  0.00000000000E+00 0. -1.
          1   -1    0    0  501    0 -0.00000000000E+00 -0.00000000000E+00 -0.12453693558E+03  0.12453693558E+03  0.00000000000E+00 0. -1.
         25    2    1    2    0    0 -0.60443152409E+02 -0.46968069195E+02  0.33536433525E+03  0.36599682459E+03  0.12500025623E+03 0.  0.
          2    1    1    2  501    0  0.95724384761E+02  0.45414264987E+02 -0.83318140775E+02  0.13478696482E+03  0.00000000000E+00 0. -1.
          1    1    1    2  502    0 -0.35281232352E+02  0.15538042081E+01  0.18542294916E+04  0.18545657678E+04  0.00000000000E+00 0. -1.
         22    1    3    3    0    0 -0.11421389634E+02 -0.13621631600E+02 -0.65767089456E+01  0.18953893773E+02  0.00000000000E+00 0.  1.
         22    1    3    3    0    0 -0.49021762775E+02 -0.33346437595E+02  0.34194104419E+03  0.34704293082E+03  0.00000000000E+00 0.  1.
</event>
<event>
 7    1  0.5970484E-006  0.9732132E+02  0.7818608E-02  0.1422849E+00
          2   -1    0    0  502    0  0.00000000000E+00  0.00000000000E+00  0.13367218009E+04  0.13367218009E+04  0.00000000000E+00 0. -1.
          1   -1    0    0  501    0 -0.00000000000E+00 -0.00000000000E+00 -0.73323215157E+02  0.73323215157E+02  0.00000000000E+00 0. -1.
         25    2    1    2    0    0 -0.64746232530E+02  0.30145922935E+02  0.18224676784E+03  0.23224973383E+03  0.12500081272E+03 0.  0.
          2    1    1    2  501    0 -0.19146653247E+02  0.23655925181E+02 -0.41092098836E+02  0.51134701657E+02  0.00000000000E+00 0. -1.
          1    1    1    2  502    0  0.83892885777E+02 -0.53801848117E+02  0.11222439167E+04  0.11266605806E+04  0.00000000000E+00 0. -1.
         22    1    3    3    0    0 -0.95972973649E+02  0.39906578968E+02  0.16566337513E+03  0.19557019348E+03  0.00000000000E+00 0.  1.
         22    1    3    3    0    0  0.31226741119E+02 -0.97606560331E+01  0.16583392705E+02  0.36679540356E+02  0.00000000000E+00 0.  1.
</event>
<event>
 7    1  0.5970484E-006  0.1548207E+03  0.7818608E-02  0.1197653E+00
          2   -1    0    0  502    0  0.00000000000E+00  0.00000000000E+00  0.22965233510E+04  0.22965233510E+04  0.00000000000E+00 0. -1.
          1   -1    0    0  501    0 -0.00000000000E+00 -0.00000000000E+00 -0.84650734160E+03  0.84650734160E+03  0.00000000000E+00 0. -1.
         25    2    1    2    0    0 -0.14409323694E+03 -0.11799648363E+03 -0.36741714966E+03  0.43047261862E+03  0.12500112973E+03 0.  0.
          2    1    1    2  501    0 -0.77111330657E+01  0.14965741872E+03 -0.43227418408E+03  0.45751259520E+03  0.00000000000E+00 0. -1.
          1    1    1    2  502    0  0.15180437000E+03 -0.31660935091E+02  0.22497073432E+04  0.22550454788E+04  0.00000000000E+00 0. -1.
         22    1    3    3    0    0 -0.12903740501E+03 -0.77824784097E+02 -0.35523724278E+03  0.38587672587E+03  0.00000000000E+00 0.  1.
         22    1    3    3    0    0 -0.15055831925E+02 -0.40171699530E+02 -0.12179906881E+02  0.44595892745E+02  0.00000000000E+00 0.  1.
</event>
<event>
 7    1  0.5970484E-006  0.1112376E+03  0.7818608E-02  0.1372878E+00
          2   -1    0    0  502    0  0.00000000000E+00  0.00000000000E+00  0.92027456708E+03  0.92027456708E+03  0.00000000000E+00 0. -1.
          1   -1    0    0  501    0 -0.00000000000E+00 -0.00000000000E+00 -0.10607011774E+03  0.10607011774E+03  0.00000000000E+00 0. -1.
         25    2    1    2    0    0 -0.12304481634E+03 -0.67993392410E+02  0.44433721540E+03  0.48251790951E+03  0.12499937508E+03 0.  0.
          2    1    1    2  501    0  0.38131890842E+02  0.10696793214E+02 -0.76345853512E+02  0.86006696441E+02  0.00000000000E+00 0. -1.
          1    1    1    2  502    0  0.84912925496E+02  0.57296599195E+02  0.44621308746E+03  0.45782007887E+03  0.00000000000E+00 0. -1.
         22    1    3    3    0    0 -0.75797141938E+02  0.38844608935E+01  0.33453119441E+03  0.34303267453E+03  0.00000000000E+00 0.  1.
         22    1    3    3    0    0 -0.47247674400E+02 -0.71877853303E+02  0.10980602099E+03  0.13948523498E+03  0.00000000000E+00 0.  1.
</event>
<event>
 7    1  0.5970484E-006  0.1390863E+03  0.7818608E-02  0.1387616E+00
          2   -1    0    0  502    0  0.00000000000E+00  0.00000000000E+00  0.48837290029E+03  0.48837290029E+03  0.00000000000E+00 0. -1.
          1   -1    0    0  501    0 -0.00000000000E+00 -0.00000000000E+00 -0.21864934988E+03  0.21864934988E+03  0.00000000000E+00 0. -1.
         25    2    1    2    0    0  0.53585495163E+02  0.14233935380E+03  0.19581659124E+03  0.27766991329E+03  0.12499818561E+03 0.  0.
          2    1    1    2  501    0 -0.25679033057E+02 -0.11381364816E+02 -0.15858814248E+03  0.16105634772E+03  0.00000000000E+00 0. -1.
          1    1    1    2  502    0 -0.27906462105E+02 -0.13095798899E+03  0.23249510166E+03  0.26829598916E+03  0.00000000000E+00 0. -1.
         22    1    3    3    0    0  0.13197644949E+02  0.14310757156E+03  0.18781161769E+03  0.23648923572E+03  0.00000000000E+00 0. -1.
         22    1    3    3    0    0  0.40387850213E+02 -0.76821775821E+00  0.80049735474E+01  0.41180677567E+02  0.00000000000E+00 0. -1.
</event>
<event>
 7    1  0.5970484E-006  0.5418820E+02  0.7818608E-02  0.1426983E+00
          2   -1    0    0  502    0  0.00000000000E+00  0.00000000000E+00  0.32470217034E+03  0.32470217034E+03  0.00000000000E+00 0. -1.
          1   -1    0    0  501    0 -0.00000000000E+00 -0.00000000000E+00 -0.16582424382E+04  0.16582424382E+04  0.00000000000E+00 0. -1.
         25    2    1    2    0    0  0.26586794653E+02  0.84259197876E+02 -0.24786267099E+02  0.15506737242E+03  0.12500024350E+03 0.  0.
          2    1    1    2  501    0  0.15199438729E+02 -0.50731745729E+02 -0.15650985071E+04  0.15659942751E+04  0.00000000000E+00 0. -1.
          1    1    1    2  502    0 -0.41786233382E+02 -0.33527452147E+02  0.25634450630E+03  0.26188296099E+03  0.00000000000E+00 0. -1.
         22    1    3    3    0    0  0.41009229604E+02 -0.18450790532E+02 -0.24791261962E+02  0.51349734698E+02  0.00000000000E+00 0.  1.
         22    1    3    3    0    0 -0.14422434950E+02  0.10270998841E+03  0.49948632347E-02  0.10371763772E+03  0.00000000000E+00 0.  1.
</event>
<event>
 7    1  0.5970484E-006  0.1037498E+03  0.7818608E-02  0.1332832E+00
          2   -1    0    0  502    0  0.00000000000E+00  0.00000000000E+00  0.65203108101E+03  0.65203108101E+03  0.00000000000E+00 0. -1.
          1   -1    0    0  501    0 -0.00000000000E+00 -0.00000000000E+00 -0.31681130885E+03  0.31681130885E+03  0.00000000000E+00 0. -1.
         25    2    1    2    0    0  0.98371417214E+02 -0.12499407303E+03  0.20828161396E+03  0.29035671215E+03  0.12500134224E+03 0.  0.
          2    1    1    2  501    0 -0.72682148940E+02  0.71135165178E+02 -0.26405629716E+03  0.28296401638E+03  0.00000000000E+00 0. -1.
          1    1    1    2  502    0 -0.25689268274E+02  0.53858907849E+02  0.39099445535E+03  0.39552166132E+03  0.00000000000E+00 0. -1.
         22    1    3    3    0    0  0.32245913569E+02  0.19225922105E+02  0.72019066082E+02  0.81216875721E+02  0.00000000000E+00 0.  1.
         22    1    3    3    0    0  0.66125503645E+02 -0.14421999513E+03  0.13626254788E+03  0.20913983643E+03  0.00000000000E+00 0.  1.
</event>
<event>
 7    1  0.5970484E-006  0.5722905E+02  0.7818608E-02  0.1451459E+00
          2   -1    0    0  502    0  0.00000000000E+00  0.00000000000E+00  0.60382692641E+03  0.60382692641E+03  0.00000000000E+00 0. -1.
          1   -1    0    0  501    0 -0.00000000000E+00 -0.00000000000E+00 -0.59426430690E+03  0.59426430690E+03  0.00000000000E+00 0. -1.
         25    2    1    2    0    0 -0.18851434124E+02  0.58406700364E+01  0.10688039331E+03  0.16564392249E+03  0.12500000236E+03 0.  0.
          2    1    1    2  501    0 -0.40820730823E+02 -0.87827933765E+01 -0.56219663142E+03  0.56374508593E+03  0.00000000000E+00 0. -1.
          1    1    1    2  502    0  0.59672164947E+02  0.29421233401E+01  0.46487885762E+03  0.46870222489E+03  0.00000000000E+00 0. -1.
         22    1    3    3    0    0 -0.13941021593E+02  0.60366090039E+02  0.88226803894E+02  0.10780716968E+03  0.00000000000E+00 0.  1.
         22    1    3    3    0    0 -0.49104125313E+01 -0.54525420003E+02  0.18653589415E+02  0.57836752811E+02  0.00000000000E+00 0.  1.
</event>
<event>
 7    1  0.5970484E-006  0.6310573E+02  0.7818608E-02  0.1387685E+00
          2   -1    0    0  502    0  0.00000000000E+00  0.00000000000E+00  0.12017848172E+04  0.12017848172E+04  0.00000000000E+00 0. -1.
          1   -1    0    0  501    0 -0.00000000000E+00 -0.00000000000E+00 -0.14498180935E+03  0.14498180935E+03  0.00000000000E+00 0. -1.
         25    2    1    2    0    0 -0.26031265940E+02  0.12031865032E+03  0.11571669530E+03  0.21016529322E+03  0.12499956992E+03 0.  0.
          2    1    1    2  501    0  0.19457298764E+02 -0.58733559278E+02 -0.86941195522E+02  0.10670983525E+03  0.00000000000E+00 0. -1.
          1    1    1    2  502    0  0.65739671759E+01 -0.61585091041E+02  0.10280275081E+04  0.10298914981E+04  0.00000000000E+00 0. -1.
         22    1    3    3    0    0 -0.20308385151E+02  0.23401894388E+02  0.10847097145E+03  0.11280971064E+03  0.00000000000E+00 0.  1.
         22    1    3    3    0    0 -0.57228807884E+01  0.96916755931E+02  0.72457238552E+01  0.97355582577E+02  0.00000000000E+00 0.  1.
</event>
<event>
 7    1  0.5970484E-006  0.4770693E+02  0.7818608E-02  0.1500388E+00
          2   -1    0    0  502    0  0.00000000000E+00  0.00000000000E+00  0.15673738641E+03  0.15673738641E+03  0.00000000000E+00 0. -1.
          1   -1    0    0  501    0 -0.00000000000E+00 -0.00000000000E+00 -0.20263903097E+03  0.20263903097E+03  0.00000000000E+00 0. -1.
         25    2    1    2    0    0  0.80986397104E+02  0.10057027715E+02 -0.11192502231E+03  0.18658013246E+03  0.12499997955E+03 0.  0.
          2    1    1    2  501    0 -0.34396998992E+02 -0.82784253107E+01 -0.42134036510E+02  0.55017841632E+02  0.00000000000E+00 0. -1.
          1    1    1    2  502    0 -0.46589398112E+02 -0.17786024043E+01  0.10815741426E+03  0.11777844329E+03  0.00000000000E+00 0. -1.
         22    1    3    3    0    0  0.70323029039E+02 -0.25818319745E+02 -0.70697008827E+01  0.75245562781E+02  0.00000000000E+00 0. -1.
         22    1    3    3    0    0  0.10663368065E+02  0.35875347460E+02 -0.10485532143E+03  0.11133456968E+03  0.00000000000E+00 0. -1.
</event>
