<event>
 7    1  0.6597701E-006  0.1561175E+03  0.7818608E-02  0.1285917E+00
          2   -1    0    0  502    0  0.00000000000E+00  0.00000000000E+00  0.18580239131E+04  0.18580239131E+04  0.00000000000E+00 0. -1.
          1   -1    0    0  501    0 -0.00000000000E+00 -0.00000000000E+00 -0.18128057374E+04  0.18128057374E+04  0.00000000000E+00 0. -1.
         25    2    1    2    0    0  0.97583916084E+02  0.24836113472E+02 -0.42907409438E+02  0.16614894956E+03  0.12499989778E+03 0.  0.
          2    1    1    2  501    0 -0.15817136218E+03 -0.20617337925E+02 -0.17040385086E+04  0.17114878011E+04  0.00000000000E+00 0. -1.
          1    1    1    2  502    0  0.60587446101E+02 -0.42187755468E+01  0.17921640939E+04  0.17931928998E+04  0.00000000000E+00 0. -1.
         22    1    3    3    0    0 -0.25436307803E+02 -0.14615751303E+02  0.19253477396E+01  0.29399539192E+02  0.00000000000E+00 0.  1.
         22    1    3    3    0    0  0.12302022389E+03  0.39451864775E+02 -0.44832757178E+02  0.13674941037E+03  0.00000000000E+00 0.  1.
</event>
<event>
 7    1  0.6597701E-006  0.1956500E+03  0.7818608E-02  0.1259791E+00
          2   -1    0    0  502    0  0.00000000000E+00  0.00000000000E+00  0.42362743563E+03  0.42362743563E+03  0.00000000000E+00 0. -1.
          1   -1    0    0  501    0 -0.00000000000E+00 -0.00000000000E+00 -0.88738533964E+03  0.88738533964E+03  0.00000000000E+00 0. -1.
         25    2    1    2    0    0 -0.75576083288E+02  0.17661985961E+03 -0.16003015106E+03  0.27953728449E+03  0.12500050000E+03 0.  0.
          2    1    1    2  501    0 -0.55142970861E+02 -0.29035066591E+02 -0.63926989071E+03  0.64230037793E+03  0.00000000000E+00 0. -1.
          1    1    1    2  502    0  0.13071905415E+03 -0.14758479302E+03  0.33554213775E+03  0.38917511284E+03  0.00000000000E+00 0. -1.
         22    1    3    3    0    0 -0.94016218229E+02  0.18342648308E+03 -0.13014189042E+03  0.24376471366E+03  0.00000000000E+00 0.  1.
         22    1    3    3    0    0  0.18440134941E+02 -0.68066234683E+01 -0.29888260647E+02  0.35772570835E+02  0.00000000000E+00 0.  1.
</event>
<event>
 7    1  0.6597701E-006  0.1798162E+03  0.7818608E-02  0.1210043E+00
          2   -1    0    0  502    0  0.00000000000E+00  0.00000000000E+00  0.39060678493E+04  0.39060678493E+04  0.00000000000E+00 0. -1.
          1   -1    0    0  501    0 -0.00000000000E+00 -0.00000000000E+00 -0.61036073754E+03  0.61036073754E+03  0.00000000000E+00 0. -1.
         25    2    1    2    0    0  0.92836375329E+02 -0.21569273502E+03  0.77826496257E+02  0.27717240012E+03  0.12500250934E+03 0.  0.
          2    1    1    2  501    0 -0.13727806901E+03  0.11192892176E+03 -0.49444567186E+03  0.52521412222E+03  0.00000000000E+00 0. -1.
          1    1    1    2  502    0  0.44441693685E+02  0.10376381326E+03  0.37123262874E+04  0.37140420645E+04  0.00000000000E+00 0. -1.
         22    1    3    3    0    0 -0.86949367307E+01 -0.51358472642E+02 -0.25618894779E+02  0.58048448786E+02  0.00000000000E+00 0. -1.
         22    1    3    3    0    0  0.10153131206E+03 -0.16433426238E+03  0.10344539104E+03  0.21912395133E+03  0.00000000000E+00 0. -1.
</event>
<event>
 7    1  0.6597701E-006  0.1353991E+03  0.7818608E-02  0.1370727E+00
          2   -1    0    0  502    0  0.00000000000E+00  0.00000000000E+00  0.33138405864E+03  0.33138405864E+03  0.00000000000E+00 0. -1.
          1   -1    0    0  501    0 -0.00000000000E+00 -0.00000000000E+00 -0.10948301814E+04  0.10948301814E+04  0.00000000000E+00 0. -1.
         25    2    1    2    0    0  0.14084697795E+03  0.65564769076E+02 -0.19570582502E+03  0.27939653397E+03  0.12500017243E+03 0.  0.
          2    1    1    2  501    0 -0.31015770617E+02  0.11616584713E+02 -0.84137656167E+03  0.84202817150E+03  0.00000000000E+00 0. -1.
          1    1    1    2  502    0 -0.10983120733E+03 -0.77181353789E+02  0.27363626391E+03  0.30478953460E+03  0.00000000000E+00 0. -1.
         22    1    3    3    0    0  0.58474595463E+02 -0.13377152915E+00 -0.15516769087E+01  0.58495332383E+02  0.00000000000E+00 0.  1.
         22    1    3    3    0    0  0.82372382486E+02  0.65698540605E+02 -0.19415414811E+03  0.22090120159E+03  0.00000000000E+00 0.  1.
</event>
<event>
 7    1  0.6597701E-006  0.6534462E+02  0.7818608E-02  0.1403177E+00
          2   -1    0    0  502    0  0.00000000000E+00  0.00000000000E+00  0.45539025576E+03  0.45539025576E+03  0.00000000000E+00 0. -1.
          1   -1    0    0  501    0 -0.00000000000E+00 -0.00000000000E+00 -0.14543248527E+03  0.14543248527E+03  0.00000000000E+00 0. -1.
         25    2    1    2    0    0 -0.36785224396E+02  0.42136913745E+01  0.68163539210E+02  0.14711184441E+03  0.12499887504E+03 0.  0.
          2    1    1    2  501    0  0.52065245861E+02  0.46338474010E+02 -0.92192483620E+02  0.11557464270E+03  0.00000000000E+00 0. -1.
          1    1    1    2  502    0 -0.15280021465E+02 -0.50552165384E+02  0.33398671490E+03  0.33813625391E+03  0.00000000000E+00 0. -1.
         22    1    3    3    0    0 -0.21004475555E+02 -0.26761692406E+02 -0.28504269917E+02  0.44383212787E+02  0.00000000000E+00 0. -1.
         22    1    3    3    0    0 -0.15780748841E+02  0.30975383780E+02  0.96667809127E+02  0.10272863163E+03  0.00000000000E+00 0. -1.
</event>
<event>
 7    1  0.6597701E-006  0.1713164E+03  0.7818608E-02  0.1287612E+00
          2   -1    0    0  502    0  0.00000000000E+00  0.00000000000E+00  0.29592562873E+03  0.29592562873E+03  0.00000000000E+00 0. -1.
          1   -1    0    0  501    0 -0.00000000000E+00 -0.00000000000E+00 -0.14528879934E+04  0.14528879934E+04  0.00000000000E+00 0. -1.
         25    2    1    2    0    0  0.16899905457E+03  0.23221508290E+01 -0.77320181556E+02  0.22398547926E+03  0.12500004645E+03 0.  0.
          2    1    1    2  501    0 -0.50743532534E+01  0.54233401049E+02 -0.12677891734E+04  0.12689587854E+04  0.00000000000E+00 0. -1.
          1    1    1    2  502    0 -0.16392470132E+03 -0.56555551878E+02  0.18814699027E+03  0.25586935748E+03  0.00000000000E+00 0. -1.
         22    1    3    3    0    0  0.15246976975E+03  0.18843966835E+02 -0.10625244959E+03  0.18679322476E+03  0.00000000000E+00 0. -1.
         22    1    3    3    0    0  0.16529284819E+02 -0.16521816006E+02  0.28932268033E+02  0.37192254493E+02  0.00000000000E+00 0. -1.
</event>
<event>
 7    1  0.6597701E-006  0.7269859E+02  0.7818608E-02  0.1373826E+00
          2   -1    0    0  502    0  0.00000000000E+00  0.00000000000E+00  0.40606059572E+04  0.40606059572E+04  0.00000000000E+00 0. -1.
          1   -1    0    0  501    0 -0.00000000000E+00 -0.00000000000E+00 -0.12952646068E+02  0.12952646068E+02  0.00000000000E+00 0. -1.
         25    2    1    2    0    0 -0.30234617490E+02  0.98709264204E+02  0.12684482447E+04  0.12787663362E+04  0.12499896840E+03 0.  0.
          2    1    1    2  501    0  0.55294995316E+02 -0.44052962230E+02  0.16030950390E+03  0.17520655532E+03  0.00000000000E+00 0. -1.
          1    1    1    2  502    0 -0.25060377827E+02 -0.54656301973E+02  0.26188955626E+04  0.26195857118E+04  0.00000000000E+00 0. -1.
         22    1    3    3    0    0 -0.77374337583E+02  0.76725021669E+02  0.78463129852E+03  0.79216146819E+03  0.00000000000E+00 0. -1.
         22    1    3    3    0    0  0.47139720094E+02  0.21984242535E+02  0.48381694616E+03  0.48660486796E+03  0.00000000000E+00 0. -1.
</event>
<event>
 7    1  0.6597701E-006  0.4365281E+02  0.7818608E-02  0.1508775E+00
          2   -1    0    0  502    0  0.00000000000E+00  0.00000000000E+00  0.36456264931E+03  0.36456264931E+03  0.00000000000E+00 0. -1.
          1   -1    0    0  501    0 -0.00000000000E+00 -0.00000000000E+00 -0.61166376035E+02  0.61166376035E+02  0.00000000000E+00 0. -1.
         25    2    1    2    0    0  0.21098173666E+02 -0.18161241620E+02  0.10590760428E+03  0.16618116851E+03  0.12499918597E+03 0.  0.
          2    1    1    2  501    0 -0.23997804578E+02 -0.27518938671E+02 -0.16966616274E+02  0.40262298468E+02  0.00000000000E+00 0. -1.
          1    1    1    2  502    0  0.28996309123E+01  0.45680180291E+02  0.21445528526E+03  0.21928555837E+03  0.00000000000E+00 0. -1.
         22    1    3    3    0    0  0.62982816354E+02 -0.41055266322E+02  0.86623867639E+02  0.11469988881E+03  0.00000000000E+00 0.  1.
         22    1    3    3    0    0 -0.41884642688E+02  0.22894024703E+02  0.19283736645E+02  0.51481279696E+02  0.00000000000E+00 0.  1.
</event>
<event>
 7    1  0.6597701E-006  0.9935244E+02  0.7818608E-02  0.1400464E+00
          2   -1    0    0  502    0  0.00000000000E+00  0.00000000000E+00  0.40143298208E+03  0.40143298208E+03  0.00000000000E+00 0. -1.
          1   -1    0    0  501    0 -0.00000000000E+00 -0.00000000000E+00 -0.15827722059E+03  0.15827722059E+03  0.00000000000E+00 0. -1.
         25    2    1    2    0    0  0.95605236113E+02  0.27077303630E+02  0.70296211247E+02  0.17447391310E+03  0.12500418990E+03 0.  0.
          2    1    1    2  501    0 -0.14760776653E+02  0.32270802382E+02 -0.93828196488E+02  0.10031458354E+03  0.00000000000E+00 0. -1.
          1    1    1    2  502    0 -0.80844459460E+02 -0.59348106012E+02  0.26668774673E+03  0.28492170603E+03  0.00000000000E+00 0. -1.
         22    1    3    3    0    0  0.19882099423E+02 -0.19403649027E+02  0.80386758126E+02  0.85051927404E+02  0.00000000000E+00 0.  1.
         22    1    3    3    0    0  0.75723136690E+02  0.46480952657E+02 -0.10090546879E+02  0.89421985699E+02  0.00000000000E+00 0.  1.
</event>
<event>
 7    1  0.6597701E-006  0.1109511E+03  0.7818608E-02  0.1370261E+00
          2   -1    0    0  502    0  0.00000000000E+00  0.00000000000E+00  0.78889345858E+02  0.78889345858E+02  0.00000000000E+00 0. -1.
          1   -1    0    0  501    0 -0.00000000000E+00 -0.00000000000E+00 -0.21960771035E+04  0.21960771035E+04  0.00000000000E+00 0. -1.
         25    2    1    2    0    0 -0.10047992029E+03  0.96408705301E+02 -0.28713644915E+03  0.34272768513E+03  0.12499629147E+03 0.  0.
          2    1    1    2  501    0  0.93882158814E+02 -0.56375055136E+02 -0.18712288027E+04  0.18744303771E+04  0.00000000000E+00 0. -1.
          1    1    1    2  502    0  0.65977614797E+01 -0.40033650165E+02  0.41177494157E+02  0.57808387170E+02  0.00000000000E+00 0. -1.
         22    1    3    3    0    0 -0.12880279414E+03  0.69243154795E+02 -0.20634763626E+03  0.25291129128E+03  0.00000000000E+00 0.  1.
         22    1    3    3    0    0  0.28322873841E+02  0.27165550506E+02 -0.80788812886E+02  0.89816393851E+02  0.00000000000E+00 0.  1.
</event>
<event>
 7    1  0.6597701E-006  0.5263285E+02  0.7818608E-02  0.1503561E+00
          2   -1    0    0  502    0  0.00000000000E+00  0.00000000000E+00  0.57347900223E+03  0.57347900223E+03  0.00000000000E+00 0. -1.
          1   -1    0    0  501    0 -0.00000000000E+00 -0.00000000000E+00 -0.68061571055E+03  0.68061571055E+03  0.00000000000E+00 0. -1.
         25    2    1    2    0    0  0.25236100581E+02  0.47961326214E+01 -0.45212853357E+03  0.46980841704E+03  0.12505948263E+03 0.  0.
          2    1    1    2  501    0  0.17521049200E+02  0.26031004224E+02 -0.21728758469E+03  0.21954155599E+03  0.00000000000E+00 0. -1.
          1    1    1    2  502    0 -0.42757149781E+02 -0.30827136846E+02  0.56227940994E+03  0.56474473974E+03  0.00000000000E+00 0. -1.
         22    1    3    3    0    0 -0.44583693149E+02 -0.15017424261E+02 -0.26413355077E+03  0.26829044218E+03  0.00000000000E+00 0. -1.
         22    1    3    3    0    0  0.69819793730E+02  0.19813556883E+02 -0.18799498280E+03  0.20151797486E+03  0.00000000000E+00 0. -1.
</event>
<event>
 7    1  0.6597701E-006  0.7185280E+02  0.7818608E-02  0.1463585E+00
          2   -1    0    0  502    0  0.00000000000E+00  0.00000000000E+00  0.42935720526E+03  0.42935720526E+03  0.00000000000E+00 0. -1.
          1   -1    0    0  501    0 -0.00000000000E+00 -0.00000000000E+00 -0.13768726047E+03  0.13768726047E+03  0.00000000000E+00 0. -1.
         25    2    1    2    0    0  0.18551387156E+02  0.38059236640E+02  0.37009242312E+03  0.39291561902E+03  0.12498648953E+03 0.  0.
          2    1    1    2  501    0 -0.34384462774E+02 -0.64061183903E+02 -0.10897221763E+03  0.13100027015E+03  0.00000000000E+00 0. -1.
          1    1    1    2  502    0  0.15833075618E+02  0.26001947263E+02  0.30549739298E+02  0.43128576561E+02  0.00000000000E+00 0. -1.
         22    1    3    3    0    0 -0.17062991642E+02 -0.11897301948E+02  0.33407939035E+01  0.21067804379E+02  0.00000000000E+00 0. -1.
         22    1    3    3    0    0  0.35614378798E+02  0.49956538589E+02  0.36675162921E+03  0.37184781464E+03  0.00000000000E+00 0. -1.
</event>
<event>
 7    1  0.6597701E-006  0.7260579E+02  0.7818608E-02  0.1371186E+00
          2   -1    0    0  502    0  0.00000000000E+00  0.00000000000E+00  0.97835357564E+03  0.97835357564E+03  0.00000000000E+00 0. -1.
          1   -1    0    0  501    0 -0.00000000000E+00 -0.00000000000E+00 -0.18265697101E+04  0.18265697101E+04  0.00000000000E+00 0. -1.
         25    2    1    2    0    0 -0.13010342741E+03  0.26281257117E+00  0.11584293043E+03  0.21441089072E+03  0.12500189853E+03 0.  0.
          2    1    1    2  501    0  0.70658040406E+02  0.15615411740E+02 -0.17753837757E+04  0.17768578870E+04  0.00000000000E+00 0. -1.
          1    1    1    2  502    0  0.59445387005E+02 -0.15878224311E+02  0.81132471079E+03  0.81365450799E+03  0.00000000000E+00 0. -1.
         22    1    3    3    0    0 -0.97380826609E+02  0.41721420225E+02  0.12160528714E+03  0.16128096030E+03  0.00000000000E+00 0.  1.
         22    1    3    3    0    0 -0.32722600803E+02 -0.41458607653E+02 -0.57623567058E+01  0.53129930422E+02  0.00000000000E+00 0.  1.
</event>
<event>
 7    1  0.6597701E-006  0.8719647E+02  0.7818608E-02  0.1401972E+00
          2   -1    0    0  502    0  0.00000000000E+00  0.00000000000E+00  0.97566917856E+02  0.97566917856E+02  0.00000000000E+00 0. -1.
          1   -1    0    0  501    0 -0.00000000000E+00 -0.00000000000E+00 -0.96807602014E+03  0.96807602014E+03  0.00000000000E+00 0. -1.
         25    2    1    2    0    0 -0.56468095300E+02 -0.14004908425E+02 -0.36527509205E+03  0.39043136330E+03  0.12500389326E+03 0.  0.
          2    1    1    2  501    0 -0.17471243356E+02 -0.35932126279E+02 -0.56590574191E+03  0.56731443730E+03  0.00000000000E+00 0. -1.
          1    1    1    2  502    0  0.73939338656E+02  0.49937034704E+02  0.60671731666E+02  0.10789713740E+03  0.00000000000E+00 0. -1.
         22    1    3    3    0    0 -0.50758193870E+02 -0.67200461389E+02 -0.23251469418E+03  0.24729613678E+03  0.00000000000E+00 0.  1.
         22    1    3    3    0    0 -0.57099014297E+01  0.53195552964E+02 -0.13276039787E+03  0.14313522652E+03  0.00000000000E+00 0.  1.
</event>
<event>
 7    1  0.6597701E-006  0.9675519E+02  0.7818608E-02  0.1325827E+00
          2   -1    0    0  502    0  0.00000000000E+00  0.00000000000E+00  0.82632851689E+03  0.82632851689E+03  0.00000000000E+00 0. -1.
          1   -1    0    0  501    0 -0.00000000000E+00 -0.00000000000E+00 -0.81827087384E+03  0.81827087384E+03  0.00000000000E+00 0. -1.
         25    2    1    2    0    0  0.13245894292E+02 -0.10501942610E+03  0.19070054370E+03  0.25139109478E+03  0.12500500628E+03 0.  0.
          2    1    1    2  501    0  0.57347192768E+02  0.36648233912E+02 -0.78244968009E+03  0.78540390593E+03  0.00000000000E+00 0. -1.
          1    1    1    2  502    0 -0.70593087060E+02  0.68371192192E+02  0.59980677945E+03  0.60780439003E+03  0.00000000000E+00 0. -1.
         22    1    3    3    0    0  0.42080921502E+01  0.19497810104E+02  0.86514976523E+02  0.88784648455E+02  0.00000000000E+00 0. -1.
         22    1    3    3    0    0  0.90378021420E+01 -0.12451723621E+03  0.10418556717E+03  0.16260644633E+03  0.00000000000E+00 0. -1.
</event>
<event>
 7    1  0.6597701E-006  0.1131134E+03  0.7818608E-02  0.1369578E+00
          2   -1    0    0  502    0  0.00000000000E+00  0.00000000000E+00  0.17736184401E+03  0.17736184401E+03  0.00000000000E+00 0. -1.
          1   -1    0    0  501    0 -0.00000000000E+00 -0.00000000000E+00 -0.14994183984E+04  0.14994183984E+04  0.00000000000E+00 0. -1.
         25    2    1    2    0    0 -0.41666532735E+02  0.12304867171E+03  0.79434340812E+02  0.19700572553E+03  0.12499746331E+03 0.  0.
          2    1    1    2  501    0 -0.73142276813E+01 -0.39349814909E+02 -0.13798263285E+04  0.13804066802E+04  0.00000000000E+00 0. -1.
          1    1    1    2  502    0  0.48980760417E+02 -0.83698856796E+02 -0.21664566697E+02  0.99367836698E+02  0.00000000000E+00 0. -1.
         22    1    3    3    0    0 -0.34777879932E+02  0.14077178811E+03  0.94213309583E+02  0.17292294516E+03  0.00000000000E+00 0.  1.
         22    1    3    3    0    0 -0.68886528031E+01 -0.17723116406E+02 -0.14778968771E+02  0.24082780373E+02  0.00000000000E+00 0.  1.
</event>
<event>
 7    1  0.6597701E-006  0.7897874E+02  0.7818608E-02  0.1363062E+00
          2   -1    0    0  502    0  0.00000000000E+00  0.00000000000E+00  0.24669236813E+04  0.24669236813E+04  0.00000000000E+00 0. -1.
          1   -1    0    0  501    0 -0.00000000000E+00 -0.00000000000E+00 -0.17534477707E+03  0.17534477707E+03  0.00000000000E+00 0. -1.
         25    2    1    2    0    0  0.57082157545E+01 -0.34509654347E+02  0.55734009580E+03  0.57225497069E+03  0.12499707645E+03 0.  0.
          2    1    1    2  501    0 -0.65047991855E+02  0.46387617595E+02 -0.15787114154E+03  0.17693600437E+03  0.00000000000E+00 0. -1.
          1    1    1    2  502    0  0.59339776101E+02 -0.11877963249E+02  0.18921099499E+04  0.18930774833E+04  0.00000000000E+00 0. -1.
         22    1    3    3    0    0  0.45949180473E+02 -0.64320782908E+02  0.31221043101E+03  0.32206186289E+03  0.00000000000E+00 0.  1.
         22    1    3    3    0    0 -0.40240964719E+02  0.29811128561E+02  0.24512966479E+03  0.25019310780E+03  0.00000000000E+00 0.  1.
</event>
<event>
 7    1  0.6597701E-006  0.1159910E+03  0.7818608E-02  0.1269199E+00
          2   -1    0    0  502    0  0.00000000000E+00  0.00000000000E+00  0.57263966404E+03  0.57263966404E+03  0.00000000000E+00 0. -1.
          1   -1    0    0  501    0 -0.00000000000E+00 -0.00000000000E+00 -0.15018801358E+04  0.15018801358E+04  0.00000000000E+00 0. -1.
         25    2    1    2    0    0 -0.87256919165E+02 -0.54606483745E+02 -0.41064010719E+03  0.44141313630E+03  0.12499848503E+03 0.  0.
          2    1    1    2  501    0  0.21474581708E+02  0.12438917271E+03 -0.10679828417E+04  0.10754167444E+04  0.00000000000E+00 0. -1.
          1    1    1    2  502    0  0.65782337457E+02 -0.69782688969E+02  0.54938247719E+03  0.55768991908E+03  0.00000000000E+00 0. -1.
         22    1    3    3    0    0 -0.30310523279E+02 -0.84644265509E+02 -0.30229854925E+03  0.31538514928E+03  0.00000000000E+00 0.  1.
         22    1    3    3    0    0 -0.56946395886E+02  0.30037781763E+02 -0.10834155794E+03  0.12602798703E+03  0.00000000000E+00 0.  1.
</event>
<event>
 7    1  0.6597701E-006  0.4455987E+02  0.7818608E-02  0.1536907E+00
          2   -1    0    0  502    0  0.00000000000E+00  0.00000000000E+00  0.68873008083E+02  0.68873008083E+02  0.00000000000E+00 0. -1.
          1   -1    0    0  501    0 -0.00000000000E+00 -0.00000000000E+00 -0.77121876062E+03  0.77121876062E+03  0.00000000000E+00 0. -1.
         25    2    1    2    0    0 -0.18311288114E+02 -0.44037512153E+01 -0.38066680810E+03  0.40110731712E+03  0.12500065904E+03 0.  0.
          2    1    1    2  501    0  0.47097758647E+02  0.11536851972E+02 -0.37491886372E+03  0.37804160115E+03  0.00000000000E+00 0. -1.
          1    1    1    2  502    0 -0.28786470533E+02 -0.71331007567E+01  0.53239919293E+02  0.60942850429E+02  0.00000000000E+00 0. -1.
         22    1    3    3    0    0 -0.44130110299E+02  0.28741239088E+02 -0.69928493024E+02  0.87541530692E+02  0.00000000000E+00 0. -1.
         22    1    3    3    0    0  0.25818822186E+02 -0.33144990303E+02 -0.31073831508E+03  0.31356578643E+03  0.00000000000E+00 0. -1.
</event>
<event>
 7    1  0.6597701E-006  0.7068576E+02  0.7818608E-02  0.1390625E+00
          2   -1    0    0  502    0  0.00000000000E+00  0.00000000000E+00  0.18599960357E+04  0.18599960357E+04  0.00000000000E+00 0. -1.
          1   -1    0    0  501    0 -0.00000000000E+00 -0.00000000000E+00 -0.23229995090E+03  0.23229995090E+03  0.00000000000E+00 0. -1.
         25    2    1    2    0    0  0.10360310661E+02  0.16489378773E+02  0.13633491350E+04  0.13692062494E+04  0.12500261563E+03 0.  0.
          2    1    1    2  501    0 -0.59781318020E+02 -0.38118335607E+02 -0.22236637734E+03  0.23339584243E+03  0.00000000000E+00 0. -1.
          1    1    1    2  502    0  0.49421007359E+02  0.21628956834E+02  0.48671332706E+03  0.48969389467E+03  0.00000000000E+00 0. -1.
         22    1    3    3    0    0  0.15381344517E+02 -0.42643766151E+02  0.23711517383E+03  0.24140978069E+03  0.00000000000E+00 0.  1.
         22    1    3    3    0    0 -0.50210338560E+01  0.59133144924E+02  0.11262339612E+04  0.11277964688E+04  0.00000000000E+00 0.  1.
</event>
<event>
 7    1  0.6597701E-006  0.2590064E+03  0.7818608E-02  0.1337446E+00
          2   -1    0    0  502    0  0.00000000000E+00  0.00000000000E+00  0.20311434375E+04  0.20311434375E+04  0.00000000000E+00 0. -1.
          1   -1    0    0  501    0 -0.00000000000E+00 -0.00000000000E+00 -0.24271101877E+03  0.24271101877E+03  0.00000000000E+00 0. -1.
         25    2    1    2    0    0 -0.12889786256E+03 -0.21502432184E+03  0.25625330877E+03  0.37966668717E+03  0.12502366632E+03 0.  0.
          2    1    1    2  501    0  0.15177954394E+03  0.21313846800E+03 -0.86317650858E+02  0.27552817161E+03  0.00000000000E+00 0. -1.
          1    1    1    2  502    0 -0.22881681381E+02  0.18858538387E+01  0.16184967608E+04  0.16186595975E+04  0.00000000000E+00 0. -1.
         22    1    3    3    0    0 -0.10540157324E+03 -0.67154800142E+02  0.79934861451E+02  0.14835376941E+03  0.00000000000E+00 0. -1.
         22    1    3    3    0    0 -0.23496289319E+02 -0.14786952169E+03  0.17631844732E+03  0.23131291776E+03  0.00000000000E+00 0. -1.
</event>
<event>
 7    1  0.6597701E-006  0.4000519E+02  0.7818608E-02  0.1536158E+00
          2   -1    0    0  502    0  0.00000000000E+00  0.00000000000E+00  0.85424427557E+03  0.85424427557E+03  0.00000000000E+00 0. -1.
          1   -1    0    0  501    0 -0.00000000000E+00 -0.00000000000E+00 -0.66769428656E+03  0.66769428656E+03  0.00000000000E+00 0. -1.
         25    2    1    2    0    0  0.33923249408E+02  0.74346720393E+01  0.17053934440E+03  0.21427267376E+03  0.12499219789E+03 0.  0.
          2    1    1    2  501    0 -0.16169996136E+02  0.28991199273E+02 -0.64477999231E+03  0.64563394961E+03  0.00000000000E+00 0. -1.
          1    1    1    2  502    0 -0.17753253272E+02 -0.36425871312E+02  0.66079063691E+03  0.66203193876E+03  0.00000000000E+00 0. -1.
         22    1    3    3    0    0  0.42849041477E+02  0.35488622103E+02  0.17577585985E+03  0.18437091843E+03  0.00000000000E+00 0. -1.
         22    1    3    3    0    0 -0.89257920693E+01 -0.28053950064E+02 -0.52365154487E+01  0.29901755338E+02  0.00000000000E+00 0. -1.
</event>
<event>
 7    1  0.6597701E-006  0.8574500E+02  0.7818608E-02  0.1329383E+00
          2   -1    0    0  502    0  0.00000000000E+00  0.00000000000E+00  0.11313764051E+04  0.11313764051E+04  0.00000000000E+00 0. -1.
          1   -1    0    0  501    0 -0.00000000000E+00 -0.00000000000E+00 -0.39002547481E+03  0.39002547481E+03  0.00000000000E+00 0. -1.
         25    2    1    2    0    0  0.15606744070E+03 -0.43044321090E+01 -0.21369424135E+02  0.20113877140E+03  0.12499831555E+03 0.  0.
          2    1    1    2  501    0 -0.72381966330E+02  0.17306182507E+02 -0.27204339635E+03  0.28203946976E+03  0.00000000000E+00 0. -1.
          1    1    1    2  502    0 -0.83685474371E+02 -0.13001750398E+02  0.10347637508E+04  0.10382236387E+04  0.00000000000E+00 0. -1.
         22    1    3    3    0    0  0.15766565177E+03 -0.32254514815E+02  0.72619413847E+01  0.16109483936E+03  0.00000000000E+00 0. -1.
         22    1    3    3    0    0 -0.15982110720E+01  0.27950082706E+02 -0.28631365520E+02  0.40043932042E+02  0.00000000000E+00 0. -1.
</event>
<event>
 7    1  0.6597701E-006  0.1802354E+03  0.7818608E-02  0.1191563E+00
          2   -1    0    0  502    0  0.00000000000E+00  0.00000000000E+00  0.26628763115E+03  0.26628763115E+03  0.00000000000E+00 0. -1.
          1   -1    0    0  501    0 -0.00000000000E+00 -0.00000000000E+00 -0.17452405614E+04  0.17452405614E+04  0.00000000000E+00 0. -1.
         25    2    1    2    0    0  0.23662636657E+03  0.90849539138E+02 -0.53581265541E+03  0.60577683809E+03  0.12499879899E+03 0.  0.
          2    1    1    2  501    0 -0.61692002513E+02 -0.12300648121E+03 -0.11354734250E+04  0.11437816210E+04  0.00000000000E+00 0. -1.
          1    1    1    2  502    0 -0.17493436406E+03  0.32156942075E+02  0.19233315012E+03  0.26196973353E+03  0.00000000000E+00 0. -1.
         22    1    3    3    0    0  0.10489838687E+03 -0.24170000279E+02 -0.21162597089E+03  0.23743085738E+03  0.00000000000E+00 0. -1.
         22    1    3    3    0    0  0.13172797970E+03  0.11501953942E+03 -0.32418668452E+03  0.36834598071E+03  0.00000000000E+00 0. -1.
</event>
<event>
 7    1  0.6597701E-006  0.5277822E+02  0.7818608E-02  0.1547465E+00
          2   -1    0    0  502    0  0.00000000000E+00  0.00000000000E+00  0.24119395426E+04  0.24119395426E+04  0.00000000000E+00 0. -1.
          1   -1    0    0  501    0 -0.00000000000E+00 -0.00000000000E+00 -0.19653222484E+02  0.19653222484E+02  0.00000000000E+00 0. -1.
         25    2    1    2    0    0 -0.50644721983E+02  0.17409001841E+02  0.71525939923E+03  0.72807126364E+03  0.12499518205E+03 0.  0.
          2    1    1    2  501    0 -0.20727109822E+01 -0.23288558301E+02 -0.21753852427E+01  0.23481596613E+02  0.00000000000E+00 0. -1.
          1    1    1    2  502    0  0.52717432965E+02  0.58795564605E+01  0.16792023062E+04  0.16800399049E+04  0.00000000000E+00 0. -1.
         22    1    3    3    0    0  0.27337554696E+02  0.63792047469E+01  0.43900163422E+02  0.52108161534E+02  0.00000000000E+00 0.  1.
         22    1    3    3    0    0 -0.77982276679E+02  0.11029797094E+02  0.67135923581E+03  0.67596310210E+03  0.00000000000E+00 0.  1.
</event>
<event>
 7    1  0.6597701E-006  0.1016307E+03  0.7818608E-02  0.1312513E+00
          2   -1    0    0  502    0  0.00000000000E+00  0.00000000000E+00  0.23495197034E+04  0.23495197034E+04  0.00000000000E+00 0. -1.
          1   -1    0    0  501    0 -0.00000000000E+00 -0.00000000000E+00 -0.56037720965E+03  0.56037720965E+03  0.00000000000E+00 0. -1.
         25    2    1    2    0    0  0.58131946127E+02  0.16433510873E+03  0.14107928583E+04  0.14270062709E+04  0.12500022759E+03 0.  0.
          2    1    1    2  501    0 -0.36021307844E+02 -0.94777495937E+02 -0.54616641173E+03  0.55549802669E+03  0.00000000000E+00 0. -1.
          1    1    1    2  502    0 -0.22110638283E+02 -0.69557612792E+02  0.92451604714E+03  0.92739261548E+03  0.00000000000E+00 0. -1.
         22    1    3    3    0    0  0.50461433077E+02  0.49669833957E+02  0.92910475941E+03  0.93179885307E+03  0.00000000000E+00 0. -1.
         22    1    3    3    0    0  0.76705130503E+01  0.11466527477E+03  0.48168809892E+03  0.49520741781E+03  0.00000000000E+00 0. -1.
</event>
<event>
 7    1  0.6597701E-006  0.2835368E+02  0.7818608E-02  0.1620497E+00
          2   -1    0    0  502    0  0.00000000000E+00  0.00000000000E+00  0.13411888872E+04  0.13411888872E+04  0.00000000000E+00 0. -1.
          1   -1    0    0  501    0 -0.00000000000E+00 -0.00000000000E+00 -0.28066482208E+02  0.28066482208E+02  0.00000000000E+00 0. -1.
         25    2    1    2    0    0 -0.50953284586E+01 -0.31415538055E+02  0.34946236577E+03  0.37250646220E+03  0.12499688353E+03 0.  0.
          2    1    1    2  501    0  0.25685629312E+02  0.12763007147E+02 -0.37624820281E+01  0.28927533175E+02  0.00000000000E+00 0. -1.
          1    1    1    2  502    0 -0.20590300853E+02  0.18652530908E+02  0.96742252127E+03  0.96782137405E+03  0.00000000000E+00 0. -1.
         22    1    3    3    0    0 -0.17206855212E+01  0.48532614145E+02  0.14651032728E+03  0.15434912178E+03  0.00000000000E+00 0.  1.
         22    1    3    3    0    0 -0.33746429374E+01 -0.79948152200E+02  0.20295203848E+03  0.21815734042E+03  0.00000000000E+00 0.  1.
</event>
<event>
 7    1  0.6597701E-006  0.6300086E+02  0.7818608E-02  0.1454612E+00
          2   -1    0    0  502    0  0.00000000000E+00  0.00000000000E+00  0.66956482733E+03  0.66956482733E+03  0.00000000000E+00 0. -1.
          1   -1    0    0  501    0 -0.00000000000E+00 -0.00000000000E+00 -0.47572877770E+02  0.47572877770E+02  0.00000000000E+00 0. -1.
         25    2    1    2    0    0 -0.36466159223E+02  0.85403580153E+02  0.23958005747E+03  0.28574064279E+03  0.12500223491E+03 0.  0.
          2    1    1    2  501    0  0.26385849352E+02 -0.26026805280E+02 -0.66904969919E+01  0.37661258464E+02  0.00000000000E+00 0. -1.
          1    1    1    2  502    0  0.10080309871E+02 -0.59376774873E+02  0.38910238909E+03  0.39373580385E+03  0.00000000000E+00 0. -1.
         22    1    3    3    0    0 -0.39820913720E+02  0.78987767031E+02  0.25434931087E+03  0.26929230299E+03  0.00000000000E+00 0. -1.
         22    1    3    3    0    0  0.33547544971E+01  0.64158131218E+01 -0.14769253406E+02  0.16448339793E+02  0.00000000000E+00 0. -1.
</event>
<event>
 7    1  0.6597701E-006  0.6736062E+02  0.7818608E-02  0.1381754E+00
          2   -1    0    0  502    0  0.00000000000E+00  0.00000000000E+00  0.19712046135E+03  0.19712046135E+03  0.00000000000E+00 0. -1.
          1   -1    0    0  501    0 -0.00000000000E+00 -0.00000000000E+00 -0.10267585683E+04  0.10267585683E+04  0.00000000000E+00 0. -1.
         25    2    1    2    0    0 -0.47025880547E+02  0.16562239399E+02 -0.16215082496E+03  0.21072157214E+03  0.12499979886E+03 0.  0.
          2    1    1    2  501    0  0.33235364374E+02  0.50931966264E+02 -0.83230411676E+03  0.83452309579E+03  0.00000000000E+00 0. -1.
          1    1    1    2  502    0  0.13790516173E+02 -0.67494205663E+02  0.16481683482E+03  0.17863436168E+03  0.00000000000E+00 0. -1.
         22    1    3    3    0    0  0.21417486619E+02  0.34027200806E+02 -0.12417878851E+03  0.13052559382E+03  0.00000000000E+00 0.  1.
         22    1    3    3    0    0 -0.68443367166E+02 -0.17464961407E+02 -0.37972036457E+02  0.80195978319E+02  0.00000000000E+00 0.  1.
</event>
<event>
 7    1  0.6597701E-006  0.4242795E+02  0.7818608E-02  0.1505546E+00
          2   -1    0    0  502    0  0.00000000000E+00  0.00000000000E+00  0.74164883979E+02  0.74164883979E+02  0.00000000000E+00 0. -1.
          1   -1    0    0  501    0 -0.00000000000E+00 -0.00000000000E+00 -0.21877689698E+03  0.21877689698E+03  0.00000000000E+00 0. -1.
         25    2    1    2    0    0 -0.28283930781E+02 -0.25869656473E+01 -0.34231835248E+02  0.13267547649E+03  0.12499716151E+03 0.  0.
          2    1    1    2  501    0  0.19947832452E+02  0.40072589396E+02 -0.11323238379E+03  0.12175919341E+03  0.00000000000E+00 0. -1.
          1    1    1    2  502    0  0.83360983291E+01 -0.37485623749E+02  0.28522060319E+01  0.38507111063E+02  0.00000000000E+00 0. -1.
         22    1    3    3    0    0 -0.98368141519E+01 -0.31103342411E+01  0.47642669620E+02  0.48746908212E+02  0.00000000000E+00 0. -1.
         22    1    3    3    0    0 -0.18447116629E+02  0.52336859380E+00 -0.81874504867E+02  0.83928568282E+02  0.00000000000E+00 0. -1.
</event>
<event>
 7    1  0.6597701E-006  0.9655342E+02  0.7818608E-02  0.1360384E+00
          2   -1    0    0  502    0  0.00000000000E+00  0.00000000000E+00  0.72019151348E+03  0.72019151348E+03  0.00000000000E+00 0. -1.
          1   -1    0    0  501    0 -0.00000000000E+00 -0.00000000000E+00 -0.55428874149E+03  0.55428874149E+03  0.00000000000E+00 0. -1.
         25    2    1    2    0    0  0.95221559142E+01  0.59190594932E+02  0.25125649325E+03  0.28696469971E+03  0.12499886198E+03 0.  0.
          2    1    1    2  501    0  0.12372120520E+02  0.49089947716E+02 -0.52844297349E+03  0.53086238194E+03  0.00000000000E+00 0. -1.
          1    1    1    2  502    0 -0.21894276434E+02 -0.10828054265E+03  0.44308925223E+03  0.45665317332E+03  0.00000000000E+00 0. -1.
         22    1    3    3    0    0  0.33659927151E+02 -0.29739733106E+02  0.63076535256E+02  0.77434434982E+02  0.00000000000E+00 0.  1.
         22    1    3    3    0    0 -0.24137771237E+02  0.88930328038E+02  0.18817995800E+03  0.20953026473E+03  0.00000000000E+00 0.  1.
</event>
<event>
 7    1  0.6597701E-006  0.1695358E+03  0.7818608E-02  0.1257681E+00
          2   -1    0    0  502    0  0.00000000000E+00  0.00000000000E+00  0.21603870923E+04  0.21603870923E+04  0.00000000000E+00 0. -1.
          1   -1    0    0  501    0 -0.00000000000E+00 -0.00000000000E+00 -0.45456428986E+03  0.45456428986E+03  0.00000000000E+00 0. -1.
         25    2    1    2    0    0 -0.16710440292E+02 -0.15717356535E+03  0.19329055019E+03  0.27923094040E+03  0.12500365125E+03 0.  0.
          2    1    1    2  501    0  0.73254435259E+02 -0.50727845650E+01 -0.40444594433E+03  0.41105774207E+03  0.00000000000E+00 0. -1.
          1    1    1    2  502    0 -0.56543994967E+02  0.16224634992E+03  0.19169781966E+04  0.19246626997E+04  0.00000000000E+00 0. -1.
         22    1    3    3    0    0  0.31691968112E+02 -0.58494860943E+02  0.14429754673E+03  0.15889559966E+03  0.00000000000E+00 0. -1.
         22    1    3    3    0    0 -0.48402408404E+02 -0.98678704409E+02  0.48993003457E+02  0.12033534074E+03  0.00000000000E+00 0. -1.
</event>
<event>
 7    1  0.6597701E-006  0.1306188E+03  0.7818608E-02  0.1255641E+00
          2   -1    0    0  502    0  0.00000000000E+00  0.00000000000E+00  0.13071840786E+04  0.13071840786E+04  0.00000000000E+00 0. -1.
          1   -1    0    0  501    0 -0.00000000000E+00 -0.00000000000E+00 -0.16332525645E+04  0.16332525645E+04  0.00000000000E+00 0. -1.
         25    2    1    2    0    0 -0.18832355915E+02  0.32023533268E+02  0.18434720446E+03  0.22580810154E+03  0.12500097045E+03 0.  0.
          2    1    1    2  501    0  0.98852756310E+02 -0.87285287140E+02 -0.16076718303E+04  0.16130713880E+04  0.00000000000E+00 0. -1.
          1    1    1    2  502    0 -0.80020400396E+02  0.55261753872E+02  0.10972561399E+04  0.11015571536E+04  0.00000000000E+00 0. -1.
         22    1    3    3    0    0 -0.13622544558E+02 -0.35173321858E+02  0.14032603507E+03  0.14530702808E+03  0.00000000000E+00 0. -1.
         22    1    3    3    0    0 -0.52098113566E+01  0.67196855126E+02  0.44021169396E+02  0.80501073460E+02  0.00000000000E+00 0. -1.
</event>
<event>
 7    1  0.6597701E-006  0.6555278E+02  0.7818608E-02  0.1459649E+00
          2   -1    0    0  502    0  0.00000000000E+00  0.00000000000E+00  0.20183366059E+04  0.20183366059E+04  0.00000000000E+00 0. -1.
          1   -1    0    0  501    0 -0.00000000000E+00 -0.00000000000E+00 -0.79163079645E+03  0.79163079645E+03  0.00000000000E+00 0. -1.
         25    2    1    2    0    0  0.24788355969E+02  0.96206629913E+02  0.39994085824E+02  0.16460355299E+03  0.12499849810E+03 0.  0.
          2    1    1    2  501    0 -0.14649424788E+02 -0.63403191360E+02 -0.72772028915E+03  0.73062397275E+03  0.00000000000E+00 0. -1.
          1    1    1    2  502    0 -0.10138931181E+02 -0.32803438553E+02  0.19144320128E+04  0.19147398766E+04  0.00000000000E+00 0. -1.
         22    1    3    3    0    0  0.64470298765E+02  0.58067807585E+02 -0.13549395252E+02  0.87817286523E+02  0.00000000000E+00 0.  1.
         22    1    3    3    0    0 -0.39681942796E+02  0.38138822328E+02  0.53543481075E+02  0.76786266469E+02  0.00000000000E+00 0.  1.
</event>
<event>
 7    1  0.6597701E-006  0.7257178E+02  0.7818608E-02  0.1437975E+00
          2   -1    0    0  502    0  0.00000000000E+00  0.00000000000E+00  0.10518951214E+04  0.10518951214E+04  0.00000000000E+00 0. -1.
          1   -1    0    0  501    0 -0.00000000000E+00 -0.00000000000E+00 -0.37474067293E+02  0.37474067293E+02  0.00000000000E+00 0. -1.
         25    2    1    2    0    0 -0.67536627919E+02 -0.40513997711E+02  0.72363437525E+03  0.73856119498E+03  0.12499339809E+03 0.  0.
          2    1    1    2  501    0 -0.45448302954E+01  0.36108631588E+02 -0.12931237483E+02  0.38622605562E+02  0.00000000000E+00 0. -1.
          1    1    1    2  502    0  0.72081458215E+02  0.44053661225E+01  0.30371791635E+03  0.31218538816E+03  0.00000000000E+00 0. -1.
         22    1    3    3    0    0 -0.56010803302E+02 -0.12116990050E+02  0.10885187082E+03  0.12301528895E+03  0.00000000000E+00 0. -1.
         22    1    3    3    0    0 -0.11525824618E+02 -0.28397007660E+02  0.61478250444E+03  0.61554590604E+03  0.00000000000E+00 0. -1.
</event>
<event>
 7    1  0.6597701E-006  0.5983563E+02  0.7818608E-02  0.1410551E+00
          2   -1    0    0  502    0  0.00000000000E+00  0.00000000000E+00  0.14868305961E+04  0.14868305961E+04  0.00000000000E+00 0. -1.
          1   -1    0    0  501    0 -0.00000000000E+00 -0.00000000000E+00 -0.26651788525E+02  0.26651788525E+02  0.00000000000E+00 0. -1.
         25    2    1    2    0    0  0.44727084957E+02  0.94018285352E+02  0.59942543978E+03  0.62110836386E+03  0.12499916677E+03 0.  0.
          2    1    1    2  501    0 -0.47983634507E+01 -0.54222257539E+02  0.35036761699E+02  0.64735246773E+02  0.00000000000E+00 0. -1.
          1    1    1    2  502    0 -0.39928721506E+02 -0.39796027812E+02  0.82571660607E+03  0.82763877396E+03  0.00000000000E+00 0. -1.
         22    1    3    3    0    0 -0.17840687745E+02  0.47895164130E+02  0.44791816116E+03  0.45082470649E+03  0.00000000000E+00 0. -1.
         22    1    3    3    0    0  0.62567772703E+02  0.46123121221E+02  0.15150727862E+03  0.17028365737E+03  0.00000000000E+00 0. -1.
</event>
<event>
 7    1  0.6597701E-006  0.6066108E+02  0.7818608E-02  0.1456376E+00
          2   -1    0    0  502    0  0.00000000000E+00  0.00000000000E+00  0.33928454067E+02  0.33928454067E+02  0.00000000000E+00 0. -1.
          1   -1    0    0  501    0 -0.00000000000E+00 -0.00000000000E+00 -0.15595207899E+04  0.15595207899E+04  0.00000000000E+00 0. -1.
         25    2    1    2    0    0  0.43255774604E+01 -0.92187896864E+02 -0.91911128301E+03  0.93214911926E+03  0.12497644193E+03 0.  0.
          2    1    1    2  501    0  0.23603181968E+01  0.54782096445E+02 -0.61889945365E+03  0.62132373439E+03  0.00000000000E+00 0. -1.
          1    1    1    2  502    0 -0.66858956572E+01  0.37405800419E+02  0.12418400802E+02  0.39976390335E+02  0.00000000000E+00 0. -1.
         22    1    3    3    0    0  0.47831015714E+02 -0.72051332008E+02 -0.78457086646E+03  0.78932290287E+03  0.00000000000E+00 0. -1.
         22    1    3    3    0    0 -0.43505438254E+02 -0.20136564856E+02 -0.13454041655E+03  0.14282621639E+03  0.00000000000E+00 0. -1.
</event>
<event>
 7    1  0.6597701E-006  0.5867791E+02  0.7818608E-02  0.1413206E+00
          2   -1    0    0  502    0  0.00000000000E+00  0.00000000000E+00  0.20238239605E+04  0.20238239605E+04  0.00000000000E+00 0. -1.
          1   -1    0    0  501    0 -0.00000000000E+00 -0.00000000000E+00 -0.75788785339E+02  0.75788785339E+02  0.00000000000E+00 0. -1.
         25    2    1    2    0    0 -0.29467348540E+02  0.40735011283E+02  0.40448746532E+03  0.42633716048E+03  0.12500239609E+03 0.  0.
          2    1    1    2  501    0 -0.30700049596E+02 -0.44877114102E+02 -0.52798790900E+02  0.75790241693E+02  0.00000000000E+00 0. -1.
          1    1    1    2  502    0  0.60167398137E+02  0.41421028183E+01  0.15963465008E+04  0.15974853437E+04  0.00000000000E+00 0. -1.
         22    1    3    3    0    0 -0.64241992628E+02 -0.89154073453E+01  0.28579248961E+03  0.29305949093E+03  0.00000000000E+00 0. -1.
         22    1    3    3    0    0  0.34774644088E+02  0.49650418629E+02  0.11869497571E+03  0.13327766954E+03  0.00000000000E+00 0. -1.
</event>
<event>
 7    1  0.6597701E-006  0.6407408E+02  0.7818608E-02  0.1511955E+00
          2   -1    0    0  502    0  0.00000000000E+00  0.00000000000E+00  0.84040731645E+03  0.84040731645E+03  0.00000000000E+00 0. -1.
          1   -1    0    0  501    0 -0.00000000000E+00 -0.00000000000E+00 -0.72829548882E+03  0.72829548882E+03  0.00000000000E+00 0. -1.
         25    2    1    2    0    0  0.70321455296E+02  0.27715917684E+02 -0.61867787060E+01  0.14620633056E+03  0.12499894278E+03 0.  0.
          2    1    1    2  501    0 -0.20775362588E+02  0.12692249198E+02 -0.65054437806E+03  0.65099976706E+03  0.00000000000E+00 0. -1.
          1    1    1    2  502    0 -0.49546092707E+02 -0.40408166882E+02  0.76884298440E+03  0.77149670765E+03  0.00000000000E+00 0. -1.
         22    1    3    3    0    0 -0.24417675050E+02  0.77773570316E+01 -0.36642499063E+02  0.44714459348E+02  0.00000000000E+00 0. -1.
         22    1    3    3    0    0  0.94739130346E+02  0.19938560652E+02  0.30455720357E+02  0.10149187121E+03  0.00000000000E+00 0. -1.
</event>
<event>
 7    1  0.7300755E-006  0.6496303E+02  0.7818608E-02  0.1503637E+00
          2   -1    0    0  502    0  0.00000000000E+00  0.00000000000E+00  0.67657365963E+03  0.67657365963E+03  0.00000000000E+00 0. -1.
          1   -1    0    0  501    0 -0.00000000000E+00 -0.00000000000E+00 -0.17399188726E+04  0.17399188726E+04  0.00000000000E+00 0. -1.
         25    2    1    2    0    0 -0.58424779730E+02 -0.20397522461E+02 -0.46957052600E+03  0.48984711823E+03  0.12499682609E+03 0.  0.
          2    1    1    2  501    0 -0.64296542679E+01  0.24582517643E+02 -0.12584970982E+04  0.12587535846E+04  0.00000000000E+00 0. -1.
          1    1    1    2  502    0  0.64854433998E+02 -0.41849951819E+01  0.66472241122E+03  0.66789182940E+03  0.00000000000E+00 0. -1.
         22    1    3    3    0    0 -0.21064841961E+02  0.47451232700E+02 -0.10493003613E+03  0.11707117294E+03  0.00000000000E+00 0. -1.
         22    1    3    3    0    0 -0.37359937769E+02 -0.67848755161E+02 -0.36464048988E+03  0.37277594529E+03  0.00000000000E+00 0. -1.
</event>
<event>
 7    1  0.6597701E-006  0.3734110E+03  0.7818608E-02  0.1221602E+00
          2   -1    0    0  502    0  0.00000000000E+00  0.00000000000E+00  0.26606297186E+04  0.26606297186E+04  0.00000000000E+00 0. -1.
          1   -1    0    0  501    0 -0.00000000000E+00 -0.00000000000E+00 -0.58069376393E+03  0.58069376393E+03  0.00000000000E+00 0. -1.
         25    2    1    2    0    0 -0.40038463871E+03  0.79174509097E+02  0.20258558824E+03  0.47248517855E+03  0.12499944634E+03 0.  0.
          2    1    1    2  501    0  0.33338156803E+02 -0.34678943560E+02 -0.42968197365E+03  0.43236634964E+03  0.00000000000E+00 0. -1.
          1    1    1    2  502    0  0.36704648190E+03 -0.44495565537E+02  0.23070323401E+04  0.23364719543E+04  0.00000000000E+00 0. -1.
         22    1    3    3    0    0 -0.15497883922E+03  0.57727900280E+02  0.21556351139E+02  0.16678017673E+03  0.00000000000E+00 0. -1.
         22    1    3    3    0    0 -0.24540579949E+03  0.21446608817E+02  0.18102923710E+03  0.30570500182E+03  0.00000000000E+00 0. -1.
</event>
<event>
 7    1  0.6597701E-006  0.1974738E+03  0.7818608E-02  0.1214910E+00
          2   -1    0    0  502    0  0.00000000000E+00  0.00000000000E+00  0.27938744747E+04  0.27938744747E+04  0.00000000000E+00 0. -1.
          1   -1    0    0  501    0 -0.00000000000E+00 -0.00000000000E+00 -0.13074969289E+04  0.13074969289E+04  0.00000000000E+00 0. -1.
         25    2    1    2    0    0  0.10702130905E+03 -0.21790823122E+03 -0.20167450128E+03  0.33946794618E+03  0.12501329607E+03 0.  0.
          2    1    1    2  501    0 -0.12597889737E+02  0.19319609759E+03 -0.10270039938E+04  0.10450936045E+04  0.00000000000E+00 0. -1.
          1    1    1    2  502    0 -0.94423419317E+02  0.24712133632E+02  0.27150560409E+04  0.27168098529E+04  0.00000000000E+00 0. -1.
         22    1    3    3    0    0  0.28109502651E+02 -0.11186632781E+03 -0.23661128022E+02  0.11774577876E+03  0.00000000000E+00 0.  1.
         22    1    3    3    0    0  0.78911806403E+02 -0.10604190341E+03 -0.17801337326E+03  0.22172216742E+03  0.00000000000E+00 0.  1.
</event>
<event>
 7    1  0.6597701E-006  0.3940295E+02  0.7818608E-02  0.1529628E+00
          2   -1    0    0  502    0  0.00000000000E+00  0.00000000000E+00  0.10131184551E+04  0.10131184551E+04  0.00000000000E+00 0. -1.
          1   -1    0    0  501    0 -0.00000000000E+00 -0.00000000000E+00 -0.95156105243E+03  0.95156105243E+03  0.00000000000E+00 0. -1.
         25    2    1    2    0    0 -0.35181847329E+02 -0.23746443288E+02  0.40102841263E+03  0.42219881681E+03  0.12500558878E+03 0.  0.
          2    1    1    2  501    0  0.36016109021E+01  0.39250622363E+02 -0.94004809817E+03  0.94087406694E+03  0.00000000000E+00 0. -1.
          1    1    1    2  502    0  0.31580236426E+02 -0.15504179074E+02  0.60057708825E+03  0.60160662383E+03  0.00000000000E+00 0. -1.
         22    1    3    3    0    0 -0.20952115096E+02 -0.55910085261E+02  0.83070934671E+02  0.10230204762E+03  0.00000000000E+00 0.  1.
         22    1    3    3    0    0 -0.14229732233E+02  0.32163641973E+02  0.31795747796E+03  0.31989676919E+03  0.00000000000E+00 0.  1.
</event>
<event>
 7    1  0.6597701E-006  0.9485144E+02  0.7818608E-02  0.1314570E+00
          2   -1    0    0  502    0  0.00000000000E+00  0.00000000000E+00  0.23718529853E+04  0.23718529853E+04  0.00000000000E+00 0. -1.
          1   -1    0    0  501    0 -0.00000000000E+00 -0.00000000000E+00 -0.27159324718E+03  0.27159324718E+03  0.00000000000E+00 0. -1.
         25    2    1    2    0    0  0.18942403038E+02  0.14754872776E+03 -0.55069425449E+02  0.20195671711E+03  0.12499772906E+03 0.  0.
          2    1    1    2  501    0 -0.43803744580E+02 -0.74920535304E+02 -0.12921572260E+03  0.15565525245E+03  0.00000000000E+00 0. -1.
          1    1    1    2  502    0  0.24861341542E+02 -0.72628192457E+02  0.22845448862E+04  0.22858342629E+04  0.00000000000E+00 0. -1.
         22    1    3    3    0    0 -0.19539489137E+02  0.77338811612E+01 -0.52905915348E+02  0.56926623230E+02  0.00000000000E+00 0. -1.
         22    1    3    3    0    0  0.38481892176E+02  0.13981484660E+03 -0.21635101008E+01  0.14503009388E+03  0.00000000000E+00 0. -1.
</event>
<event>
 7    1  0.6908712E-006  0.1323464E+03  0.7818608E-02  0.1318603E+00
          2   -1    0    0  502    0  0.00000000000E+00  0.00000000000E+00  0.24620313337E+04  0.24620313337E+04  0.00000000000E+00 0. -1.
          1   -1    0    0  501    0 -0.00000000000E+00 -0.00000000000E+00 -0.61350495534E+03  0.61350495534E+03  0.00000000000E+00 0. -1.
         25    2    1    2    0    0  0.16247534959E+03 -0.87884004975E+02 -0.29228435664E+03  0.36766402639E+03  0.12499941442E+03 0.  0.
          2    1    1    2  501    0 -0.49036242035E+02  0.20268838076E+02 -0.27923216601E+03  0.28422874831E+03  0.00000000000E+00 0. -1.
          1    1    1    2  502    0 -0.11343910756E+03  0.67615166899E+02  0.24200429010E+04  0.24236435144E+04  0.00000000000E+00 0. -1.
         22    1    3    3    0    0 -0.60956367564E+01 -0.21648499114E+02  0.14965762436E+01  0.22540054166E+02  0.00000000000E+00 0.  1.
         22    1    3    3    0    0  0.16857098635E+03 -0.66235505861E+02 -0.29378093288E+03  0.34512397222E+03  0.00000000000E+00 0.  1.
</event>
<event>
 7    1  0.6597701E-006  0.1355043E+03  0.7818608E-02  0.1228287E+00
          2   -1    0    0  502    0  0.00000000000E+00  0.00000000000E+00  0.14738378073E+04  0.14738378073E+04  0.00000000000E+00 0. -1.
          1   -1    0    0  501    0 -0.00000000000E+00 -0.00000000000E+00 -0.11856911578E+04  0.11856911578E+04  0.00000000000E+00 0. -1.
         25    2    1    2    0    0  0.92267627943E+02 -0.14090447226E+03 -0.98909874737E+01  0.20997733448E+03  0.12500105557E+03 0.  0.
          2    1    1    2  501    0  0.41567455399E+02  0.11645307512E+03 -0.10688155733E+04  0.10759441908E+04  0.00000000000E+00 0. -1.
          1    1    1    2  502    0 -0.13383508334E+03  0.24451397133E+02  0.13668532103E+04  0.13736074398E+04  0.00000000000E+00 0. -1.
         22    1    3    3    0    0 -0.12258071583E+02 -0.93678063080E+02 -0.12156473076E+02  0.95255549230E+02  0.00000000000E+00 0. -1.
         22    1    3    3    0    0  0.10452569953E+03 -0.47226409176E+02  0.22654856025E+01  0.11472178525E+03  0.00000000000E+00 0. -1.
</event>
<event>
 7    1  0.6597701E-006  0.5658337E+02  0.7818608E-02  0.1456574E+00
          2   -1    0    0  502    0  0.00000000000E+00  0.00000000000E+00  0.13275410665E+03  0.13275410665E+03  0.00000000000E+00 0. -1.
          1   -1    0    0  501    0 -0.00000000000E+00 -0.00000000000E+00 -0.55860814972E+03  0.55860814972E+03  0.00000000000E+00 0. -1.
         25    2    1    2    0    0  0.66163423914E+02 -0.44285619724E+01  0.16282175798E+02  0.14243510099E+03  0.12500175167E+03 0.  0.
          2    1    1    2  501    0 -0.47095755789E+02 -0.31503901867E+02 -0.48589146857E+03  0.48918404029E+03  0.00000000000E+00 0. -1.
          1    1    1    2  502    0 -0.19067668125E+02  0.35932463839E+02  0.43755249696E+02  0.59743115095E+02  0.00000000000E+00 0. -1.
         22    1    3    3    0    0 -0.19379689733E+02  0.36941746509E+02  0.22150203793E+02  0.47232367476E+02  0.00000000000E+00 0.  1.
         22    1    3    3    0    0  0.85543113647E+02 -0.41370308482E+02 -0.58680279951E+01  0.95202733516E+02  0.00000000000E+00 0.  1.
</event>
<event>
 7    1  0.6597701E-006  0.9919516E+02  0.7818608E-02  0.1303991E+00
          2   -1    0    0  502    0  0.00000000000E+00  0.00000000000E+00  0.40297778644E+02  0.40297778644E+02  0.00000000000E+00 0. -1.
          1   -1    0    0  501    0 -0.00000000000E+00 -0.00000000000E+00 -0.95224123300E+03  0.95224123300E+03  0.00000000000E+00 0. -1.
         25    2    1    2    0    0 -0.58580282035E+02 -0.11946467520E+03 -0.34859003429E+03  0.39350136748E+03  0.12499942455E+03 0.  0.
          2    1    1    2  501    0 -0.18269260473E+02  0.94481598591E+02 -0.44785456641E+03  0.45807668682E+03  0.00000000000E+00 0. -1.
          1    1    1    2  502    0  0.76849542508E+02  0.24983076609E+02 -0.11549885366E+03  0.14096095735E+03  0.00000000000E+00 0. -1.
         22    1    3    3    0    0 -0.33214255429E+01 -0.35823520723E+02 -0.59099851422E+01  0.36459353107E+02  0.00000000000E+00 0. -1.
         22    1    3    3    0    0 -0.55258856492E+02 -0.83641154477E+02 -0.34268004915E+03  0.35704201437E+03  0.00000000000E+00 0. -1.
</event>
<event>
 7    1  0.6597701E-006  0.7283231E+02  0.7818608E-02  0.1426262E+00
          2   -1    0    0  502    0  0.00000000000E+00  0.00000000000E+00  0.38076302135E+03  0.38076302135E+03  0.00000000000E+00 0. -1.
          1   -1    0    0  501    0 -0.00000000000E+00 -0.00000000000E+00 -0.52715833615E+03  0.52715833615E+03  0.00000000000E+00 0. -1.
         25    2    1    2    0    0 -0.63766924038E+02 -0.32634580719E+02 -0.94000280118E+02  0.17202286449E+03  0.12499830713E+03 0.  0.
          2    1    1    2  501    0  0.38376890177E+02  0.63049438966E+02 -0.38952093452E+03  0.39645248881E+03  0.00000000000E+00 0. -1.
          1    1    1    2  502    0  0.25390033862E+02 -0.30414858247E+02  0.33712589984E+03  0.33944600420E+03  0.00000000000E+00 0. -1.
         22    1    3    3    0    0 -0.87536874574E+02 -0.56520155111E+02 -0.47292555234E+02  0.11442822259E+03  0.00000000000E+00 0.  1.
         22    1    3    3    0    0  0.23769950536E+02  0.23885574392E+02 -0.46707724884E+02  0.57594641907E+02  0.00000000000E+00 0.  1.
</event>
<event>
 7    1  0.6597701E-006  0.1372364E+03  0.7818608E-02  0.1368404E+00
          2   -1    0    0  502    0  0.00000000000E+00  0.00000000000E+00  0.47553462595E+03  0.47553462595E+03  0.00000000000E+00 0. -1.
          1   -1    0    0  501    0 -0.00000000000E+00 -0.00000000000E+00 -0.59184498439E+03  0.59184498439E+03  0.00000000000E+00 0. -1.
         25    2    1    2    0    0 -0.79341134198E+02  0.89647614672E+02 -0.20173316914E+03  0.26580664607E+03  0.12500076468E+03 0.  0.
          2    1    1    2  501    0  0.12080403198E+02  0.31043570696E+02 -0.34649563475E+03  0.34809318339E+03  0.00000000000E+00 0. -1.
          1    1    1    2  502    0  0.67260731000E+02 -0.12069118537E+03  0.43191844545E+03  0.45347978089E+03  0.00000000000E+00 0. -1.
         22    1    3    3    0    0 -0.79495981319E+02  0.10743437562E+03 -0.11213289270E+03  0.17445785089E+03  0.00000000000E+00 0.  1.
         22    1    3    3    0    0  0.15484712087E+00 -0.17786760951E+02 -0.89600276436E+02  0.91348795176E+02  0.00000000000E+00 0.  1.
</event>
<event>
 7    1  0.6597701E-006  0.7176351E+02  0.7818608E-02  0.1475044E+00
          2   -1    0    0  502    0  0.00000000000E+00  0.00000000000E+00  0.44724338929E+04  0.44724338929E+04  0.00000000000E+00 0. -1.
          1   -1    0    0  501    0 -0.00000000000E+00 -0.00000000000E+00 -0.17334873416E+02  0.17334873416E+02  0.00000000000E+00 0. -1.
         25    2    1    2    0    0  0.17738343991E+01 -0.84310085033E+02  0.24799261502E+04  0.24845058960E+04  0.12499799953E+03 0.  0.
          2    1    1    2  501    0  0.21251370225E+02  0.68242819434E+02  0.70536698463E+02  0.10041976385E+03  0.00000000000E+00 0. -1.
          1    1    1    2  502    0 -0.23025204624E+02  0.16067265599E+02  0.19046361708E+04  0.19048431065E+04  0.00000000000E+00 0. -1.
         22    1    3    3    0    0 -0.45380982079E+01 -0.11246538223E+03  0.22441206978E+04  0.22469416465E+04  0.00000000000E+00 0.  1.
         22    1    3    3    0    0  0.63119326070E+01  0.28155297194E+02  0.23580545239E+03  0.23756424948E+03  0.00000000000E+00 0.  1.
</event>
<event>
 7    1  0.6597701E-006  0.4808386E+02  0.7818608E-02  0.1552041E+00
          2   -1    0    0  502    0  0.00000000000E+00  0.00000000000E+00  0.68855919662E+03  0.68855919662E+03  0.00000000000E+00 0. -1.
          1   -1    0    0  501    0 -0.00000000000E+00 -0.00000000000E+00 -0.10438306890E+04  0.10438306890E+04  0.00000000000E+00 0. -1.
         25    2    1    2    0    0 -0.62549226887E+01  0.56036996171E+02 -0.34403045757E+03  0.37035401931E+03  0.12500349949E+03 0.  0.
          2    1    1    2  501    0 -0.16135057710E+02 -0.45096937268E+02 -0.68557276715E+03  0.68724383802E+03  0.00000000000E+00 0. -1.
          1    1    1    2  502    0  0.22389980399E+02 -0.10940058903E+02  0.67433173238E+03  0.67479202826E+03  0.00000000000E+00 0. -1.
         22    1    3    3    0    0 -0.16454375558E+02  0.91573145822E+02 -0.18494478120E+03  0.20702888591E+03  0.00000000000E+00 0. -1.
         22    1    3    3    0    0  0.10199452869E+02 -0.35536149651E+02 -0.15908567638E+03  0.16332513340E+03  0.00000000000E+00 0. -1.
</event>
<event>
 7    1  0.6597701E-006  0.5813138E+02  0.7818608E-02  0.1497670E+00
          2   -1    0    0  502    0  0.00000000000E+00  0.00000000000E+00  0.14729689269E+04  0.14729689269E+04  0.00000000000E+00 0. -1.
          1   -1    0    0  501    0 -0.00000000000E+00 -0.00000000000E+00 -0.23955673981E+02  0.23955673981E+02  0.00000000000E+00 0. -1.
         25    2    1    2    0    0  0.13744655317E+02  0.31788952157E+02  0.43863858178E+03  0.45741396806E+03  0.12499711885E+03 0.  0.
          2    1    1    2  501    0 -0.79537674183E+01  0.28493520688E+02  0.23582364283E+01  0.29676664509E+02  0.00000000000E+00 0. -1.
          1    1    1    2  502    0 -0.57908878986E+01 -0.60282472844E+02  0.10080164347E+04  0.10098339683E+04  0.00000000000E+00 0. -1.
         22    1    3    3    0    0  0.28404814855E+02 -0.85460984929E+00  0.14749950954E+02  0.32017572021E+02  0.00000000000E+00 0.  1.
         22    1    3    3    0    0 -0.14660159538E+02  0.32643562006E+02  0.42388863083E+03  0.42539639604E+03  0.00000000000E+00 0.  1.
</event>
<event>
 7    1  0.6597701E-006  0.5606480E+02  0.7818608E-02  0.1441662E+00
          2   -1    0    0  502    0  0.00000000000E+00  0.00000000000E+00  0.41274451434E+03  0.41274451434E+03  0.00000000000E+00 0. -1.
          1   -1    0    0  501    0 -0.00000000000E+00 -0.00000000000E+00 -0.40289083621E+02  0.40289083621E+02  0.00000000000E+00 0. -1.
         25    2    1    2    0    0  0.49360680459E+02 -0.58839735511E+02  0.27019040772E+03  0.30745597933E+03  0.12501092572E+03 0.  0.
          2    1    1    2  501    0 -0.45169771847E+02  0.77391315246E+01  0.23258180977E+02  0.51392075535E+02  0.00000000000E+00 0. -1.
          1    1    1    2  502    0 -0.41909086126E+01  0.51100603987E+02  0.79006842017E+02  0.94185543096E+02  0.00000000000E+00 0. -1.
         22    1    3    3    0    0 -0.31132476570E+02 -0.52393569409E+02  0.15699597337E+03  0.16841037043E+03  0.00000000000E+00 0. -1.
         22    1    3    3    0    0  0.80493157029E+02 -0.64461661022E+01  0.11319443435E+03  0.13904560889E+03  0.00000000000E+00 0. -1.
</event>
<event>
 7    1  0.6597701E-006  0.4895602E+02  0.7818608E-02  0.1460297E+00
          2   -1    0    0  502    0  0.00000000000E+00  0.00000000000E+00  0.25551966709E+03  0.25551966709E+03  0.00000000000E+00 0. -1.
          1   -1    0    0  501    0 -0.00000000000E+00 -0.00000000000E+00 -0.19623612990E+03  0.19623612990E+03  0.00000000000E+00 0. -1.
         25    2    1    2    0    0  0.57892413933E+02  0.26543163279E+02 -0.17637823115E+02  0.14139625182E+03  0.12500294443E+03 0.  0.
          2    1    1    2  501    0 -0.41313237320E+02  0.19673795309E+02 -0.10891986064E+03  0.11814134687E+03  0.00000000000E+00 0. -1.
          1    1    1    2  502    0 -0.16579176613E+02 -0.46216958589E+02  0.18584122094E+03  0.19221819830E+03  0.00000000000E+00 0. -1.
         22    1    3    3    0    0  0.54915080777E+02  0.10446379040E+02 -0.68239633868E+02  0.88212473961E+02  0.00000000000E+00 0.  1.
         22    1    3    3    0    0  0.29773331560E+01  0.16096784239E+02  0.50601810753E+02  0.53183777856E+02  0.00000000000E+00 0.  1.
</event>
<event>
 7    1  0.6597701E-006  0.8999711E+02  0.7818608E-02  0.1313346E+00
          2   -1    0    0  502    0  0.00000000000E+00  0.00000000000E+00  0.20477027847E+04  0.20477027847E+04  0.00000000000E+00 0. -1.
          1   -1    0    0  501    0 -0.00000000000E+00 -0.00000000000E+00 -0.84324636302E+02  0.84324636302E+02  0.00000000000E+00 0. -1.
         25    2    1    2    0    0  0.26671397086E+02  0.11064013007E+02  0.24075590915E+03  0.27280380198E+03  0.12499892310E+03 0.  0.
          2    1    1    2  501    0 -0.92876255301E+02  0.36986462497E+02 -0.30247769802E+02  0.10444579831E+03  0.00000000000E+00 0. -1.
          1    1    1    2  502    0  0.66204858215E+02 -0.48050475504E+02  0.17528700090E+04  0.17547778207E+04  0.00000000000E+00 0. -1.
         22    1    3    3    0    0  0.64427801634E+02  0.41851342802E+02  0.11880355561E+03  0.14148060412E+03  0.00000000000E+00 0. -1.
         22    1    3    3    0    0 -0.37756404547E+02 -0.30787329795E+02  0.12195235354E+03  0.13132319786E+03  0.00000000000E+00 0. -1.
</event>
<event>
 7    1  0.6597701E-006  0.2114973E+03  0.7818608E-02  0.1190374E+00
          2   -1    0    0  502    0  0.00000000000E+00  0.00000000000E+00  0.91735210135E+03  0.91735210135E+03  0.00000000000E+00 0. -1.
          1   -1    0    0  501    0 -0.00000000000E+00 -0.00000000000E+00 -0.25243507633E+04  0.25243507633E+04  0.00000000000E+00 0. -1.
         25    2    1    2    0    0 -0.11466990326E+03 -0.28565104226E+03  0.12101833734E+03  0.35357750571E+03  0.12500363961E+03 0.  0.
          2    1    1    2  501    0  0.45805531693E+01  0.11872910939E+03 -0.23918662509E+04  0.23948155973E+04  0.00000000000E+00 0. -1.
          1    1    1    2  502    0  0.11008935009E+03  0.16692193287E+03  0.66384925162E+03  0.69330976162E+03  0.00000000000E+00 0. -1.
         22    1    3    3    0    0 -0.12912533147E+03 -0.23704497332E+03  0.64280488041E+02  0.27748090339E+03  0.00000000000E+00 0. -1.
         22    1    3    3    0    0  0.14455428208E+02 -0.48606068938E+02  0.56737849294E+02  0.76096602321E+02  0.00000000000E+00 0. -1.
</event>
<event>
 7    1  0.6597701E-006  0.7418612E+02  0.7818608E-02  0.1363302E+00
          2   -1    0    0  502    0  0.00000000000E+00  0.00000000000E+00  0.96902570024E+03  0.96902570024E+03  0.00000000000E+00 0. -1.
          1   -1    0    0  501    0 -0.00000000000E+00 -0.00000000000E+00 -0.22563144410E+03  0.22563144410E+03  0.00000000000E+00 0. -1.
         25    2    1    2    0    0  0.50920029231E+02 -0.65925216658E+02  0.54735983669E+02  0.15987609723E+03  0.12500141994E+03 0.  0.
          2    1    1    2  501    0  0.12825860002E+02  0.74326202913E+02 -0.16357444699E+03  0.18012630800E+03  0.00000000000E+00 0. -1.
          1    1    1    2  502    0 -0.63745889232E+02 -0.84009862543E+01  0.85223271946E+03  0.85465473911E+03  0.00000000000E+00 0. -1.
         22    1    3    3    0    0  0.79845063725E+02 -0.27123149438E+02 -0.31982820758E+01  0.84386778852E+02  0.00000000000E+00 0.  1.
         22    1    3    3    0    0 -0.28925034494E+02 -0.38802067220E+02  0.57934265745E+02  0.75489318374E+02  0.00000000000E+00 0.  1.
</event>
<event>
 7    1  0.6597701E-006  0.1114976E+03  0.7818608E-02  0.1376531E+00
          2   -1    0    0  502    0  0.00000000000E+00  0.00000000000E+00  0.96128794878E+03  0.96128794878E+03  0.00000000000E+00 0. -1.
          1   -1    0    0  501    0 -0.00000000000E+00 -0.00000000000E+00 -0.12423277567E+04  0.12423277567E+04  0.00000000000E+00 0. -1.
         25    2    1    2    0    0  0.99804672842E+01 -0.13860405980E+03  0.16403457922E+03  0.24868168375E+03  0.12499816613E+03 0.  0.
          2    1    1    2  501    0  0.18930174400E+02  0.33343814946E+02 -0.11957493928E+04  0.11963639797E+04  0.00000000000E+00 0. -1.
          1    1    1    2  502    0 -0.28910641684E+02  0.10526024485E+03  0.75067500573E+03  0.75857004197E+03  0.00000000000E+00 0. -1.
         22    1    3    3    0    0 -0.77801740180E+01 -0.36210572654E+02 -0.16363748445E+02  0.40490850113E+02  0.00000000000E+00 0. -1.
         22    1    3    3    0    0  0.17760641302E+02 -0.10239348714E+03  0.18039832766E+03  0.20819083364E+03  0.00000000000E+00 0. -1.
</event>
<event>
 7    1  0.6597701E-006  0.1273221E+03  0.7818608E-02  0.1395917E+00
          2   -1    0    0  502    0  0.00000000000E+00  0.00000000000E+00  0.25076837281E+02  0.25076837281E+02  0.00000000000E+00 0. -1.
          1   -1    0    0  501    0 -0.00000000000E+00 -0.00000000000E+00 -0.13356268519E+04  0.13356268519E+04  0.00000000000E+00 0. -1.
         25    2    1    2    0    0 -0.12468137527E+03  0.28378731908E+02 -0.93653204252E+03  0.95345080469E+03  0.12500149010E+03 0.  0.
          2    1    1    2  501    0  0.11572892145E+03 -0.55655748780E+02 -0.26436508252E+03  0.29390413827E+03  0.00000000000E+00 0. -1.
          1    1    1    2  502    0  0.89524538145E+01  0.27277016871E+02 -0.10965288957E+03  0.11334874622E+03  0.00000000000E+00 0. -1.
         22    1    3    3    0    0 -0.38753467819E+02 -0.15653362206E+02 -0.69794054982E+02  0.81351515826E+02  0.00000000000E+00 0. -1.
         22    1    3    3    0    0 -0.85927907450E+02  0.44032094115E+02 -0.86673798754E+03  0.87209928886E+03  0.00000000000E+00 0. -1.
</event>
<event>
 7    1  0.6597701E-006  0.5265197E+02  0.7818608E-02  0.1488098E+00
          2   -1    0    0  502    0  0.00000000000E+00  0.00000000000E+00  0.18015372747E+03  0.18015372747E+03  0.00000000000E+00 0. -1.
          1   -1    0    0  501    0 -0.00000000000E+00 -0.00000000000E+00 -0.26038020377E+03  0.26038020377E+03  0.00000000000E+00 0. -1.
         25    2    1    2    0    0  0.18665292545E+02 -0.56404133046E+02  0.27051831526E+02  0.14101903921E+03  0.12499899384E+03 0.  0.
          2    1    1    2  501    0  0.24199737280E+02  0.25153496696E+02 -0.19440282998E+03  0.19751148318E+03  0.00000000000E+00 0. -1.
          1    1    1    2  502    0 -0.42865029825E+02  0.31250636350E+02  0.87124522158E+02  0.10200340884E+03  0.00000000000E+00 0. -1.
         22    1    3    3    0    0  0.17500881335E+02 -0.92201692960E+02 -0.35421718170E+01  0.93914748646E+02  0.00000000000E+00 0. -1.
         22    1    3    3    0    0  0.11644112101E+01  0.35797559913E+02  0.30594003343E+02  0.47104290566E+02  0.00000000000E+00 0. -1.
</event>
<event>
 7    1  0.6597701E-006  0.4153814E+02  0.7818608E-02  0.1499090E+00
          2   -1    0    0  502    0  0.00000000000E+00  0.00000000000E+00  0.18252873245E+04  0.18252873245E+04  0.00000000000E+00 0. -1.
          1   -1    0    0  501    0 -0.00000000000E+00 -0.00000000000E+00 -0.88145949211E+01  0.88145949211E+01  0.00000000000E+00 0. -1.
         25    2    1    2    0    0  0.17317321020E+02 -0.92545313429E+01  0.12886891428E+04  0.12948859220E+04  0.12499723320E+03 0.  0.
          2    1    1    2  501    0  0.38761004696E+02  0.13356048787E+02  0.10517157235E+03  0.11287984388E+03  0.00000000000E+00 0. -1.
          1    1    1    2  502    0 -0.56078325716E+02 -0.41015174436E+01  0.42261201444E+03  0.42633615354E+03  0.00000000000E+00 0. -1.
         22    1    3    3    0    0 -0.23964391281E+02  0.47983319999E+02  0.68207659414E+03  0.68418211853E+03  0.00000000000E+00 0.  1.
         22    1    3    3    0    0  0.41281712302E+02 -0.57237851342E+02  0.60661254864E+03  0.61070380346E+03  0.00000000000E+00 0.  1.
</event>
<event>
 7    1  0.6597701E-006  0.7758899E+02  0.7818608E-02  0.1489540E+00
          2   -1    0    0  502    0  0.00000000000E+00  0.00000000000E+00  0.12542861887E+04  0.12542861887E+04  0.00000000000E+00 0. -1.
          1   -1    0    0  501    0 -0.00000000000E+00 -0.00000000000E+00 -0.24743033010E+03  0.24743033010E+03  0.00000000000E+00 0. -1.
         25    2    1    2    0    0  0.37192399352E+02 -0.83809642490E+02  0.43778545910E+03  0.46442265252E+03  0.12499984494E+03 0.  0.
          2    1    1    2  501    0  0.72890244590E+01  0.22287513238E+02 -0.23172471330E+03  0.23290814901E+03  0.00000000000E+00 0. -1.
          1    1    1    2  502    0 -0.44481423811E+02  0.61522129252E+02  0.80079511281E+03  0.80438571727E+03  0.00000000000E+00 0. -1.
         22    1    3    3    0    0  0.43077937477E+02 -0.30515844873E+02  0.38695761240E+03  0.39054208387E+03  0.00000000000E+00 0.  1.
         22    1    3    3    0    0 -0.58855381247E+01 -0.53293797617E+02  0.50827846703E+02  0.73880568649E+02  0.00000000000E+00 0.  1.
</event>
<event>
 7    1  0.6597701E-006  0.7499134E+02  0.7818608E-02  0.1452523E+00
          2   -1    0    0  502    0  0.00000000000E+00  0.00000000000E+00  0.43067854529E+03  0.43067854529E+03  0.00000000000E+00 0. -1.
          1   -1    0    0  501    0 -0.00000000000E+00 -0.00000000000E+00 -0.85767633549E+03  0.85767633549E+03  0.00000000000E+00 0. -1.
         25    2    1    2    0    0 -0.47216344992E+02 -0.13198137041E+02 -0.37844907047E+03  0.40156215550E+03  0.12499956692E+03 0.  0.
          2    1    1    2  501    0 -0.16333909737E+02 -0.27070571257E+02 -0.46375190659E+03  0.46482840200E+03  0.00000000000E+00 0. -1.
          1    1    1    2  502    0  0.63550254729E+02  0.40268708298E+02  0.41520318686E+03  0.42196432328E+03  0.00000000000E+00 0. -1.
         22    1    3    3    0    0 -0.81416449821E+02 -0.17825175559E+02 -0.16002398024E+03  0.18042740767E+03  0.00000000000E+00 0. -1.
         22    1    3    3    0    0  0.34200104828E+02  0.46270385175E+01 -0.21842509023E+03  0.22113474783E+03  0.00000000000E+00 0. -1.
</event>
<event>
 7    1  0.6597701E-006  0.4312665E+02  0.7818608E-02  0.1540514E+00
          2   -1    0    0  502    0  0.00000000000E+00  0.00000000000E+00  0.57634233026E+02  0.57634233026E+02  0.00000000000E+00 0. -1.
          1   -1    0    0  501    0 -0.00000000000E+00 -0.00000000000E+00 -0.11231209943E+04  0.11231209943E+04  0.00000000000E+00 0. -1.
         25    2    1    2    0    0  0.44027639765E+02 -0.22548950790E+02 -0.55562119790E+03  0.57164114002E+03  0.12494714549E+03 0.  0.
          2    1    1    2  501    0 -0.19027903054E+02  0.39006086708E+02 -0.55404967757E+03  0.55574686784E+03  0.00000000000E+00 0. -1.
          1    1    1    2  502    0 -0.24999736711E+02 -0.16457135918E+02  0.44184114237E+02  0.53367219425E+02  0.00000000000E+00 0. -1.
         22    1    3    3    0    0  0.62954201556E+02 -0.47826075586E+02 -0.51039380114E+03  0.51648078109E+03  0.00000000000E+00 0. -1.
         22    1    3    3    0    0 -0.18926561792E+02  0.25277124796E+02 -0.45227396757E+02  0.55160358924E+02  0.00000000000E+00 0. -1.
</event>
<event>
 7    1  0.6597701E-006  0.9208249E+02  0.7818608E-02  0.1470298E+00
          2   -1    0    0  502    0  0.00000000000E+00  0.00000000000E+00  0.62890211046E+03  0.62890211046E+03  0.00000000000E+00 0. -1.
          1   -1    0    0  501    0 -0.00000000000E+00 -0.00000000000E+00 -0.41569646510E+02  0.41569646510E+02  0.00000000000E+00 0. -1.
         25    2    1    2    0    0 -0.10668848950E+03 -0.16472645977E+02  0.31974101064E+03  0.35987866863E+03  0.12499824158E+03 0.  0.
          2    1    1    2  501    0  0.22279444237E+02 -0.39975632060E+01 -0.61062691612E+01  0.23444416609E+02  0.00000000000E+00 0. -1.
          1    1    1    2  502    0  0.84409045264E+02  0.20470209183E+02  0.27369772248E+03  0.28714867173E+03  0.00000000000E+00 0. -1.
         22    1    3    3    0    0  0.15917394205E+02 -0.15777326426E+02  0.14316993218E+03  0.14491348090E+03  0.00000000000E+00 0. -1.
         22    1    3    3    0    0 -0.12260588371E+03 -0.69531955043E+00  0.17657107846E+03  0.21496518773E+03  0.00000000000E+00 0. -1.
</event>
<event>
 7    1  0.6597701E-006  0.1271956E+03  0.7818608E-02  0.1315802E+00
          2   -1    0    0  502    0  0.00000000000E+00  0.00000000000E+00  0.21783682787E+04  0.21783682787E+04  0.00000000000E+00 0. -1.
          1   -1    0    0  501    0 -0.00000000000E+00 -0.00000000000E+00 -0.16206937887E+03  0.16206937887E+03  0.00000000000E+00 0. -1.
         25    2    1    2    0    0  0.70288219488E+02 -0.12244993995E+03  0.50625461983E+03  0.54023415372E+03  0.12499911659E+03 0.  0.
          2    1    1    2  501    0 -0.13804822168E+02  0.12629384010E+03 -0.11667892279E+03  0.17249544396E+03  0.00000000000E+00 0. -1.
          1    1    1    2  502    0 -0.56483397320E+02 -0.38439001464E+01  0.16267232028E+04  0.16277080599E+04  0.00000000000E+00 0. -1.
         22    1    3    3    0    0  0.22641265937E+02 -0.11228458460E+03  0.20296410124E+03  0.23305553255E+03  0.00000000000E+00 0. -1.
         22    1    3    3    0    0  0.47646953551E+02 -0.10165355355E+02  0.30329051860E+03  0.30717862117E+03  0.00000000000E+00 0. -1.
</event>
<event>
 7    1  0.6597701E-006  0.2634391E+03  0.7818608E-02  0.1286694E+00
          2   -1    0    0  502    0  0.00000000000E+00  0.00000000000E+00  0.61559922178E+03  0.61559922178E+03  0.00000000000E+00 0. -1.
          1   -1    0    0  501    0 -0.00000000000E+00 -0.00000000000E+00 -0.14230033496E+04  0.14230033496E+04  0.00000000000E+00 0. -1.
         25    2    1    2    0    0  0.23558752502E+03  0.17304486642E+03 -0.10734445375E+04  0.11195329594E+04  0.12499945770E+03 0.  0.
          2    1    1    2  501    0 -0.35628474846E+02 -0.26840544895E+01 -0.29627452146E+03  0.29842115279E+03  0.00000000000E+00 0. -1.
          1    1    1    2  502    0 -0.19995905017E+03 -0.17036081193E+03  0.56231493118E+03  0.62064845912E+03  0.00000000000E+00 0. -1.
         22    1    3    3    0    0  0.31637848096E+02 -0.18752892269E+02 -0.15858394101E+03  0.16279278469E+03  0.00000000000E+00 0.  1.
         22    1    3    3    0    0  0.20394967692E+03  0.19179775869E+03 -0.91486059649E+03  0.95674017474E+03  0.00000000000E+00 0.  1.
</event>
<event>
 7    1  0.6597701E-006  0.7067660E+02  0.7818608E-02  0.1403464E+00
          2   -1    0    0  502    0  0.00000000000E+00  0.00000000000E+00  0.11975218748E+04  0.11975218748E+04  0.00000000000E+00 0. -1.
          1   -1    0    0  501    0 -0.00000000000E+00 -0.00000000000E+00 -0.16748976018E+03  0.16748976018E+03  0.00000000000E+00 0. -1.
         25    2    1    2    0    0  0.42142999718E+02 -0.87271631089E+01  0.37620918644E+03  0.39876122571E+03  0.12499986948E+03 0.  0.
          2    1    1    2  501    0 -0.61874417065E+02 -0.35814726621E+02 -0.14725511259E+03  0.16369241374E+03  0.00000000000E+00 0. -1.
          1    1    1    2  502    0  0.19731417347E+02  0.44541889730E+02  0.80107804082E+03  0.80255799557E+03  0.00000000000E+00 0. -1.
         22    1    3    3    0    0  0.77617549966E+02  0.13448503596E+01  0.14353338354E+03  0.16318126386E+03  0.00000000000E+00 0.  1.
         22    1    3    3    0    0 -0.35474550248E+02 -0.10072013469E+02  0.23267580290E+03  0.23557996185E+03  0.00000000000E+00 0.  1.
</event>
<event>
 7    1  0.6597701E-006  0.1875888E+03  0.7818608E-02  0.1331471E+00
          2   -1    0    0  502    0  0.00000000000E+00  0.00000000000E+00  0.24962073323E+04  0.24962073323E+04  0.00000000000E+00 0. -1.
          1   -1    0    0  501    0 -0.00000000000E+00 -0.00000000000E+00 -0.19463707920E+03  0.19463707920E+03  0.00000000000E+00 0. -1.
         25    2    1    2    0    0 -0.20436857113E+03 -0.75218086120E+02  0.99304239978E+03  0.10242948632E+04  0.12498994254E+03 0.  0.
          2    1    1    2  501    0  0.17101184271E+03  0.73538948321E+02 -0.13036946776E+03  0.22726465936E+03  0.00000000000E+00 0. -1.
          1    1    1    2  502    0  0.33356728419E+02  0.16791377994E+01  0.14388973211E+04  0.14392848890E+04  0.00000000000E+00 0. -1.
         22    1    3    3    0    0 -0.59335133495E+01  0.13944751979E+02  0.23947888468E+03  0.23995791067E+03  0.00000000000E+00 0. -1.
         22    1    3    3    0    0 -0.19843505778E+03 -0.89162838099E+02  0.75356351510E+03  0.78433695255E+03  0.00000000000E+00 0. -1.
</event>
<event>
 7    1  0.6597701E-006  0.6888640E+02  0.7818608E-02  0.1507159E+00
          2   -1    0    0  502    0  0.00000000000E+00  0.00000000000E+00  0.14101463540E+03  0.14101463540E+03  0.00000000000E+00 0. -1.
          1   -1    0    0  501    0 -0.00000000000E+00 -0.00000000000E+00 -0.95563418121E+03  0.95563418121E+03  0.00000000000E+00 0. -1.
         25    2    1    2    0    0 -0.20883121537E+01  0.46043639960E+02 -0.29439435293E+02  0.13644281710E+03  0.12500233661E+03 0.  0.
          2    1    1    2  501    0  0.24083452551E+01 -0.69434951021E+02 -0.86971923866E+03  0.87248986621E+03  0.00000000000E+00 0. -1.
          1    1    1    2  502    0 -0.32003310137E+00  0.23391311060E+02  0.84539128139E+02  0.87716133299E+02  0.00000000000E+00 0. -1.
         22    1    3    3    0    0 -0.16071416420E+02  0.75865818067E+02  0.17114147107E+02  0.79415406616E+02  0.00000000000E+00 0.  1.
         22    1    3    3    0    0  0.13983104266E+02 -0.29822178107E+02 -0.46553582399E+02  0.57027410481E+02  0.00000000000E+00 0.  1.
</event>
<event>
 7    1  0.6597701E-006  0.9684775E+02  0.7818608E-02  0.1370928E+00
          2   -1    0    0  502    0  0.00000000000E+00  0.00000000000E+00  0.62388034855E+03  0.62388034855E+03  0.00000000000E+00 0. -1.
          1   -1    0    0  501    0 -0.00000000000E+00 -0.00000000000E+00 -0.12058541765E+04  0.12058541765E+04  0.00000000000E+00 0. -1.
         25    2    1    2    0    0  0.37345805494E+02  0.72746455018E+02 -0.32954434434E+03  0.36181649375E+03  0.12499977742E+03 0.  0.
          2    1    1    2  501    0 -0.81638818608E+02 -0.59517203040E+02 -0.85632076058E+03  0.86226007629E+03  0.00000000000E+00 0. -1.
          1    1    1    2  502    0  0.44293013115E+02 -0.13229251978E+02  0.60389127695E+03  0.60565795503E+03  0.00000000000E+00 0. -1.
         22    1    3    3    0    0  0.19945019970E+02  0.10562698187E+03 -0.27951378377E+03  0.29947089748E+03  0.00000000000E+00 0.  1.
         22    1    3    3    0    0  0.17400785523E+02 -0.32880526853E+02 -0.50030560569E+02  0.62345596266E+02  0.00000000000E+00 0.  1.
</event>
<event>
 7    1  0.6597701E-006  0.1410572E+03  0.7818608E-02  0.1267804E+00
          2   -1    0    0  502    0  0.00000000000E+00  0.00000000000E+00  0.18244844778E+04  0.18244844778E+04  0.00000000000E+00 0. -1.
          1   -1    0    0  501    0 -0.00000000000E+00 -0.00000000000E+00 -0.29873537496E+04  0.29873537496E+04  0.00000000000E+00 0. -1.
         25    2    1    2    0    0  0.64970173537E+02  0.70656473949E+02 -0.20957562863E+03  0.26222302095E+03  0.12500203135E+03 0.  0.
          2    1    1    2  501    0  0.72108655417E+02 -0.34490790416E+02 -0.27480780730E+04  0.27492403256E+04  0.00000000000E+00 0. -1.
          1    1    1    2  502    0 -0.13707882895E+03 -0.36165683533E+02  0.17947844298E+04  0.18003748809E+04  0.00000000000E+00 0. -1.
         22    1    3    3    0    0  0.73202360111E+02  0.99517739237E+02 -0.14160388493E+03  0.18792026547E+03  0.00000000000E+00 0.  1.
         22    1    3    3    0    0 -0.82321865737E+01 -0.28861265288E+02 -0.67971743702E+02  0.74302755479E+02  0.00000000000E+00 0.  1.
</event>
<event>
 7    1  0.6597701E-006  0.1502157E+03  0.7818608E-02  0.1268343E+00
          2   -1    0    0  502    0  0.00000000000E+00  0.00000000000E+00  0.23558096577E+04  0.23558096577E+04  0.00000000000E+00 0. -1.
          1   -1    0    0  501    0 -0.00000000000E+00 -0.00000000000E+00 -0.26419274864E+03  0.26419274864E+03  0.00000000000E+00 0. -1.
         25    2    1    2    0    0  0.12178259986E+03 -0.42110952284E+02  0.10486965914E+04  0.10639521942E+04  0.12500158670E+03 0.  0.
          2    1    1    2  501    0 -0.14846838106E+03 -0.27625593571E+02 -0.23315619645E+03  0.27779101055E+03  0.00000000000E+00 0. -1.
          1    1    1    2  502    0  0.26685781195E+02  0.69736545856E+02  0.12760765141E+04  0.12782592016E+04  0.00000000000E+00 0. -1.
         22    1    3    3    0    0  0.72691184255E+02 -0.81341714231E+02  0.80164832905E+03  0.80903678916E+03  0.00000000000E+00 0.  1.
         22    1    3    3    0    0  0.49091415609E+02  0.39230761946E+02  0.24704826239E+03  0.25491540503E+03  0.00000000000E+00 0.  1.
</event>
<event>
 7    1  0.6597701E-006  0.1150744E+03  0.7818608E-02  0.1258177E+00
          2   -1    0    0  502    0  0.00000000000E+00  0.00000000000E+00  0.15216994089E+04  0.15216994089E+04  0.00000000000E+00 0. -1.
          1   -1    0    0  501    0 -0.00000000000E+00 -0.00000000000E+00 -0.15282935540E+03  0.15282935540E+03  0.00000000000E+00 0. -1.
         25    2    1    2    0    0  0.17165094704E+03  0.10206373717E+03  0.41754258726E+03  0.47942440734E+03  0.12499958447E+03 0.  0.
          2    1    1    2  501    0 -0.10658291642E+03 -0.15149563984E+02 -0.94747390257E+02  0.14341023437E+03  0.00000000000E+00 0. -1.
          1    1    1    2  502    0 -0.65068030624E+02 -0.86914173181E+02  0.10460748565E+04  0.10516941226E+04  0.00000000000E+00 0. -1.
         22    1    3    3    0    0 -0.16512566190E+01  0.13425363273E+02  0.13871296537E+03  0.13937092161E+03  0.00000000000E+00 0. -1.
         22    1    3    3    0    0  0.17330220366E+03  0.88638373892E+02  0.27882962189E+03  0.34005348574E+03  0.00000000000E+00 0. -1.
</event>
<event>
 7    1  0.6597701E-006  0.2108587E+03  0.7818608E-02  0.1272930E+00
          2   -1    0    0  502    0  0.00000000000E+00  0.00000000000E+00  0.37905831177E+03  0.37905831177E+03  0.00000000000E+00 0. -1.
          1   -1    0    0  501    0 -0.00000000000E+00 -0.00000000000E+00 -0.13788561894E+04  0.13788561894E+04  0.00000000000E+00 0. -1.
         25    2    1    2    0    0  0.15390814544E+03  0.18731296360E+03 -0.52232164039E+03  0.58925273093E+03  0.12500008528E+03 0.  0.
          2    1    1    2  501    0 -0.50606468433E+02 -0.53445355483E+01 -0.79050279534E+03  0.79213903334E+03  0.00000000000E+00 0. -1.
          1    1    1    2  502    0 -0.10330167701E+03 -0.18196842805E+03  0.31302655814E+03  0.37652273687E+03  0.00000000000E+00 0. -1.
         22    1    3    3    0    0  0.22392818231E+02  0.12453103661E+03 -0.22500033870E+03  0.25813672696E+03  0.00000000000E+00 0.  1.
         22    1    3    3    0    0  0.13151532721E+03  0.62781926987E+02 -0.29732130169E+03  0.33111600397E+03  0.00000000000E+00 0.  1.
</event>
<event>
 7    1  0.6597701E-006  0.9288820E+02  0.7818608E-02  0.1447652E+00
          2   -1    0    0  502    0  0.00000000000E+00  0.00000000000E+00  0.23061301707E+03  0.23061301707E+03  0.00000000000E+00 0. -1.
          1   -1    0    0  501    0 -0.00000000000E+00 -0.00000000000E+00 -0.65232168368E+03  0.65232168368E+03  0.00000000000E+00 0. -1.
         25    2    1    2    0    0  0.50635397497E+02 -0.10340662981E+03  0.20650585590E+02  0.17120141961E+03  0.12500641913E+03 0.  0.
          2    1    1    2  501    0 -0.29788057897E+02  0.87115706867E+02 -0.57202956454E+03  0.57939131636E+03  0.00000000000E+00 0. -1.
          1    1    1    2  502    0 -0.20847339601E+02  0.16290922944E+02  0.12967031233E+03  0.13234196477E+03  0.00000000000E+00 0. -1.
         22    1    3    3    0    0 -0.17484862940E+02  0.17024515295E+02 -0.14575971322E+02  0.28425578148E+02  0.00000000000E+00 0. -1.
         22    1    3    3    0    0  0.68120260438E+02 -0.12043114511E+03  0.35226556912E+02  0.14277584146E+03  0.00000000000E+00 0. -1.
</event>
<event>
 7    1  0.6597701E-006  0.1104854E+03  0.7818608E-02  0.1357815E+00
          2   -1    0    0  502    0  0.00000000000E+00  0.00000000000E+00  0.26378135118E+04  0.26378135118E+04  0.00000000000E+00 0. -1.
          1   -1    0    0  501    0 -0.00000000000E+00 -0.00000000000E+00 -0.92244830838E+03  0.92244830838E+03  0.00000000000E+00 0. -1.
         25    2    1    2    0    0  0.22555537352E+02  0.71639135087E+02  0.37592658971E+03  0.40322010857E+03  0.12499894863E+03 0.  0.
          2    1    1    2  501    0 -0.60162967029E-02 -0.11082214206E+03 -0.90519459422E+03  0.91195328861E+03  0.00000000000E+00 0. -1.
          1    1    1    2  502    0 -0.22549521055E+02  0.39183006973E+02  0.22446332079E+04  0.22450884230E+04  0.00000000000E+00 0. -1.
         22    1    3    3    0    0  0.58047303944E+02  0.53569343931E+02  0.34168780098E+03  0.35069889855E+03  0.00000000000E+00 0. -1.
         22    1    3    3    0    0 -0.35491766592E+02  0.18069791156E+02  0.34238788738E+02  0.52521210024E+02  0.00000000000E+00 0. -1.
</event>
<event>
 7    1  0.6597701E-006  0.1043643E+03  0.7818608E-02  0.1346861E+00
          2   -1    0    0  502    0  0.00000000000E+00  0.00000000000E+00  0.32777746306E+02  0.32777746306E+02  0.00000000000E+00 0. -1.
          1   -1    0    0  501    0 -0.00000000000E+00 -0.00000000000E+00 -0.11056146419E+04  0.11056146419E+04  0.00000000000E+00 0. -1.
         25    2    1    2    0    0 -0.11301487117E+03 -0.46172185237E+02 -0.39595936873E+03  0.43279593460E+03  0.12499707008E+03 0.  0.
          2    1    1    2  501    0  0.10227893816E+03 -0.52500499566E+01 -0.61907866868E+03  0.62749258341E+03  0.00000000000E+00 0. -1.
          1    1    1    2  502    0  0.10735933011E+02  0.51422235194E+02 -0.57798858137E+02  0.78103870146E+02  0.00000000000E+00 0. -1.
         22    1    3    3    0    0 -0.41797403617E+02 -0.24551759538E+02 -0.25187977108E+02  0.54628253096E+02  0.00000000000E+00 0. -1.
         22    1    3    3    0    0 -0.71217467558E+02 -0.21620425699E+02 -0.37077139162E+03  0.37816768151E+03  0.00000000000E+00 0. -1.
</event>
<event>
 7    1  0.6597701E-006  0.1265135E+03  0.7818608E-02  0.1383987E+00
          2   -1    0    0  502    0  0.00000000000E+00  0.00000000000E+00  0.48164868109E+03  0.48164868109E+03  0.00000000000E+00 0. -1.
          1   -1    0    0  501    0 -0.00000000000E+00 -0.00000000000E+00 -0.11119040151E+04  0.11119040151E+04  0.00000000000E+00 0. -1.
         25    2    1    2    0    0  0.10014906692E+03 -0.75932997884E+02  0.60681570710E+01  0.17736620112E+03  0.12500516388E+03 0.  0.
          2    1    1    2  501    0 -0.11689614990E+03  0.48901056934E+02 -0.10216862951E+04  0.10295139187E+04  0.00000000000E+00 0. -1.
          1    1    1    2  502    0  0.16747082980E+02  0.27031940950E+02  0.38536280399E+03  0.38667257638E+03  0.00000000000E+00 0. -1.
         22    1    3    3    0    0  0.14987417698E+02  0.22440807030E+02 -0.31939925934E+02  0.41813531040E+02  0.00000000000E+00 0. -1.
         22    1    3    3    0    0  0.85161649225E+02 -0.98373804914E+02  0.38008083005E+02  0.13555267008E+03  0.00000000000E+00 0. -1.
</event>
<event>
 7    1  0.6597701E-006  0.6191897E+02  0.7818608E-02  0.1421587E+00
          2   -1    0    0  502    0  0.00000000000E+00  0.00000000000E+00  0.54943231051E+03  0.54943231051E+03  0.00000000000E+00 0. -1.
          1   -1    0    0  501    0 -0.00000000000E+00 -0.00000000000E+00 -0.13783232888E+04  0.13783232888E+04  0.00000000000E+00 0. -1.
         25    2    1    2    0    0  0.47104992149E+02 -0.53853087137E+02  0.65745749360E+02  0.15836106673E+03  0.12504674573E+03 0.  0.
          2    1    1    2  501    0  0.14681718908E+02  0.46013301844E+02 -0.13293576263E+04  0.13302347444E+04  0.00000000000E+00 0. -1.
          1    1    1    2  502    0 -0.61786711056E+02  0.78397852933E+01  0.43472089857E+03  0.43915978817E+03  0.00000000000E+00 0. -1.
         22    1    3    3    0    0 -0.38645538122E+02  0.35478907317E+01  0.30361635743E+02  0.49273665080E+02  0.00000000000E+00 0. -1.
         22    1    3    3    0    0  0.85750530271E+02 -0.57400977869E+02  0.35384113617E+02  0.10908740165E+03  0.00000000000E+00 0. -1.
</event>
<event>
 7    1  0.6597701E-006  0.7048732E+02  0.7818608E-02  0.1431427E+00
          2   -1    0    0  502    0  0.00000000000E+00  0.00000000000E+00  0.40058627371E+03  0.40058627371E+03  0.00000000000E+00 0. -1.
          1   -1    0    0  501    0 -0.00000000000E+00 -0.00000000000E+00 -0.11653359140E+03  0.11653359140E+03  0.00000000000E+00 0. -1.
         25    2    1    2    0    0  0.55901375284E+02  0.20072102494E+02  0.13237564628E+03  0.19152146601E+03  0.12501722744E+03 0.  0.
          2    1    1    2  501    0  0.16696603078E+02 -0.35646853839E+02 -0.76288771057E+02  0.85845508516E+02  0.00000000000E+00 0. -1.
          1    1    1    2  502    0 -0.72597978362E+02  0.15574751345E+02  0.22796580709E+03  0.23975289058E+03  0.00000000000E+00 0. -1.
         22    1    3    3    0    0  0.61853829922E+02 -0.37803237497E+02  0.10404868642E+03  0.12681131727E+03  0.00000000000E+00 0. -1.
         22    1    3    3    0    0 -0.59524546378E+01  0.57875339992E+02  0.28326959860E+02  0.64710148743E+02  0.00000000000E+00 0. -1.
</event>
<event>
 7    1  0.6597701E-006  0.3900385E+02  0.7818608E-02  0.1567482E+00
          2   -1    0    0  502    0  0.00000000000E+00  0.00000000000E+00  0.84157850997E+03  0.84157850997E+03  0.00000000000E+00 0. -1.
          1   -1    0    0  501    0 -0.00000000000E+00 -0.00000000000E+00 -0.63655741764E+02  0.63655741764E+02  0.00000000000E+00 0. -1.
         25    2    1    2    0    0 -0.14243263445E+02  0.64707969709E+01  0.21160019482E+03  0.24626397319E+03  0.12500624095E+03 0.  0.
          2    1    1    2  501    0 -0.81667426190E+01  0.26631769372E+02 -0.41419382486E+02  0.49915048537E+02  0.00000000000E+00 0. -1.
          1    1    1    2  502    0  0.22410006064E+02 -0.33102566343E+02  0.60774195587E+03  0.60905523000E+03  0.00000000000E+00 0. -1.
         22    1    3    3    0    0 -0.47414631388E+01  0.62242026980E+02  0.70053948892E+02  0.93830203829E+02  0.00000000000E+00 0. -1.
         22    1    3    3    0    0 -0.95018003058E+01 -0.55771230009E+02  0.14154624593E+03  0.15243376936E+03  0.00000000000E+00 0. -1.
</event>
<event>
 7    1  0.6597701E-006  0.4801760E+03  0.7818608E-02  0.1085979E+00
          2   -1    0    0  502    0  0.00000000000E+00  0.00000000000E+00  0.46819525907E+03  0.46819525907E+03  0.00000000000E+00 0. -1.
          1   -1    0    0  501    0 -0.00000000000E+00 -0.00000000000E+00 -0.30005255748E+04  0.30005255748E+04  0.00000000000E+00 0. -1.
         25    2    1    2    0    0  0.43694050770E+03 -0.16239817864E+03  0.20644215458E+03  0.52491263265E+03  0.12499893209E+03 0.  0.
          2    1    1    2  501    0  0.13590333986E+03  0.12639686811E+03 -0.19984319652E+04  0.20070316902E+04  0.00000000000E+00 0. -1.
          1    1    1    2  502    0 -0.57284384756E+03  0.36001310524E+02 -0.74034050512E+03  0.93677651100E+03  0.00000000000E+00 0. -1.
         22    1    3    3    0    0  0.24547211070E+03 -0.78885064230E+02  0.17978883639E+03  0.31433013883E+03  0.00000000000E+00 0.  1.
         22    1    3    3    0    0  0.19146839701E+03 -0.83513114406E+02  0.26653318200E+02  0.21058249381E+03  0.00000000000E+00 0.  1.
</event>
<event>
 7    1  0.6597701E-006  0.5387087E+02  0.7818608E-02  0.1427712E+00
          2   -1    0    0  502    0  0.00000000000E+00  0.00000000000E+00  0.14808625137E+04  0.14808625137E+04  0.00000000000E+00 0. -1.
          1   -1    0    0  501    0 -0.00000000000E+00 -0.00000000000E+00 -0.39203994310E+03  0.39203994310E+03  0.00000000000E+00 0. -1.
         25    2    1    2    0    0 -0.15633324268E+01 -0.15450219343E+02 -0.60712654961E+02  0.13982769004E+03  0.12499841256E+03 0.  0.
          2    1    1    2  501    0 -0.52189795409E+02  0.90975916000E+01 -0.28885178325E+03  0.29366970155E+03  0.00000000000E+00 0. -1.
          1    1    1    2  502    0  0.53753127836E+02  0.63526277430E+01  0.14383870088E+04  0.14394050652E+04  0.00000000000E+00 0. -1.
         22    1    3    3    0    0  0.16077676895E+02 -0.45565677227E+02 -0.84675158142E+02  0.97491563952E+02  0.00000000000E+00 0.  1.
         22    1    3    3    0    0 -0.17641009322E+02  0.30115457884E+02  0.23962503181E+02  0.42336126088E+02  0.00000000000E+00 0.  1.
</event>
<event>
 7    1  0.6597701E-006  0.2693340E+03  0.7818608E-02  0.1123525E+00
          2   -1    0    0  502    0  0.00000000000E+00  0.00000000000E+00  0.71149199174E+03  0.71149199174E+03  0.00000000000E+00 0. -1.
          1   -1    0    0  501    0 -0.00000000000E+00 -0.00000000000E+00 -0.14209878870E+04  0.14209878870E+04  0.00000000000E+00 0. -1.
         25    2    1    2    0    0 -0.50403373432E+02 -0.14041959854E+03 -0.10557561665E+04  0.10735474400E+04  0.12499943590E+03 0.  0.
          2    1    1    2  501    0  0.17653085712E+03 -0.10251302265E+03 -0.29669360818E+03  0.36013769654E+03  0.00000000000E+00 0. -1.
          1    1    1    2  502    0 -0.12612748369E+03  0.24293262119E+03  0.64295387949E+03  0.69879474220E+03  0.00000000000E+00 0. -1.
         22    1    3    3    0    0 -0.27171650791E+02 -0.15888027801E+03 -0.95520062849E+03  0.96870505419E+03  0.00000000000E+00 0.  1.
         22    1    3    3    0    0 -0.23231722641E+02  0.18460679473E+02 -0.10055553804E+03  0.10484238577E+03  0.00000000000E+00 0.  1.
</event>
<event>
 7    1  0.6597701E-006  0.5968083E+02  0.7818608E-02  0.1410660E+00
          2   -1    0    0  502    0  0.00000000000E+00  0.00000000000E+00  0.18126688082E+04  0.18126688082E+04  0.00000000000E+00 0. -1.
          1   -1    0    0  501    0 -0.00000000000E+00 -0.00000000000E+00 -0.70373690453E+03  0.70373690453E+03  0.00000000000E+00 0. -1.
         25    2    1    2    0    0 -0.14410345147E+02  0.57391191349E+01  0.57052821828E+03  0.58426677733E+03  0.12499849482E+03 0.  0.
          2    1    1    2  501    0 -0.16092966906E+02 -0.57470146953E+02 -0.69485782665E+03  0.69741608860E+03  0.00000000000E+00 0. -1.
          1    1    1    2  502    0  0.30503312053E+02  0.51731027818E+02  0.12332615120E+04  0.12347228468E+04  0.00000000000E+00 0. -1.
         22    1    3    3    0    0 -0.85955658254E+01  0.64967620386E+02  0.26378459914E+03  0.27180321961E+03  0.00000000000E+00 0.  1.
         22    1    3    3    0    0 -0.58147793212E+01 -0.59228501251E+02  0.30674361914E+03  0.31246355772E+03  0.00000000000E+00 0.  1.
</event>
<event>
 7    1  0.6597701E-006  0.1110036E+03  0.7818608E-02  0.1332387E+00
          2   -1    0    0  502    0  0.00000000000E+00  0.00000000000E+00  0.35011496064E+03  0.35011496064E+03  0.00000000000E+00 0. -1.
          1   -1    0    0  501    0 -0.00000000000E+00 -0.00000000000E+00 -0.67037884201E+03  0.67037884201E+03  0.00000000000E+00 0. -1.
         25    2    1    2    0    0  0.32424966932E+02  0.48849350030E+02 -0.15321068522E+03  0.20624259319E+03  0.12499942281E+03 0.  0.
          2    1    1    2  501    0  0.40207632857E+02  0.38964806537E+02 -0.47893743595E+03  0.48219910560E+03  0.00000000000E+00 0. -1.
          1    1    1    2  502    0 -0.72632599789E+02 -0.87814156567E+02  0.31188423979E+03  0.33205210386E+03  0.00000000000E+00 0. -1.
         22    1    3    3    0    0  0.47556940589E+01  0.88842855092E+02 -0.10699821461E+03  0.13915562316E+03  0.00000000000E+00 0.  1.
         22    1    3    3    0    0  0.27669272873E+02 -0.39993505063E+02 -0.46212470605E+02  0.67086970031E+02  0.00000000000E+00 0.  1.
</event>
<event>
 7    1  0.6597701E-006  0.6865926E+02  0.7818608E-02  0.1368474E+00
          2   -1    0    0  502    0  0.00000000000E+00  0.00000000000E+00  0.58798408525E+03  0.58798408525E+03  0.00000000000E+00 0. -1.
          1   -1    0    0  501    0 -0.00000000000E+00 -0.00000000000E+00 -0.56724181560E+03  0.56724181560E+03  0.00000000000E+00 0. -1.
         25    2    1    2    0    0 -0.39334985586E+02 -0.20796069483E+02  0.22207055316E+03  0.25868935871E+03  0.12500054452E+03 0.  0.
          2    1    1    2  501    0  0.53055588175E+02 -0.44317783767E+02 -0.54353825956E+03  0.54791678291E+03  0.00000000000E+00 0. -1.
          1    1    1    2  502    0 -0.13720602589E+02  0.65113853250E+02  0.34220997605E+03  0.34861975923E+03  0.00000000000E+00 0. -1.
         22    1    3    3    0    0  0.99330514945E+01 -0.60584506783E+02  0.15363962766E+03  0.16545175479E+03  0.00000000000E+00 0. -1.
         22    1    3    3    0    0 -0.49268037081E+02  0.39788437300E+02  0.68430925498E+02  0.93237603922E+02  0.00000000000E+00 0. -1.
</event>
<event>
 7    1  0.6597701E-006  0.7201166E+02  0.7818608E-02  0.1425775E+00
          2   -1    0    0  502    0  0.00000000000E+00  0.00000000000E+00  0.33679217669E+03  0.33679217669E+03  0.00000000000E+00 0. -1.
          1   -1    0    0  501    0 -0.00000000000E+00 -0.00000000000E+00 -0.15459623569E+03  0.15459623569E+03  0.00000000000E+00 0. -1.
         25    2    1    2    0    0 -0.30045057412E+02 -0.24335134424E+02  0.12670384497E+03  0.18213329806E+03  0.12499507866E+03 0.  0.
          2    1    1    2  501    0  0.70259841333E+02  0.25004138133E+02 -0.11335310872E+03  0.13568559056E+03  0.00000000000E+00 0. -1.
          1    1    1    2  502    0 -0.40214783921E+02 -0.66900370896E+00  0.16884520476E+03  0.17356952377E+03  0.00000000000E+00 0. -1.
         22    1    3    3    0    0 -0.78244942284E+02 -0.18233876933E+02  0.63454435896E+02  0.10237778419E+03  0.00000000000E+00 0. -1.
         22    1    3    3    0    0  0.48199884872E+02 -0.61012574908E+01  0.63249409071E+02  0.79755513868E+02  0.00000000000E+00 0. -1.
</event>
<event>
 7    1  0.6597701E-006  0.5448897E+02  0.7818608E-02  0.1499812E+00
          2   -1    0    0  502    0  0.00000000000E+00  0.00000000000E+00  0.33114549513E+02  0.33114549513E+02  0.00000000000E+00 0. -1.
          1   -1    0    0  501    0 -0.00000000000E+00 -0.00000000000E+00 -0.16169217173E+04  0.16169217173E+04  0.00000000000E+00 0. -1.
         25    2    1    2    0    0  0.70292422320E+01 -0.72082182136E+02 -0.22576054733E+03  0.26802487314E+03  0.12499702660E+03 0.  0.
          2    1    1    2  501    0  0.16398994026E+02  0.51631400873E+02 -0.13483477252E+04  0.13494355549E+04  0.00000000000E+00 0. -1.
          1    1    1    2  502    0 -0.23428236258E+02  0.20450781263E+02 -0.96988952597E+01  0.32575838864E+02  0.00000000000E+00 0. -1.
         22    1    3    3    0    0 -0.35312301844E+02 -0.91263073800E+02 -0.14782489913E+03  0.17727974533E+03  0.00000000000E+00 0.  1.
         22    1    3    3    0    0  0.42341544076E+02  0.19180891663E+02 -0.77935648205E+02  0.90745127808E+02  0.00000000000E+00 0.  1.
</event>
<event>
 7    1  0.1508372E-005  0.4573593E+02  0.7818608E-02  0.1500090E+00
          2   -1    0    0  502    0  0.00000000000E+00  0.00000000000E+00  0.26083891752E+04  0.26083891752E+04  0.00000000000E+00 0. -1.
          1   -1    0    0  501    0 -0.00000000000E+00 -0.00000000000E+00 -0.13337888413E+04  0.13337888413E+04  0.00000000000E+00 0. -1.
         25    2    1    2    0    0 -0.24053777457E+02  0.19146337185E+02 -0.52264277799E+03  0.53826137764E+03  0.12499868336E+03 0.  0.
          2    1    1    2  501    0 -0.20123533629E+02 -0.31024631809E+02 -0.80270988101E+03  0.80356122197E+03  0.00000000000E+00 0. -1.
          1    1    1    2  502    0  0.44177311086E+02  0.11878294624E+02  0.25999529929E+04  0.26003554168E+04  0.00000000000E+00 0. -1.
         22    1    3    3    0    0  0.11773733381E+02 -0.49538956802E+02 -0.22661153431E+03  0.23226174141E+03  0.00000000000E+00 0.  1.
         22    1    3    3    0    0 -0.35827510838E+02  0.68685293987E+02 -0.29603124368E+03  0.30599963623E+03  0.00000000000E+00 0.  1.
</event>
<event>
 7    1  0.8697899E-006  0.7843825E+02  0.7818608E-02  0.1340060E+00
          2   -1    0    0  502    0  0.00000000000E+00  0.00000000000E+00  0.14251937926E+04  0.14251937926E+04  0.00000000000E+00 0. -1.
          1   -1    0    0  501    0 -0.00000000000E+00 -0.00000000000E+00 -0.11030034289E+04  0.11030034289E+04  0.00000000000E+00 0. -1.
         25    2    1    2    0    0 -0.77080830541E+02  0.10543118720E+03 -0.54204647308E+03  0.57139714147E+03  0.12499249827E+03 0.  0.
          2    1    1    2  501    0  0.53241929138E+01 -0.73920534723E+02 -0.54267242405E+03  0.54770973362E+03  0.00000000000E+00 0. -1.
          1    1    1    2  502    0  0.71756637627E+02 -0.31510652474E+02  0.14069092608E+04  0.14090903464E+04  0.00000000000E+00 0. -1.
         22    1    3    3    0    0 -0.33994761187E+02  0.32385324010E+01 -0.24315950090E+02  0.41921322845E+02  0.00000000000E+00 0. -1.
         22    1    3    3    0    0 -0.43086069354E+02  0.10219265480E+03 -0.51773052299E+03  0.52947581862E+03  0.00000000000E+00 0. -1.
</event>
<event>
 7    1  0.6597701E-006  0.1050999E+03  0.7818608E-02  0.1399277E+00
          2   -1    0    0  502    0  0.00000000000E+00  0.00000000000E+00  0.84082168679E+03  0.84082168679E+03  0.00000000000E+00 0. -1.
          1   -1    0    0  501    0 -0.00000000000E+00 -0.00000000000E+00 -0.68366625712E+03  0.68366625712E+03  0.00000000000E+00 0. -1.
         25    2    1    2    0    0 -0.11942106245E+03 -0.68564484174E+02  0.39643331596E+02  0.19015496881E+03  0.12499935910E+03 0.  0.
          2    1    1    2  501    0  0.90023364140E+02  0.51758172757E+02 -0.60357935760E+03  0.61244685929E+03  0.00000000000E+00 0. -1.
          1    1    1    2  502    0  0.29397698306E+02  0.16806311417E+02  0.72109145566E+03  0.72188611581E+03  0.00000000000E+00 0. -1.
         22    1    3    3    0    0 -0.69571238150E+02  0.17342958772E+02  0.54052514522E+02  0.89792035966E+02  0.00000000000E+00 0.  1.
         22    1    3    3    0    0 -0.49849824296E+02 -0.85907442946E+02 -0.14409182926E+02  0.10036293284E+03  0.00000000000E+00 0.  1.
</event>
<event>
 7    1  0.6597701E-006  0.4252079E+03  0.7818608E-02  0.1139682E+00
          2   -1    0    0  502    0  0.00000000000E+00  0.00000000000E+00  0.95872606757E+03  0.95872606757E+03  0.00000000000E+00 0. -1.
          1   -1    0    0  501    0 -0.00000000000E+00 -0.00000000000E+00 -0.53809423521E+03  0.53809423521E+03  0.00000000000E+00 0. -1.
         25    2    1    2    0    0  0.35101537138E+03  0.15855951762E+02  0.50149121495E+03  0.62497247034E+03  0.12503578636E+03 0.  0.
          2    1    1    2  501    0 -0.43099262105E+03 -0.85568769611E+02 -0.36329641847E+03  0.57014115920E+03  0.00000000000E+00 0. -1.
          1    1    1    2  502    0  0.79977249678E+02  0.69712817849E+02  0.28243703588E+03  0.30170667323E+03  0.00000000000E+00 0. -1.
         22    1    3    3    0    0  0.27328407465E+03  0.32947063007E+02  0.29403322909E+03  0.40277193823E+03  0.00000000000E+00 0. -1.
         22    1    3    3    0    0  0.77731296724E+02 -0.17091111245E+02  0.20745798586E+03  0.22220053211E+03  0.00000000000E+00 0. -1.
</event>
<event>
 7    1  0.6597701E-006  0.5169482E+02  0.7818608E-02  0.1508072E+00
          2   -1    0    0  502    0  0.00000000000E+00  0.00000000000E+00  0.33273697151E+03  0.33273697151E+03  0.00000000000E+00 0. -1.
          1   -1    0    0  501    0 -0.00000000000E+00 -0.00000000000E+00 -0.24191626101E+03  0.24191626101E+03  0.00000000000E+00 0. -1.
         25    2    1    2    0    0 -0.74109574559E+02  0.35468761975E+02 -0.97155999082E+02  0.17836696694E+03  0.12500089847E+03 0.  0.
          2    1    1    2  501    0  0.28265389543E+02 -0.12682125992E+02 -0.99538792900E+02  0.10424845254E+03  0.00000000000E+00 0. -1.
          1    1    1    2  502    0  0.45844185016E+02 -0.22786635983E+02  0.28751550248E+03  0.29203781304E+03  0.00000000000E+00 0. -1.
         22    1    3    3    0    0 -0.59196722818E+02 -0.12084558688E+02 -0.11123117348E+03  0.12658065613E+03  0.00000000000E+00 0. -1.
         22    1    3    3    0    0 -0.14912851741E+02  0.47553320663E+02  0.14075174400E+02  0.51786310812E+02  0.00000000000E+00 0. -1.
</event>
<event>
 7    1  0.6597701E-006  0.1110164E+03  0.7818608E-02  0.1406678E+00
          2   -1    0    0  502    0  0.00000000000E+00  0.00000000000E+00  0.21959639403E+04  0.21959639403E+04  0.00000000000E+00 0. -1.
          1   -1    0    0  501    0 -0.00000000000E+00 -0.00000000000E+00 -0.15691760061E+04  0.15691760061E+04  0.00000000000E+00 0. -1.
         25    2    1    2    0    0 -0.63030145052E+02 -0.12318204350E+03  0.10775271164E+03  0.21536410601E+03  0.12499774506E+03 0.  0.
          2    1    1    2  501    0  0.40504766336E+02  0.10300459831E+03 -0.15132366107E+04  0.15172790197E+04  0.00000000000E+00 0. -1.
          1    1    1    2  502    0  0.22525378716E+02  0.20177445185E+02  0.20322718333E+04  0.20324968208E+04  0.00000000000E+00 0. -1.
         22    1    3    3    0    0 -0.36926663764E+02 -0.12547358178E+03  0.12741986674E+03  0.18260071375E+03  0.00000000000E+00 0. -1.
         22    1    3    3    0    0 -0.26103481288E+02  0.22915382884E+01 -0.19667155099E+02  0.32763392266E+02  0.00000000000E+00 0. -1.
</event>
<event>
 7    1  0.6597701E-006  0.7208509E+02  0.7818608E-02  0.1386856E+00
          2   -1    0    0  502    0  0.00000000000E+00  0.00000000000E+00  0.46702391642E+03  0.46702391642E+03  0.00000000000E+00 0. -1.
          1   -1    0    0  501    0 -0.00000000000E+00 -0.00000000000E+00 -0.99554152454E+03  0.99554152454E+03  0.00000000000E+00 0. -1.
         25    2    1    2    0    0 -0.38814393366E+02  0.11536330768E+03 -0.36707092438E+03  0.40642464043E+03  0.12499869974E+03 0.  0.
          2    1    1    2  501    0  0.24691956560E+02 -0.62694689242E+02 -0.60525547117E+03  0.60899466513E+03  0.00000000000E+00 0. -1.
          1    1    1    2  502    0  0.14122436806E+02 -0.52668618443E+02  0.44380878743E+03  0.44714613539E+03  0.00000000000E+00 0. -1.
         22    1    3    3    0    0 -0.89355048465E-01  0.11853505922E+03 -0.33716209259E+03  0.35739172476E+03  0.00000000000E+00 0. -1.
         22    1    3    3    0    0 -0.38725038317E+02 -0.31717515324E+01 -0.29908831786E+02  0.49032915672E+02  0.00000000000E+00 0. -1.
</event>
<event>
 7    1  0.6597701E-006  0.5171597E+02  0.7818608E-02  0.1440173E+00
          2   -1    0    0  502    0  0.00000000000E+00  0.00000000000E+00  0.17112988720E+04  0.17112988720E+04  0.00000000000E+00 0. -1.
          1   -1    0    0  501    0 -0.00000000000E+00 -0.00000000000E+00 -0.16577197427E+03  0.16577197427E+03  0.00000000000E+00 0. -1.
         25    2    1    2    0    0  0.47727805072E+02 -0.43020768666E+02  0.38691998680E+03  0.41165658239E+03  0.12500134288E+03 0.  0.
          2    1    1    2  501    0 -0.51339951840E+02 -0.70859743343E+01 -0.14853001711E+03  0.15731232523E+03  0.00000000000E+00 0. -1.
          1    1    1    2  502    0  0.36121467681E+01  0.50106743000E+02  0.13071369280E+04  0.13081019386E+04  0.00000000000E+00 0. -1.
         22    1    3    3    0    0  0.22673755409E+02 -0.55226901355E+02  0.37757006922E+03  0.38226073169E+03  0.00000000000E+00 0.  1.
         22    1    3    3    0    0  0.25054049663E+02  0.12206132689E+02  0.93499175839E+01  0.29395850703E+02  0.00000000000E+00 0.  1.
</event>
<event>
 7    1  0.6597701E-006  0.6709088E+02  0.7818608E-02  0.1469428E+00
          2   -1    0    0  502    0  0.00000000000E+00  0.00000000000E+00  0.20360092932E+04  0.20360092932E+04  0.00000000000E+00 0. -1.
          1   -1    0    0  501    0 -0.00000000000E+00 -0.00000000000E+00 -0.15441352723E+03  0.15441352723E+03  0.00000000000E+00 0. -1.
         25    2    1    2    0    0 -0.38860844818E+02 -0.88274455877E+02  0.55062594365E+03  0.57281437378E+03  0.12499932867E+03 0.  0.
          2    1    1    2  501    0  0.33962343476E+02  0.57399276102E+02 -0.13538458155E+03  0.15092084877E+03  0.00000000000E+00 0. -1.
          1    1    1    2  502    0  0.48985013421E+01  0.30875179774E+02  0.14663544039E+04  0.14666875979E+04  0.00000000000E+00 0. -1.
         22    1    3    3    0    0  0.29321472811E+02  0.10823135092E+02  0.59937532991E+02  0.67597314163E+02  0.00000000000E+00 0.  1.
         22    1    3    3    0    0 -0.68182317629E+02 -0.99097590968E+02  0.49068841066E+03  0.50521705962E+03  0.00000000000E+00 0.  1.
</event>
<event>
 7    1  0.6597701E-006  0.9345504E+02  0.7818608E-02  0.1304588E+00
          2   -1    0    0  502    0  0.00000000000E+00  0.00000000000E+00  0.32328653778E+02  0.32328653778E+02  0.00000000000E+00 0. -1.
          1   -1    0    0  501    0 -0.00000000000E+00 -0.00000000000E+00 -0.18922773682E+04  0.18922773682E+04  0.00000000000E+00 0. -1.
         25    2    1    2    0    0 -0.97729100329E+02  0.14118943415E+02 -0.86364763786E+03  0.87821567792E+03  0.12500085183E+03 0.  0.
          2    1    1    2  501    0  0.53045046762E+02 -0.86784312731E+02 -0.93698611490E+03  0.94249046331E+03  0.00000000000E+00 0. -1.
          1    1    1    2  502    0  0.44684053567E+02  0.72665369316E+02 -0.59314961668E+02  0.10389988075E+03  0.00000000000E+00 0. -1.
         22    1    3    3    0    0 -0.10509464697E+03 -0.20493593679E+02 -0.43016026540E+03  0.44328628011E+03  0.00000000000E+00 0.  1.
         22    1    3    3    0    0  0.73655466450E+01  0.34612537094E+02 -0.43348737246E+03  0.43492939781E+03  0.00000000000E+00 0.  1.
</event>
<event>
 7    1  0.6597701E-006  0.3629925E+02  0.7818608E-02  0.1567974E+00
          2   -1    0    0  502    0  0.00000000000E+00  0.00000000000E+00  0.25918151542E+04  0.25918151542E+04  0.00000000000E+00 0. -1.
          1   -1    0    0  501    0 -0.00000000000E+00 -0.00000000000E+00 -0.76374114008E+02  0.76374114008E+02  0.00000000000E+00 0. -1.
         25    2    1    2    0    0  0.97742329897E+01  0.26613152207E+00  0.44317261784E+03  0.46057016830E+03  0.12500921673E+03 0.  0.
          2    1    1    2  501    0 -0.28552179576E+02  0.22923597759E+02 -0.62610678697E+02  0.72531478543E+02  0.00000000000E+00 0. -1.
          1    1    1    2  502    0  0.18777946586E+02 -0.23189729281E+02  0.21348791011E+04  0.21350876214E+04  0.00000000000E+00 0. -1.
         22    1    3    3    0    0  0.59198438709E+02  0.49478426337E+01  0.12325839913E+03  0.13682678557E+03  0.00000000000E+00 0. -1.
         22    1    3    3    0    0 -0.49424205719E+02 -0.46817111116E+01  0.31991421872E+03  0.32374338274E+03  0.00000000000E+00 0. -1.
</event>
<event>
 7    1  0.6597701E-006  0.9092285E+02  0.7818608E-02  0.1348486E+00
          2   -1    0    0  502    0  0.00000000000E+00  0.00000000000E+00  0.79301039528E+02  0.79301039528E+02  0.00000000000E+00 0. -1.
          1   -1    0    0  501    0 -0.00000000000E+00 -0.00000000000E+00 -0.72681808767E+03  0.72681808767E+03  0.00000000000E+00 0. -1.
         25    2    1    2    0    0 -0.68854437432E+02  0.93495497072E+02 -0.12745730477E+03  0.21296186299E+03  0.12500019609E+03 0.  0.
          2    1    1    2  501    0 -0.10208444013E+02 -0.58580699222E+02 -0.50117347194E+03  0.50468877502E+03  0.00000000000E+00 0. -1.
          1    1    1    2  502    0  0.79062881446E+02 -0.34914797850E+02 -0.18886271433E+02  0.88468489193E+02  0.00000000000E+00 0. -1.
         22    1    3    3    0    0 -0.51381972806E+02  0.12188776741E+03 -0.12044221438E+03  0.17889399648E+03  0.00000000000E+00 0.  1.
         22    1    3    3    0    0 -0.17472464626E+02 -0.28392270339E+02 -0.70150903933E+01  0.34067866507E+02  0.00000000000E+00 0.  1.
</event>
<event>
 7    1  0.6597701E-006  0.8050969E+02  0.7818608E-02  0.1490557E+00
          2   -1    0    0  502    0  0.00000000000E+00  0.00000000000E+00  0.15137104151E+04  0.15137104151E+04  0.00000000000E+00 0. -1.
          1   -1    0    0  501    0 -0.00000000000E+00 -0.00000000000E+00 -0.33922820122E+03  0.33922820122E+03  0.00000000000E+00 0. -1.
         25    2    1    2    0    0 -0.13188623295E+02  0.59541554386E+02 -0.47514299166E+02  0.14697307581E+03  0.12499735959E+03 0.  0.
          2    1    1    2  501    0  0.78453375925E+01  0.21022695756E+02 -0.24034827299E+03  0.24139344520E+03  0.00000000000E+00 0. -1.
          1    1    1    2  502    0  0.53432857029E+01 -0.80564250142E+02  0.14623447860E+04  0.14645720953E+04  0.00000000000E+00 0. -1.
         22    1    3    3    0    0 -0.45988604873E+02  0.76518642156E+02 -0.32637562951E+01  0.89334799942E+02  0.00000000000E+00 0.  1.
         22    1    3    3    0    0  0.32799981578E+02 -0.16977087770E+02 -0.44250542871E+02  0.57638275868E+02  0.00000000000E+00 0.  1.
</event>
<event>
 7    1  0.6597701E-006  0.4754527E+02  0.7818608E-02  0.1512395E+00
          2   -1    0    0  502    0  0.00000000000E+00  0.00000000000E+00  0.14703347009E+04  0.14703347009E+04  0.00000000000E+00 0. -1.
          1   -1    0    0  501    0 -0.00000000000E+00 -0.00000000000E+00 -0.13736278058E+02  0.13736278058E+02  0.00000000000E+00 0. -1.
         25    2    1    2    0    0 -0.64936852090E+02  0.30973692815E+02  0.47209251347E+03  0.49362948682E+03  0.12499025791E+03 0.  0.
          2    1    1    2  501    0  0.32629888994E+02  0.23127737012E+01  0.11138102133E+03  0.11608527249E+03  0.00000000000E+00 0. -1.
          1    1    1    2  502    0  0.32306963096E+02 -0.33286466516E+02  0.87312488807E+03  0.87435621967E+03  0.00000000000E+00 0. -1.
         22    1    3    3    0    0 -0.66211706673E+02 -0.21287806068E+02  0.12878991318E+03  0.14636940433E+03  0.00000000000E+00 0.  1.
         22    1    3    3    0    0  0.12748545821E+01  0.52261498883E+02  0.34330260029E+03  0.34726008249E+03  0.00000000000E+00 0.  1.
</event>
<event>
 7    1  0.6597701E-006  0.1912382E+03  0.7818608E-02  0.1282211E+00
          2   -1    0    0  502    0  0.00000000000E+00  0.00000000000E+00  0.13907924551E+04  0.13907924551E+04  0.00000000000E+00 0. -1.
          1   -1    0    0  501    0 -0.00000000000E+00 -0.00000000000E+00 -0.40998579508E+03  0.40998579508E+03  0.00000000000E+00 0. -1.
         25    2    1    2    0    0 -0.19836897454E+03  0.42019259473E+01  0.27166795050E+02  0.23607551942E+03  0.12500283946E+03 0.  0.
          2    1    1    2  501    0  0.18535837016E+03  0.45470961197E+02 -0.27513792665E+03  0.33485252333E+03  0.00000000000E+00 0. -1.
          1    1    1    2  502    0  0.13010604380E+02 -0.49672887144E+02  0.12287777916E+04  0.12298502074E+04  0.00000000000E+00 0. -1.
         22    1    3    3    0    0 -0.91071099526E+02  0.42500678009E+02 -0.34838366429E+02  0.10636712168E+03  0.00000000000E+00 0.  1.
         22    1    3    3    0    0 -0.10729787501E+03 -0.38298752061E+02  0.62005161480E+02  0.12970839773E+03  0.00000000000E+00 0.  1.
</event>
<event>
 7    1  0.6597701E-006  0.7138991E+02  0.7818608E-02  0.1461881E+00
          2   -1    0    0  502    0  0.00000000000E+00  0.00000000000E+00  0.88555983719E+03  0.88555983719E+03  0.00000000000E+00 0. -1.
          1   -1    0    0  501    0 -0.00000000000E+00 -0.00000000000E+00 -0.53944613876E+02  0.53944613876E+02  0.00000000000E+00 0. -1.
         25    2    1    2    0    0  0.79768560560E+02 -0.32256281907E+02  0.48900637141E+03  0.51201082768E+03  0.12499746160E+03 0.  0.
          2    1    1    2  501    0 -0.52655680254E+02  0.47328883981E+02 -0.11759610678E+02  0.71769996274E+02  0.00000000000E+00 0. -1.
          1    1    1    2  502    0 -0.27112880306E+02 -0.15072602074E+02  0.35436846258E+03  0.35572362711E+03  0.00000000000E+00 0. -1.
         22    1    3    3    0    0  0.61396247742E+02 -0.30217800047E+02  0.48875700790E+03  0.49352409004E+03  0.00000000000E+00 0. -1.
         22    1    3    3    0    0  0.18372312818E+02 -0.20384818601E+01  0.24936351201E+00  0.18486737645E+02  0.00000000000E+00 0. -1.
</event>
<event>
 7    1  0.6597701E-006  0.2156426E+03  0.7818608E-02  0.1269269E+00
          2   -1    0    0  502    0  0.00000000000E+00  0.00000000000E+00  0.20226230649E+04  0.20226230649E+04  0.00000000000E+00 0. -1.
          1   -1    0    0  501    0 -0.00000000000E+00 -0.00000000000E+00 -0.20613062189E+03  0.20613062189E+03  0.00000000000E+00 0. -1.
         25    2    1    2    0    0 -0.18247090541E+03 -0.93795404957E+02  0.19412035552E+03  0.30887615109E+03  0.12501421906E+03 0.  0.
          2    1    1    2  501    0  0.16761717154E+03  0.14315761639E+03 -0.66481269104E+02  0.23023765650E+03  0.00000000000E+00 0. -1.
          1    1    1    2  502    0  0.14853733867E+02 -0.49362211434E+02  0.16888533566E+04  0.16896398792E+04  0.00000000000E+00 0. -1.
         22    1    3    3    0    0 -0.53477142924E+02 -0.65643491331E+02  0.14422040828E+02  0.85888695595E+02  0.00000000000E+00 0.  1.
         22    1    3    3    0    0 -0.12899376249E+03 -0.28151913626E+02  0.17969831470E+03  0.22298745549E+03  0.00000000000E+00 0.  1.
</event>
<event>
 7    1  0.6597701E-006  0.1247893E+03  0.7818608E-02  0.1382542E+00
          2   -1    0    0  502    0  0.00000000000E+00  0.00000000000E+00  0.83221399425E+03  0.83221399425E+03  0.00000000000E+00 0. -1.
          1   -1    0    0  501    0 -0.00000000000E+00 -0.00000000000E+00 -0.29780419909E+03  0.29780419909E+03  0.00000000000E+00 0. -1.
         25    2    1    2    0    0 -0.10546705167E+03  0.84188844193E+02  0.19764077733E+03  0.26999581333E+03  0.12499920749E+03 0.  0.
          2    1    1    2  501    0  0.11279403407E+03 -0.52403725796E+02 -0.24636387538E+03  0.27597790435E+03  0.00000000000E+00 0. -1.
          1    1    1    2  502    0 -0.73269824033E+01 -0.31785118396E+02  0.58313289320E+03  0.58404447567E+03  0.00000000000E+00 0. -1.
         22    1    3    3    0    0 -0.78638231959E+02  0.11685176138E+03  0.16234337850E+03  0.21492714627E+03  0.00000000000E+00 0. -1.
         22    1    3    3    0    0 -0.26828819712E+02 -0.32662917187E+02  0.35297398839E+02  0.55068667054E+02  0.00000000000E+00 0. -1.
</event>
<event>
 7    1  0.6597701E-006  0.7981542E+02  0.7818608E-02  0.1401060E+00
          2   -1    0    0  502    0  0.00000000000E+00  0.00000000000E+00  0.29439385327E+04  0.29439385327E+04  0.00000000000E+00 0. -1.
          1   -1    0    0  501    0 -0.00000000000E+00 -0.00000000000E+00 -0.61655418840E+03  0.61655418840E+03  0.00000000000E+00 0. -1.
         25    2    1    2    0    0 -0.80493851194E+02 -0.48218708724E+02  0.79065695984E+03  0.80595724021E+03  0.12499736380E+03 0.  0.
          2    1    1    2  501    0  0.41358452901E+02  0.68251871977E+02 -0.60606271218E+03  0.61129440595E+03  0.00000000000E+00 0. -1.
          1    1    1    2  502    0  0.39135398293E+02 -0.20033163253E+02  0.21427900966E+04  0.21432410749E+04  0.00000000000E+00 0. -1.
         22    1    3    3    0    0 -0.10344870118E+03 -0.60678284413E+02  0.50227171325E+03  0.51639167490E+03  0.00000000000E+00 0. -1.
         22    1    3    3    0    0  0.22954849984E+02  0.12459575689E+02  0.28838524658E+03  0.28956556531E+03  0.00000000000E+00 0. -1.
</event>
<event>
 7    1  0.6597701E-006  0.3225465E+03  0.7818608E-02  0.1211454E+00
          2   -1    0    0  502    0  0.00000000000E+00  0.00000000000E+00  0.24259186835E+04  0.24259186835E+04  0.00000000000E+00 0. -1.
          1   -1    0    0  501    0 -0.00000000000E+00 -0.00000000000E+00 -0.13624865426E+04  0.13624865426E+04  0.00000000000E+00 0. -1.
         25    2    1    2    0    0  0.24810423323E+03 -0.10199628830E+03  0.64251777395E+02  0.30283864476E+03  0.12499600189E+03 0.  0.
          2    1    1    2  501    0 -0.30921235449E+03  0.11241534231E+03 -0.12209844660E+04  0.12645364984E+04  0.00000000000E+00 0. -1.
          1    1    1    2  502    0  0.61108121257E+02 -0.10419054007E+02  0.22201648295E+04  0.22210300830E+04  0.00000000000E+00 0. -1.
         22    1    3    3    0    0  0.12208150383E+03 -0.10430138310E+03  0.73220023220E+02  0.17647618507E+03  0.00000000000E+00 0.  1.
         22    1    3    3    0    0  0.12602272940E+03  0.23050948017E+01 -0.89682458258E+01  0.12636245969E+03  0.00000000000E+00 0.  1.
</event>
<event>
 7    1  0.6597701E-006  0.8491529E+02  0.7818608E-02  0.1338910E+00
          2   -1    0    0  502    0  0.00000000000E+00  0.00000000000E+00  0.34586604638E+03  0.34586604638E+03  0.00000000000E+00 0. -1.
          1   -1    0    0  501    0 -0.00000000000E+00 -0.00000000000E+00 -0.17367960395E+03  0.17367960395E+03  0.00000000000E+00 0. -1.
         25    2    1    2    0    0 -0.26434705248E+02  0.59140815293E+02 -0.59470404965E+01  0.14091080610E+03  0.12499623318E+03 0.  0.
          2    1    1    2  501    0  0.91469377150E+02 -0.35656282326E+02 -0.70306695620E+02  0.12075201396E+03  0.00000000000E+00 0. -1.
          1    1    1    2  502    0 -0.65034671902E+02 -0.23484532966E+02  0.24844017854E+03  0.25788283028E+03  0.00000000000E+00 0. -1.
         22    1    3    3    0    0  0.21439374287E+02 -0.19999212682E+02  0.29748495174E+02  0.41768268373E+02  0.00000000000E+00 0.  1.
         22    1    3    3    0    0 -0.47874079535E+02  0.79140027975E+02 -0.35695535671E+02  0.99142537722E+02  0.00000000000E+00 0.  1.
</event>
<event>
 7    1  0.6597701E-006  0.4938100E+02  0.7818608E-02  0.1452119E+00
          2   -1    0    0  502    0  0.00000000000E+00  0.00000000000E+00  0.10123578238E+04  0.10123578238E+04  0.00000000000E+00 0. -1.
          1   -1    0    0  501    0 -0.00000000000E+00 -0.00000000000E+00 -0.12896674865E+03  0.12896674865E+03  0.00000000000E+00 0. -1.
         25    2    1    2    0    0  0.24015864431E+02 -0.11274993034E+02  0.80760600134E+02  0.15116571488E+03  0.12499964644E+03 0.  0.
          2    1    1    2  501    0  0.20866705366E+01  0.51743685146E+02 -0.85911825065E+02  0.10031253577E+03  0.00000000000E+00 0. -1.
          1    1    1    2  502    0 -0.26102534968E+02 -0.40468692112E+02  0.88854230007E+03  0.88984632178E+03  0.00000000000E+00 0. -1.
         22    1    3    3    0    0 -0.89224877345E+01  0.17453173672E+02  0.10108277876E+03  0.10296578179E+03  0.00000000000E+00 0.  1.
         22    1    3    3    0    0  0.32938352166E+02 -0.28728166706E+02 -0.20322178625E+02  0.48199933088E+02  0.00000000000E+00 0.  1.
</event>
<event>
 7    1  0.6597701E-006  0.4646681E+02  0.7818608E-02  0.1539951E+00
          2   -1    0    0  502    0  0.00000000000E+00  0.00000000000E+00  0.12187937268E+03  0.12187937268E+03  0.00000000000E+00 0. -1.
          1   -1    0    0  501    0 -0.00000000000E+00 -0.00000000000E+00 -0.19896355952E+03  0.19896355952E+03  0.00000000000E+00 0. -1.
         25    2    1    2    0    0  0.94481647728E+01 -0.43061539552E+02 -0.11174652288E+03  0.17336032463E+03  0.12499181083E+03 0.  0.
          2    1    1    2  501    0 -0.35848099668E+02  0.34095952962E+02 -0.42635618630E+02  0.65310154143E+02  0.00000000000E+00 0. -1.
          1    1    1    2  502    0  0.26399934895E+02  0.89655865900E+01  0.77297954670E+02  0.82172453422E+02  0.00000000000E+00 0. -1.
         22    1    3    3    0    0  0.25159982866E+02 -0.62387212945E+02 -0.12731085032E+03  0.14399042220E+03  0.00000000000E+00 0. -1.
         22    1    3    3    0    0 -0.15711818093E+02  0.19325673393E+02  0.15564327441E+02  0.29369902427E+02  0.00000000000E+00 0. -1.
</event>
<event>
 7    1  0.6597701E-006  0.6549976E+02  0.7818608E-02  0.1439874E+00
          2   -1    0    0  502    0  0.00000000000E+00  0.00000000000E+00  0.24217393838E+04  0.24217393838E+04  0.00000000000E+00 0. -1.
          1   -1    0    0  501    0 -0.00000000000E+00 -0.00000000000E+00 -0.96830087768E+03  0.96830087768E+03  0.00000000000E+00 0. -1.
         25    2    1    2    0    0 -0.24589586290E+02  0.21195144485E+02  0.31104409436E+03  0.33678845007E+03  0.12499659821E+03 0.  0.
          2    1    1    2  501    0  0.24337282265E+02 -0.60947997399E+02 -0.95411307279E+03  0.95636745938E+03  0.00000000000E+00 0. -1.
          1    1    1    2  502    0  0.25230402527E+00  0.39752852914E+02  0.20965074846E+04  0.20968843520E+04  0.00000000000E+00 0. -1.
         22    1    3    3    0    0 -0.13557923568E+02  0.53596447240E+02  0.53341024673E+02  0.76822271259E+02  0.00000000000E+00 0. -1.
         22    1    3    3    0    0 -0.11031662722E+02 -0.32401302754E+02  0.25770306968E+03  0.25996617881E+03  0.00000000000E+00 0. -1.
</event>
<event>
 7    1  0.6597701E-006  0.1119703E+03  0.7818608E-02  0.1303110E+00
          2   -1    0    0  502    0  0.00000000000E+00  0.00000000000E+00  0.96173526082E+03  0.96173526082E+03  0.00000000000E+00 0. -1.
          1   -1    0    0  501    0 -0.00000000000E+00 -0.00000000000E+00 -0.28442877839E+04  0.28442877839E+04  0.00000000000E+00 0. -1.
         25    2    1    2    0    0 -0.17912555774E+03  0.29877022021E+02  0.23126090331E+03  0.31950819167E+03  0.12500110906E+03 0.  0.
          2    1    1    2  501    0  0.10698945549E+03 -0.32075990006E+02 -0.27971493146E+04  0.27993784847E+04  0.00000000000E+00 0. -1.
          1    1    1    2  502    0  0.72136102248E+02  0.21989679855E+01  0.68333588814E+03  0.68713636837E+03  0.00000000000E+00 0. -1.
         22    1    3    3    0    0 -0.86268809273E+02 -0.11112880967E+02  0.26431483231E+02  0.90908893309E+02  0.00000000000E+00 0. -1.
         22    1    3    3    0    0 -0.92856748463E+02  0.40989902988E+02  0.20482942008E+03  0.22859929836E+03  0.00000000000E+00 0. -1.
</event>
<event>
 7    1  0.6597701E-006  0.7901267E+02  0.7818608E-02  0.1381912E+00
          2   -1    0    0  502    0  0.00000000000E+00  0.00000000000E+00  0.83979417756E+03  0.83979417756E+03  0.00000000000E+00 0. -1.
          1   -1    0    0  501    0 -0.00000000000E+00 -0.00000000000E+00 -0.47776582418E+02  0.47776582418E+02  0.00000000000E+00 0. -1.
         25    2    1    2    0    0 -0.55935968501E+02  0.84638843480E+02  0.21162053944E+03  0.26589530923E+03  0.12499798542E+03 0.  0.
          2    1    1    2  501    0  0.66911497386E+02 -0.34034026582E+02  0.53362684330E+02  0.92103417563E+02  0.00000000000E+00 0. -1.
          1    1    1    2  502    0 -0.10975528885E+02 -0.50604816898E+02  0.52703437136E+03  0.52957203318E+03  0.00000000000E+00 0. -1.
         22    1    3    3    0    0  0.20149252776E+02  0.52145062072E+02  0.15726101677E+03  0.16690154967E+03  0.00000000000E+00 0.  1.
         22    1    3    3    0    0 -0.76085221277E+02  0.32493781407E+02  0.54359522670E+02  0.98993759560E+02  0.00000000000E+00 0.  1.
</event>
<event>
 7    1  0.6597701E-006  0.7883879E+02  0.7818608E-02  0.1369545E+00
          2   -1    0    0  502    0  0.00000000000E+00  0.00000000000E+00  0.26801226942E+04  0.26801226942E+04  0.00000000000E+00 0. -1.
          1   -1    0    0  501    0 -0.00000000000E+00 -0.00000000000E+00 -0.40371443590E+03  0.40371443590E+03  0.00000000000E+00 0. -1.
         25    2    1    2    0    0 -0.23371733573E+02 -0.12803943481E+03  0.14397440676E+03  0.23085480102E+03  0.12499989822E+03 0.  0.
          2    1    1    2  501    0  0.28230106235E+02  0.50023684378E+02 -0.35736753462E+03  0.36195422735E+03  0.00000000000E+00 0. -1.
          1    1    1    2  502    0 -0.48583726616E+01  0.78015750433E+02  0.24898013862E+04  0.24910281017E+04  0.00000000000E+00 0. -1.
         22    1    3    3    0    0 -0.32300238167E+02 -0.14534169888E+03  0.14911266556E+03  0.21071806247E+03  0.00000000000E+00 0. -1.
         22    1    3    3    0    0  0.89285045943E+01  0.17302264065E+02 -0.51382588008E+01  0.20136738553E+02  0.00000000000E+00 0. -1.
</event>
<event>
 7    1  0.6597701E-006  0.1587448E+03  0.7818608E-02  0.1221485E+00
          2   -1    0    0  502    0  0.00000000000E+00  0.00000000000E+00  0.29362689276E+04  0.29362689276E+04  0.00000000000E+00 0. -1.
          1   -1    0    0  501    0 -0.00000000000E+00 -0.00000000000E+00 -0.33910028452E+03  0.33910028452E+03  0.00000000000E+00 0. -1.
         25    2    1    2    0    0  0.21640872753E+03  0.21903805875E+02  0.38788376634E+03  0.46194280334E+03  0.12499929319E+03 0.  0.
          2    1    1    2  501    0 -0.14332214339E+03  0.64663939902E+02 -0.28023384345E+03  0.32133108926E+03  0.00000000000E+00 0. -1.
          1    1    1    2  502    0 -0.73086584137E+02 -0.86567745777E+02  0.24895187202E+04  0.24920953196E+04  0.00000000000E+00 0. -1.
         22    1    3    3    0    0  0.12993557926E+03  0.60714240333E+02  0.15854621322E+03  0.21379049432E+03  0.00000000000E+00 0. -1.
         22    1    3    3    0    0  0.86473148267E+02 -0.38810434458E+02  0.22933755313E+03  0.24815230901E+03  0.00000000000E+00 0. -1.
</event>
<event>
 7    1  0.6597701E-006  0.7791877E+02  0.7818608E-02  0.1356939E+00
          2   -1    0    0  502    0  0.00000000000E+00  0.00000000000E+00  0.12255466742E+03  0.12255466742E+03  0.00000000000E+00 0. -1.
          1   -1    0    0  501    0 -0.00000000000E+00 -0.00000000000E+00 -0.16815139162E+04  0.16815139162E+04  0.00000000000E+00 0. -1.
         25    2    1    2    0    0  0.19901885050E+02  0.21281234871E+02 -0.42600642676E+03  0.44492077010E+03  0.12499616013E+03 0.  0.
          2    1    1    2  501    0 -0.13086783430E+02 -0.85499745047E+02 -0.12351942598E+04  0.12382190153E+04  0.00000000000E+00 0. -1.
          1    1    1    2  502    0 -0.68151016205E+01  0.64218510176E+02  0.10224143776E+03  0.12092879828E+03  0.00000000000E+00 0. -1.
         22    1    3    3    0    0  0.38686944041E+02  0.34195689511E+02 -0.41735718784E+03  0.42053899589E+03  0.00000000000E+00 0. -1.
         22    1    3    3    0    0 -0.18785058991E+02 -0.12914454640E+02 -0.86492389117E+01  0.24381774212E+02  0.00000000000E+00 0. -1.
</event>
<event>
 7    1  0.6597701E-006  0.1446884E+03  0.7818608E-02  0.1280547E+00
          2   -1    0    0  502    0  0.00000000000E+00  0.00000000000E+00  0.26709490566E+04  0.26709490566E+04  0.00000000000E+00 0. -1.
          1   -1    0    0  501    0 -0.00000000000E+00 -0.00000000000E+00 -0.32852992924E+03  0.32852992924E+03  0.00000000000E+00 0. -1.
         25    2    1    2    0    0 -0.10658606609E+03 -0.33783359326E+02  0.85163530933E+03  0.86799697291E+03  0.12503655478E+03 0.  0.
          2    1    1    2  501    0 -0.54812853766E+02  0.41827166421E+02 -0.31298462607E+03  0.32048921502E+03  0.00000000000E+00 0. -1.
          1    1    1    2  502    0  0.16139891985E+03 -0.80438070957E+01  0.18037684441E+04  0.18109927979E+04  0.00000000000E+00 0. -1.
         22    1    3    3    0    0 -0.10583977140E+03 -0.33658337279E+02  0.85619834763E+03  0.86337161835E+03  0.00000000000E+00 0. -1.
         22    1    3    3    0    0 -0.74629468578E+00 -0.12502204671E+00 -0.45630383033E+01  0.46253545623E+01  0.00000000000E+00 0. -1.
</event>
<event>
 7    1  0.6597701E-006  0.7770183E+02  0.7818608E-02  0.1429246E+00
          2   -1    0    0  502    0  0.00000000000E+00  0.00000000000E+00  0.27557361581E+04  0.27557361581E+04  0.00000000000E+00 0. -1.
          1   -1    0    0  501    0 -0.00000000000E+00 -0.00000000000E+00 -0.31381144551E+04  0.31381144551E+04  0.00000000000E+00 0. -1.
         25    2    1    2    0    0 -0.45836755979E+02  0.21508076829E+02  0.80312722693E+03  0.81437448696E+03  0.12501542628E+03 0.  0.
          2    1    1    2  501    0  0.52654687540E+02 -0.57165671193E+02 -0.31318394489E+04  0.31328036587E+04  0.00000000000E+00 0. -1.
          1    1    1    2  502    0 -0.68179315613E+01  0.35657594363E+02  0.19463339250E+04  0.19466724675E+04  0.00000000000E+00 0. -1.
         22    1    3    3    0    0  0.26982121874E+02  0.27884153523E+02  0.96983671013E+02  0.10445761514E+03  0.00000000000E+00 0. -1.
         22    1    3    3    0    0 -0.72818877853E+02 -0.63760766939E+01  0.70614355592E+03  0.70991687182E+03  0.00000000000E+00 0. -1.
</event>
<event>
 7    1  0.6597701E-006  0.3769120E+02  0.7818608E-02  0.1554043E+00
          2   -1    0    0  502    0  0.00000000000E+00  0.00000000000E+00  0.13131136296E+04  0.13131136296E+04  0.00000000000E+00 0. -1.
          1   -1    0    0  501    0 -0.00000000000E+00 -0.00000000000E+00 -0.10143318856E+04  0.10143318856E+04  0.00000000000E+00 0. -1.
         25    2    1    2    0    0 -0.59214418166E+02 -0.10204548938E+02  0.34664500054E+03  0.37336388927E+03  0.12500942875E+03 0.  0.
          2    1    1    2  501    0  0.23508375747E+02  0.20795804729E+02 -0.10003623852E+04  0.10008546403E+04  0.00000000000E+00 0. -1.
          1    1    1    2  502    0  0.35706042419E+02 -0.10591255790E+02  0.95249912868E+03  0.95322698572E+03  0.00000000000E+00 0. -1.
         22    1    3    3    0    0 -0.74783313819E+02 -0.34680953083E+02  0.12439924209E+03  0.14923298551E+03  0.00000000000E+00 0. -1.
         22    1    3    3    0    0  0.15568895653E+02  0.24476404144E+02  0.22224575845E+03  0.22413090376E+03  0.00000000000E+00 0. -1.
</event>
<event>
 7    1  0.6597701E-006  0.1457286E+03  0.7818608E-02  0.1334516E+00
          2   -1    0    0  502    0  0.00000000000E+00  0.00000000000E+00  0.17133758527E+04  0.17133758527E+04  0.00000000000E+00 0. -1.
          1   -1    0    0  501    0 -0.00000000000E+00 -0.00000000000E+00 -0.11513849718E+04  0.11513849718E+04  0.00000000000E+00 0. -1.
         25    2    1    2    0    0 -0.24670786838E+02 -0.13675767337E+03  0.18963320377E+03  0.26626656828E+03  0.12500329780E+03 0.  0.
          2    1    1    2  501    0 -0.41481630244E+02  0.56284294389E+01 -0.11090419945E+04  0.11098317667E+04  0.00000000000E+00 0. -1.
          1    1    1    2  502    0  0.66152417082E+02  0.13112924393E+03  0.14813996716E+04  0.14886624895E+04  0.00000000000E+00 0. -1.
         22    1    3    3    0    0 -0.65342202755E+02 -0.78372303015E+02  0.15871279865E+03  0.18868379315E+03  0.00000000000E+00 0. -1.
         22    1    3    3    0    0  0.40671415917E+02 -0.58385370351E+02  0.30920405122E+02  0.77582775128E+02  0.00000000000E+00 0. -1.
</event>
<event>
 7    1  0.6597701E-006  0.5132249E+02  0.7818608E-02  0.1510859E+00
          2   -1    0    0  502    0  0.00000000000E+00  0.00000000000E+00  0.29492224654E+04  0.29492224654E+04  0.00000000000E+00 0. -1.
          1   -1    0    0  501    0 -0.00000000000E+00 -0.00000000000E+00 -0.29588217331E+03  0.29588217331E+03  0.00000000000E+00 0. -1.
         25    2    1    2    0    0 -0.61356408153E+02  0.64234911555E+01  0.24024162041E+03  0.27775448247E+03  0.12500258517E+03 0.  0.
          2    1    1    2  501    0  0.14386800442E+02 -0.27030339451E+02 -0.27603459894E+03  0.27772777875E+03  0.00000000000E+00 0. -1.
          1    1    1    2  502    0  0.46969607711E+02  0.20606848295E+02  0.26891332707E+04  0.26896223775E+04  0.00000000000E+00 0. -1.
         22    1    3    3    0    0 -0.90266392269E+02  0.22518533893E+02  0.22025817099E+03  0.23909991181E+03  0.00000000000E+00 0.  1.
         22    1    3    3    0    0  0.28909984116E+02 -0.16095042737E+02  0.19983449419E+02  0.38654570661E+02  0.00000000000E+00 0.  1.
</event>
<event>
 7    1  0.6597701E-006  0.5844996E+02  0.7818608E-02  0.1434077E+00
          2   -1    0    0  502    0  0.00000000000E+00  0.00000000000E+00  0.47244755584E+03  0.47244755584E+03  0.00000000000E+00 0. -1.
          1   -1    0    0  501    0 -0.00000000000E+00 -0.00000000000E+00 -0.21233244311E+03  0.21233244311E+03  0.00000000000E+00 0. -1.
         25    2    1    2    0    0 -0.19593359284E+02  0.42173176551E+02  0.18988125235E+03  0.23201897939E+03  0.12496175517E+03 0.  0.
          2    1    1    2  501    0  0.57200267747E+02 -0.14774121872E+02 -0.18454384289E+03  0.19376938679E+03  0.00000000000E+00 0. -1.
          1    1    1    2  502    0 -0.37606908463E+02 -0.27399054679E+02  0.25477770327E+03  0.25899163277E+03  0.00000000000E+00 0. -1.
         22    1    3    3    0    0 -0.54952364594E+02  0.23148089913E+02  0.18144241828E+03  0.19098939130E+03  0.00000000000E+00 0.  1.
         22    1    3    3    0    0  0.35359005311E+02  0.19025086638E+02  0.84388340771E+01  0.41029588089E+02  0.00000000000E+00 0.  1.
</event>
<event>
 7    1  0.6597701E-006  0.8898796E+02  0.7818608E-02  0.1399438E+00
          2   -1    0    0  502    0  0.00000000000E+00  0.00000000000E+00  0.16913541247E+04  0.16913541247E+04  0.00000000000E+00 0. -1.
          1   -1    0    0  501    0 -0.00000000000E+00 -0.00000000000E+00 -0.22580538123E+03  0.22580538123E+03  0.00000000000E+00 0. -1.
         25    2    1    2    0    0 -0.12491528397E+03 -0.88395211895E+01  0.39522006581E+03  0.43301879573E+03  0.12499764692E+03 0.  0.
          2    1    1    2  501    0  0.38698526618E+02  0.98918546643E+01 -0.20350722742E+03  0.20739001028E+03  0.00000000000E+00 0. -1.
          1    1    1    2  502    0  0.86216757350E+02 -0.10523334747E+01  0.12738359050E+04  0.12767506999E+04  0.00000000000E+00 0. -1.
         22    1    3    3    0    0 -0.40251924629E+02  0.56527333576E+02  0.13866526092E+03  0.15506002536E+03  0.00000000000E+00 0.  1.
         22    1    3    3    0    0 -0.84663359340E+02 -0.65366854766E+02  0.25655480488E+03  0.27795877037E+03  0.00000000000E+00 0.  1.
</event>
<event>
 7    1  0.6597701E-006  0.8019824E+02  0.7818608E-02  0.1383220E+00
          2   -1    0    0  502    0  0.00000000000E+00  0.00000000000E+00  0.12375216237E+04  0.12375216237E+04  0.00000000000E+00 0. -1.
          1   -1    0    0  501    0 -0.00000000000E+00 -0.00000000000E+00 -0.69981182306E+02  0.69981182306E+02  0.00000000000E+00 0. -1.
         25    2    1    2    0    0  0.10702029466E+02 -0.98647414941E+02  0.19593107629E+03  0.25271463109E+03  0.12501940730E+03 0.  0.
          2    1    1    2  501    0  0.36844460451E+02  0.34501596991E+02 -0.24063487283E+02  0.55918922388E+02  0.00000000000E+00 0. -1.
          1    1    1    2  502    0 -0.47546489916E+02  0.64145817950E+02  0.99567285238E+03  0.99886925252E+03  0.00000000000E+00 0. -1.
         22    1    3    3    0    0  0.22272763530E+02 -0.26632196978E+02 -0.84302575097E+01  0.35727008730E+02  0.00000000000E+00 0.  1.
         22    1    3    3    0    0 -0.11570734064E+02 -0.72015217963E+02  0.20436133380E+03  0.21698762236E+03  0.00000000000E+00 0.  1.
</event>
<event>
 7    1  0.6597701E-006  0.5670390E+02  0.7818608E-02  0.1479726E+00
          2   -1    0    0  502    0  0.00000000000E+00  0.00000000000E+00  0.15532682171E+03  0.15532682171E+03  0.00000000000E+00 0. -1.
          1   -1    0    0  501    0 -0.00000000000E+00 -0.00000000000E+00 -0.21425322958E+04  0.21425322958E+04  0.00000000000E+00 0. -1.
         25    2    1    2    0    0 -0.89835356921E+02  0.72430334694E+01  0.36292607587E+02  0.15832047220E+03  0.12500146265E+03 0.  0.
          2    1    1    2  501    0  0.55607660096E+02 -0.10408959756E+02 -0.20760078296E+04  0.20767785310E+04  0.00000000000E+00 0. -1.
          1    1    1    2  502    0  0.34227696824E+02  0.31659262863E+01  0.52509747926E+02  0.62760114296E+02  0.00000000000E+00 0. -1.
         22    1    3    3    0    0  0.20770522667E+02 -0.68768837877E+01 -0.23240800530E+02  0.31919288084E+02  0.00000000000E+00 0.  1.
         22    1    3    3    0    0 -0.11060587959E+03  0.14119917257E+02  0.59533408117E+02  0.12640118411E+03  0.00000000000E+00 0.  1.
</event>
<event>
 7    1  0.6597701E-006  0.4089127E+02  0.7818608E-02  0.1516378E+00
          2   -1    0    0  502    0  0.00000000000E+00  0.00000000000E+00  0.11318695794E+04  0.11318695794E+04  0.00000000000E+00 0. -1.
          1   -1    0    0  501    0 -0.00000000000E+00 -0.00000000000E+00 -0.49532541759E+03  0.49532541759E+03  0.00000000000E+00 0. -1.
         25    2    1    2    0    0  0.65130537102E+02  0.22920047793E+02  0.67808521464E+02  0.15807933519E+03  0.12499506060E+03 0.  0.
          2    1    1    2  501    0 -0.24699365746E+02 -0.27585792292E+02 -0.44902123323E+03  0.45054533900E+03  0.00000000000E+00 0. -1.
          1    1    1    2  502    0 -0.40431171355E+02  0.46657444987E+01  0.10177568736E+04  0.10185703228E+04  0.00000000000E+00 0. -1.
         22    1    3    3    0    0 -0.75523092274E+01 -0.40877022297E+02  0.39421718080E+02  0.57289093054E+02  0.00000000000E+00 0. -1.
         22    1    3    3    0    0  0.72682846329E+02  0.63797070090E+02  0.28386803384E+02  0.10079024213E+03  0.00000000000E+00 0. -1.
</event>
<event>
 7    1  0.9213250E-006  0.4405400E+02  0.7818608E-02  0.1482306E+00
          2   -1    0    0  502    0  0.00000000000E+00  0.00000000000E+00  0.24356979357E+04  0.24356979357E+04  0.00000000000E+00 0. -1.
          1   -1    0    0  501    0 -0.00000000000E+00 -0.00000000000E+00 -0.34941889887E+03  0.34941889887E+03  0.00000000000E+00 0. -1.
         25    2    1    2    0    0  0.47784646945E+01  0.31609447298E+02 -0.15785792120E+03  0.20390141785E+03  0.12503869014E+03 0.  0.
          2    1    1    2  501    0 -0.45406084898E+02 -0.16216063658E+02 -0.16489108192E+03  0.17179564070E+03  0.00000000000E+00 0. -1.
          1    1    1    2  502    0  0.40627620203E+02 -0.15393383640E+02  0.24090280399E+04  0.24094197760E+04  0.00000000000E+00 0. -1.
         22    1    3    3    0    0 -0.42176582089E+02 -0.21508766694E+02 -0.10590856212E+03  0.11600911452E+03  0.00000000000E+00 0.  1.
         22    1    3    3    0    0  0.46955046783E+02  0.53118213992E+02 -0.51949359083E+02  0.87892303333E+02  0.00000000000E+00 0.  1.
</event>
<event>
 7    1  0.6597701E-006  0.2420412E+02  0.7818608E-02  0.1697347E+00
          2   -1    0    0  502    0  0.00000000000E+00  0.00000000000E+00  0.21960221289E+04  0.21960221289E+04  0.00000000000E+00 0. -1.
          1   -1    0    0  501    0 -0.00000000000E+00 -0.00000000000E+00 -0.65807436433E+01  0.65807436433E+01  0.00000000000E+00 0. -1.
         25    2    1    2    0    0 -0.36334908897E+01 -0.29774946071E+01  0.12357651005E+04  0.12420799000E+04  0.12500010676E+03 0.  0.
          2    1    1    2  501    0 -0.20996498706E+02 -0.28149062901E+01  0.31272843405E+02  0.37772574574E+02  0.00000000000E+00 0. -1.
          1    1    1    2  502    0  0.24629989596E+02  0.57924008972E+01  0.92240344139E+03  0.92275039798E+03  0.00000000000E+00 0. -1.
         22    1    3    3    0    0 -0.64238968168E+02 -0.20765316359E+00  0.66881339682E+03  0.67189139592E+03  0.00000000000E+00 0. -1.
         22    1    3    3    0    0  0.60605477279E+02 -0.27698414435E+01  0.56695170364E+03  0.57018850406E+03  0.00000000000E+00 0. -1.
</event>
<event>
 7    1  0.6597701E-006  0.2433122E+03  0.7818608E-02  0.1226171E+00
          2   -1    0    0  502    0  0.00000000000E+00  0.00000000000E+00  0.25237016210E+03  0.25237016210E+03  0.00000000000E+00 0. -1.
          1   -1    0    0  501    0 -0.00000000000E+00 -0.00000000000E+00 -0.12441499736E+04  0.12441499736E+04  0.00000000000E+00 0. -1.
         25    2    1    2    0    0 -0.22216176105E+03  0.17867924856E+02  0.37718444881E+02  0.25830754085E+03  0.12499997506E+03 0.  0.
          2    1    1    2  501    0  0.24079551636E+03  0.50011504598E+02 -0.11067239926E+04  0.11337202596E+04  0.00000000000E+00 0. -1.
          1    1    1    2  502    0 -0.18633755306E+02 -0.67879429454E+02  0.77225736240E+02  0.10449233521E+03  0.00000000000E+00 0. -1.
         22    1    3    3    0    0 -0.20272930780E+03  0.57571902709E+02  0.37768512289E+02  0.21410314510E+03  0.00000000000E+00 0. -1.
         22    1    3    3    0    0 -0.19432453253E+02 -0.39703977853E+02 -0.50067408225E-01  0.44204395749E+02  0.00000000000E+00 0. -1.
</event>
<event>
 7    1  0.6597701E-006  0.2882439E+03  0.7818608E-02  0.1172297E+00
          2   -1    0    0  502    0  0.00000000000E+00  0.00000000000E+00  0.76448722379E+03  0.76448722379E+03  0.00000000000E+00 0. -1.
          1   -1    0    0  501    0 -0.00000000000E+00 -0.00000000000E+00 -0.10799513472E+04  0.10799513472E+04  0.00000000000E+00 0. -1.
         25    2    1    2    0    0 -0.22159835363E+03 -0.27290291736E+02  0.40388824467E+03  0.47812327815E+03  0.12500225826E+03 0.  0.
          2    1    1    2  501    0  0.26341221694E+03  0.12553700670E+03 -0.10128256723E+04  0.10540215266E+04  0.00000000000E+00 0. -1.
          1    1    1    2  502    0 -0.41813863301E+02 -0.98246714961E+02  0.29347330420E+03  0.31229376626E+03  0.00000000000E+00 0. -1.
         22    1    3    3    0    0 -0.23300035656E+03 -0.11788114789E+02  0.34757380639E+03  0.41861160602E+03  0.00000000000E+00 0.  1.
         22    1    3    3    0    0  0.11402002926E+02 -0.15502176947E+02  0.56314438275E+02  0.59511672124E+02  0.00000000000E+00 0.  1.
</event>
<event>
 7    1  0.6597701E-006  0.4601658E+02  0.7818608E-02  0.1481098E+00
          2   -1    0    0  502    0  0.00000000000E+00  0.00000000000E+00  0.40566806209E+03  0.40566806209E+03  0.00000000000E+00 0. -1.
          1   -1    0    0  501    0 -0.00000000000E+00 -0.00000000000E+00 -0.12120292311E+03  0.12120292311E+03  0.00000000000E+00 0. -1.
         25    2    1    2    0    0  0.54868995496E+02  0.66124179371E+02  0.88276990917E+02  0.17550189030E+03  0.12500029043E+03 0.  0.
          2    1    1    2  501    0 -0.29787563073E+02 -0.32499491846E+02 -0.69547402612E+02  0.82342923765E+02  0.00000000000E+00 0. -1.
          1    1    1    2  502    0 -0.25081432423E+02 -0.33624687525E+02  0.26573555067E+03  0.26902617113E+03  0.00000000000E+00 0. -1.
         22    1    3    3    0    0  0.85391991789E+02  0.22720984681E+02  0.84569663055E+02  0.12231133764E+03  0.00000000000E+00 0. -1.
         22    1    3    3    0    0 -0.30522996293E+02  0.43403194690E+02  0.37073278623E+01  0.53190552656E+02  0.00000000000E+00 0. -1.
</event>
<event>
 7    1  0.6597701E-006  0.1182155E+03  0.7818608E-02  0.1356661E+00
          2   -1    0    0  502    0  0.00000000000E+00  0.00000000000E+00  0.23103430632E+03  0.23103430632E+03  0.00000000000E+00 0. -1.
          1   -1    0    0  501    0 -0.00000000000E+00 -0.00000000000E+00 -0.26529097333E+03  0.26529097333E+03  0.00000000000E+00 0. -1.
         25    2    1    2    0    0  0.77752103825E+02 -0.17323385925E+02  0.13072880092E+03  0.19763877787E+03  0.12500231109E+03 0.  0.
          2    1    1    2  501    0 -0.11811635329E+03  0.31146967694E+02 -0.20600619724E+03  0.23949981172E+03  0.00000000000E+00 0. -1.
          1    1    1    2  502    0  0.40364249467E+02 -0.13823581770E+02  0.41020729307E+02  0.59186690065E+02  0.00000000000E+00 0. -1.
         22    1    3    3    0    0  0.82646266984E+02 -0.46102484087E+02  0.40737435780E+02  0.10303098155E+03  0.00000000000E+00 0.  1.
         22    1    3    3    0    0 -0.48941631590E+01  0.28779098162E+02  0.89991365144E+02  0.94607796320E+02  0.00000000000E+00 0.  1.
</event>
<event>
 7    1  0.6597701E-006  0.6801996E+02  0.7818608E-02  0.1382743E+00
          2   -1    0    0  502    0  0.00000000000E+00  0.00000000000E+00  0.14449255106E+04  0.14449255106E+04  0.00000000000E+00 0. -1.
          1   -1    0    0  501    0 -0.00000000000E+00 -0.00000000000E+00 -0.11232977155E+03  0.11232977155E+03  0.00000000000E+00 0. -1.
         25    2    1    2    0    0 -0.61076680030E+02  0.57601723613E+02  0.15777871162E+03  0.21810181722E+03  0.12500384564E+03 0.  0.
          2    1    1    2  501    0  0.23312100108E+01 -0.68482130191E+02 -0.67038673993E+02  0.95861465179E+02  0.00000000000E+00 0. -1.
          1    1    1    2  502    0  0.58745470019E+02  0.10880406578E+02  0.12418557014E+04  0.12432919998E+04  0.00000000000E+00 0. -1.
         22    1    3    3    0    0 -0.23564690105E+02 -0.25117839080E+02  0.11042434138E+03  0.11567080716E+03  0.00000000000E+00 0.  1.
         22    1    3    3    0    0 -0.37511989925E+02  0.82719562693E+02  0.47354370245E+02  0.10243101006E+03  0.00000000000E+00 0.  1.
</event>
<event>
 7    1  0.6597701E-006  0.1858996E+03  0.7818608E-02  0.1245279E+00
          2   -1    0    0  502    0  0.00000000000E+00  0.00000000000E+00  0.76838258134E+03  0.76838258134E+03  0.00000000000E+00 0. -1.
          1   -1    0    0  501    0 -0.00000000000E+00 -0.00000000000E+00 -0.12316092720E+04  0.12316092720E+04  0.00000000000E+00 0. -1.
         25    2    1    2    0    0  0.18519802890E+03 -0.18312498917E+03 -0.71327444663E+03  0.76955766111E+03  0.12500194395E+03 0.  0.
          2    1    1    2  501    0 -0.52008859828E+02  0.55108626891E+02 -0.47562132427E+03  0.48161969059E+03  0.00000000000E+00 0. -1.
          1    1    1    2  502    0 -0.13318916907E+03  0.12801636228E+03  0.72566908027E+03  0.74881450161E+03  0.00000000000E+00 0. -1.
         22    1    3    3    0    0  0.18059888314E+03 -0.17380453515E+03 -0.71617331970E+03  0.75876755128E+03  0.00000000000E+00 0. -1.
         22    1    3    3    0    0  0.45991457661E+01 -0.93204540174E+01  0.28988730758E+01  0.10790109822E+02  0.00000000000E+00 0. -1.
</event>
<event>
 7    1  0.6597701E-006  0.1313954E+03  0.7818608E-02  0.1235519E+00
          2   -1    0    0  502    0  0.00000000000E+00  0.00000000000E+00  0.22608069990E+03  0.22608069990E+03  0.00000000000E+00 0. -1.
          1   -1    0    0  501    0 -0.00000000000E+00 -0.00000000000E+00 -0.79470758654E+03  0.79470758654E+03  0.00000000000E+00 0. -1.
         25    2    1    2    0    0  0.15143500773E+02 -0.42358334945E+02 -0.63463221215E+02  0.14723114611E+03  0.12500350308E+03 0.  0.
          2    1    1    2  501    0 -0.11481479802E+03 -0.63892885634E+02 -0.65294876906E+03  0.66603816234E+03  0.00000000000E+00 0. -1.
          1    1    1    2  502    0  0.99671297246E+02  0.10625122058E+03  0.14778510364E+03  0.20751897799E+03  0.00000000000E+00 0. -1.
         22    1    3    3    0    0 -0.86418732810E+01 -0.24708475066E+01  0.36189166808E+02  0.37288642446E+02  0.00000000000E+00 0.  1.
         22    1    3    3    0    0  0.23785374054E+02 -0.39887487438E+02 -0.99652388023E+02  0.10994250366E+03  0.00000000000E+00 0.  1.
</event>
<event>
 7    1  0.6597701E-006  0.3280093E+02  0.7818608E-02  0.1576702E+00
          2   -1    0    0  502    0  0.00000000000E+00  0.00000000000E+00  0.21038817221E+03  0.21038817221E+03  0.00000000000E+00 0. -1.
          1   -1    0    0  501    0 -0.00000000000E+00 -0.00000000000E+00 -0.20497191735E+04  0.20497191735E+04  0.00000000000E+00 0. -1.
         25    2    1    2    0    0  0.45991087183E+01 -0.43297716550E+02 -0.96784077271E+01  0.13270131257E+03  0.12498048937E+03 0.  0.
          2    1    1    2  501    0  0.21214412040E+02  0.22976055135E+02 -0.19765917040E+04  0.19768390715E+04  0.00000000000E+00 0. -1.
          1    1    1    2  502    0 -0.25813520758E+02  0.20321661415E+02  0.14693911040E+03  0.15056696165E+03  0.00000000000E+00 0. -1.
         22    1    3    3    0    0  0.63305282947E+02 -0.24275058543E+02 -0.18706274840E+02  0.70333221416E+02  0.00000000000E+00 0.  1.
         22    1    3    3    0    0 -0.58706174229E+02 -0.19022658007E+02  0.90278671126E+01  0.62368091159E+02  0.00000000000E+00 0.  1.
</event>
<event>
 7    1  0.6597701E-006  0.3768257E+02  0.7818608E-02  0.1527568E+00
          2   -1    0    0  502    0  0.00000000000E+00  0.00000000000E+00  0.19633319279E+04  0.19633319279E+04  0.00000000000E+00 0. -1.
          1   -1    0    0  501    0 -0.00000000000E+00 -0.00000000000E+00 -0.97581907664E+01  0.97581907664E+01  0.00000000000E+00 0. -1.
         25    2    1    2    0    0  0.91758838868E+01 -0.24790664168E+02  0.69305732883E+03  0.70473546909E+03  0.12499938586E+03 0.  0.
          2    1    1    2  501    0 -0.37201775160E+02 -0.25808142113E+01  0.93235810832E+02  0.10041687656E+03  0.00000000000E+00 0. -1.
          1    1    1    2  502    0  0.28025891274E+02  0.27371478379E+02  0.11672805975E+04  0.11679377730E+04  0.00000000000E+00 0. -1.
         22    1    3    3    0    0  0.40133354584E+02  0.44613227142E+01  0.74722637439E+02  0.84935635021E+02  0.00000000000E+00 0. -1.
         22    1    3    3    0    0 -0.30957470697E+02 -0.29251986882E+02  0.61833469139E+03  0.61979983406E+03  0.00000000000E+00 0. -1.
</event>
<event>
 7    1  0.6597701E-006  0.1038043E+03  0.7818608E-02  0.1389857E+00
          2   -1    0    0  502    0  0.00000000000E+00  0.00000000000E+00  0.12713494323E+04  0.12713494323E+04  0.00000000000E+00 0. -1.
          1   -1    0    0  501    0 -0.00000000000E+00 -0.00000000000E+00 -0.16728266106E+04  0.16728266106E+04  0.00000000000E+00 0. -1.
         25    2    1    2    0    0  0.24505653486E+02  0.79296112601E+02 -0.14629943941E+02  0.15075915553E+03  0.12500354871E+03 0.  0.
          2    1    1    2  501    0 -0.61067872041E+02 -0.84720505334E+02 -0.15881327260E+04  0.15915628811E+04  0.00000000000E+00 0. -1.
          1    1    1    2  502    0  0.36562218554E+02  0.54243927339E+01  0.12012854917E+04  0.12018540063E+04  0.00000000000E+00 0. -1.
         22    1    3    3    0    0  0.13107090870E+02 -0.33864807679E+02 -0.38035109617E+01  0.36511473893E+02  0.00000000000E+00 0. -1.
         22    1    3    3    0    0  0.11398562616E+02  0.11316092028E+03 -0.10826432979E+02  0.11424768164E+03  0.00000000000E+00 0. -1.
</event>
<event>
 7    1  0.6597701E-006  0.7109231E+02  0.7818608E-02  0.1455463E+00
          2   -1    0    0  502    0  0.00000000000E+00  0.00000000000E+00  0.18851479943E+04  0.18851479943E+04  0.00000000000E+00 0. -1.
          1   -1    0    0  501    0 -0.00000000000E+00 -0.00000000000E+00 -0.40511215943E+02  0.40511215943E+02  0.00000000000E+00 0. -1.
         25    2    1    2    0    0 -0.18146698478E+02  0.75651087578E+02  0.92746878779E+03  0.93908202061E+03  0.12499719752E+03 0.  0.
          2    1    1    2  501    0  0.44058760346E+02 -0.55803190636E+02  0.23101190589E+01  0.71137241291E+02  0.00000000000E+00 0. -1.
          1    1    1    2  502    0 -0.25912061868E+02 -0.19847896942E+02  0.91485787151E+03  0.91543994835E+03  0.00000000000E+00 0. -1.
         22    1    3    3    0    0 -0.63906798597E+01 -0.11430645086E+02  0.59659688963E+03  0.59674060458E+03  0.00000000000E+00 0.  1.
         22    1    3    3    0    0 -0.11756018618E+02  0.87081732664E+02  0.33087189816E+03  0.34234141603E+03  0.00000000000E+00 0.  1.
</event>
<event>
 7    1  0.6597701E-006  0.1474752E+03  0.7818608E-02  0.1399551E+00
          2   -1    0    0  502    0  0.00000000000E+00  0.00000000000E+00  0.44815717554E+03  0.44815717554E+03  0.00000000000E+00 0. -1.
          1   -1    0    0  501    0 -0.00000000000E+00 -0.00000000000E+00 -0.42512058266E+03  0.42512058266E+03  0.00000000000E+00 0. -1.
         25    2    1    2    0    0 -0.10078011850E+03  0.12379962547E+03  0.19808820906E+03  0.28345584953E+03  0.12500120205E+03 0.  0.
          2    1    1    2  501    0  0.10702036739E+03 -0.10054194867E+03 -0.36756379896E+03  0.39580953599E+03  0.00000000000E+00 0. -1.
          1    1    1    2  502    0 -0.62402488941E+01 -0.23257676797E+02  0.19251218278E+03  0.19401237268E+03  0.00000000000E+00 0. -1.
         22    1    3    3    0    0 -0.72562308741E+01  0.91823183769E+02  0.14357248369E+03  0.17057903751E+03  0.00000000000E+00 0.  1.
         22    1    3    3    0    0 -0.93523887624E+02  0.31976441699E+02  0.54515725371E+02  0.11287681202E+03  0.00000000000E+00 0.  1.
</event>
<event>
 7    1  0.6597701E-006  0.2134130E+03  0.7818608E-02  0.1352996E+00
          2   -1    0    0  502    0  0.00000000000E+00  0.00000000000E+00  0.10008014291E+04  0.10008014291E+04  0.00000000000E+00 0. -1.
          1   -1    0    0  501    0 -0.00000000000E+00 -0.00000000000E+00 -0.15642388542E+04  0.15642388542E+04  0.00000000000E+00 0. -1.
         25    2    1    2    0    0  0.94770680961E+02 -0.20073504986E+03 -0.13013752830E+03  0.28607125810E+03  0.12499978490E+03 0.  0.
          2    1    1    2  501    0 -0.24377248411E+02 -0.26918531504E+00 -0.13437347571E+04  0.13439558847E+04  0.00000000000E+00 0. -1.
          1    1    1    2  502    0 -0.70393432549E+02  0.20100423517E+03  0.91043486034E+03  0.93501314045E+03  0.00000000000E+00 0. -1.
         22    1    3    3    0    0  0.65559293201E+02 -0.16079522185E+02 -0.40751262133E+02  0.78849459884E+02  0.00000000000E+00 0.  1.
         22    1    3    3    0    0  0.29211387760E+02 -0.18465552767E+03 -0.89386266169E+02  0.20722179821E+03  0.00000000000E+00 0.  1.
</event>
<event>
 7    1  0.6597701E-006  0.7564325E+02  0.7818608E-02  0.1377395E+00
          2   -1    0    0  502    0  0.00000000000E+00  0.00000000000E+00  0.12570817862E+04  0.12570817862E+04  0.00000000000E+00 0. -1.
          1   -1    0    0  501    0 -0.00000000000E+00 -0.00000000000E+00 -0.25070555336E+03  0.25070555336E+03  0.00000000000E+00 0. -1.
         25    2    1    2    0    0  0.11368174728E+03 -0.56026676464E+02  0.29084931239E+03  0.34099888503E+03  0.12499755570E+03 0.  0.
          2    1    1    2  501    0 -0.43978210321E+02  0.34859606191E+02 -0.22070445525E+03  0.22772731873E+03  0.00000000000E+00 0. -1.
          1    1    1    2  502    0 -0.69703536960E+02  0.21167070272E+02  0.93623137573E+03  0.93906113584E+03  0.00000000000E+00 0. -1.
         22    1    3    3    0    0 -0.53325964710E+00 -0.28502436152E+02  0.13164555162E+01  0.28537804534E+02  0.00000000000E+00 0. -1.
         22    1    3    3    0    0  0.11421500693E+03 -0.27524240311E+02  0.28953285687E+03  0.31246108049E+03  0.00000000000E+00 0. -1.
</event>
<event>
 7    1  0.6597701E-006  0.1039919E+03  0.7818608E-02  0.1336475E+00
          2   -1    0    0  502    0  0.00000000000E+00  0.00000000000E+00  0.17656690417E+04  0.17656690417E+04  0.00000000000E+00 0. -1.
          1   -1    0    0  501    0 -0.00000000000E+00 -0.00000000000E+00 -0.19882998737E+04  0.19882998737E+04  0.00000000000E+00 0. -1.
         25    2    1    2    0    0  0.18261045708E+02 -0.58536530447E+02  0.55722942090E+03  0.57436115773E+03  0.12500448313E+03 0.  0.
          2    1    1    2  501    0  0.19281636749E+02  0.10231150263E+03 -0.19776710083E+04  0.19804095643E+04  0.00000000000E+00 0. -1.
          1    1    1    2  502    0 -0.37542682457E+02 -0.43774972183E+02  0.11978107555E+04  0.11991981934E+04  0.00000000000E+00 0. -1.
         22    1    3    3    0    0  0.39997031121E+02 -0.62033580017E+02  0.54333996971E+03  0.54833042067E+03  0.00000000000E+00 0. -1.
         22    1    3    3    0    0 -0.21735985413E+02  0.34970495696E+01  0.13889451197E+02  0.26030737064E+02  0.00000000000E+00 0. -1.
</event>
<event>
 7    1  0.6597701E-006  0.5944044E+02  0.7818608E-02  0.1451156E+00
          2   -1    0    0  502    0  0.00000000000E+00  0.00000000000E+00  0.31298722899E+04  0.31298722899E+04  0.00000000000E+00 0. -1.
          1   -1    0    0  501    0 -0.00000000000E+00 -0.00000000000E+00 -0.12992748368E+02  0.12992748368E+02  0.00000000000E+00 0. -1.
         25    2    1    2    0    0  0.70182242748E+02  0.44916624212E+02  0.17130472713E+04  0.17196220257E+04  0.12500362837E+03 0.  0.
          2    1    1    2  501    0 -0.58243592754E+02 -0.64351533678E+01  0.81939369146E+02  0.10073622740E+03  0.00000000000E+00 0. -1.
          1    1    1    2  502    0 -0.11938649994E+02 -0.38481470844E+02  0.13218929011E+04  0.13225067852E+04  0.00000000000E+00 0. -1.
         22    1    3    3    0    0  0.10083701823E+03  0.25362720335E+02  0.94265780747E+03  0.94837498586E+03  0.00000000000E+00 0. -1.
         22    1    3    3    0    0 -0.30654775482E+02  0.19553903876E+02  0.77038946382E+03  0.77124703979E+03  0.00000000000E+00 0. -1.
</event>
<event>
 7    1  0.6597701E-006  0.8730464E+02  0.7818608E-02  0.1340654E+00
          2   -1    0    0  502    0  0.00000000000E+00  0.00000000000E+00  0.65444251670E+03  0.65444251670E+03  0.00000000000E+00 0. -1.
          1   -1    0    0  501    0 -0.00000000000E+00 -0.00000000000E+00 -0.13024496196E+04  0.13024496196E+04  0.00000000000E+00 0. -1.
         25    2    1    2    0    0 -0.24900522458E+01  0.58596133909E+02 -0.70383566771E+03  0.71725260091E+03  0.12500775618E+03 0.  0.
          2    1    1    2  501    0  0.66230107160E+02  0.13620386812E+01 -0.58707857457E+03  0.59080414264E+03  0.00000000000E+00 0. -1.
          1    1    1    2  502    0 -0.63740054914E+02 -0.59958172591E+02  0.64290713937E+03  0.64883539277E+03  0.00000000000E+00 0. -1.
         22    1    3    3    0    0 -0.28913895949E+02 -0.11445681508E+02 -0.48443642870E+03  0.48543348716E+03  0.00000000000E+00 0. -1.
         22    1    3    3    0    0  0.26423843703E+02  0.70041815418E+02 -0.21939923901E+03  0.23181911375E+03  0.00000000000E+00 0. -1.
</event>
<event>
 7    1  0.6597701E-006  0.3765260E+02  0.7818608E-02  0.1597620E+00
          2   -1    0    0  502    0  0.00000000000E+00  0.00000000000E+00  0.10771966475E+04  0.10771966475E+04  0.00000000000E+00 0. -1.
          1   -1    0    0  501    0 -0.00000000000E+00 -0.00000000000E+00 -0.53181139561E+02  0.53181139561E+02  0.00000000000E+00 0. -1.
         25    2    1    2    0    0  0.97846932578E+01 -0.23938634452E+02  0.52682718035E+03  0.54207064066E+03  0.12499961229E+03 0.  0.
          2    1    1    2  501    0  0.23704422829E+02  0.35606777690E+01 -0.41644369296E+02  0.48050302620E+02  0.00000000000E+00 0. -1.
          1    1    1    2  502    0 -0.33489116087E+02  0.20377956683E+02  0.53883269691E+03  0.54025684380E+03  0.00000000000E+00 0. -1.
         22    1    3    3    0    0  0.91823749306E+01  0.46516346280E+02  0.11719010666E+03  0.12641838308E+03  0.00000000000E+00 0.  1.
         22    1    3    3    0    0  0.60231832711E+00 -0.70454980732E+02  0.40963707369E+03  0.41565225759E+03  0.00000000000E+00 0.  1.
</event>
<event>
 7    1  0.1120693E-005  0.1550188E+03  0.7818608E-02  0.1286440E+00
          2   -1    0    0  502    0  0.00000000000E+00  0.00000000000E+00  0.12465222666E+04  0.12465222666E+04  0.00000000000E+00 0. -1.
          1   -1    0    0  501    0 -0.00000000000E+00 -0.00000000000E+00 -0.17251340583E+04  0.17251340583E+04  0.00000000000E+00 0. -1.
         25    2    1    2    0    0  0.99349283605E+01  0.95258538752E+02 -0.44473647526E+03  0.47179462371E+03  0.12500696992E+03 0.  0.
          2    1    1    2  501    0  0.19934580295E+02  0.57507030079E+02 -0.12612189700E+04  0.12626867134E+04  0.00000000000E+00 0. -1.
          1    1    1    2  502    0 -0.29869508655E+02 -0.15276556883E+03  0.12273436536E+04  0.12371749878E+04  0.00000000000E+00 0. -1.
         22    1    3    3    0    0 -0.20133170393E+02  0.11800815130E+03 -0.34373487324E+03  0.36398479556E+03  0.00000000000E+00 0.  1.
         22    1    3    3    0    0  0.30068098753E+02 -0.22749612546E+02 -0.10100160202E+03  0.10780982815E+03  0.00000000000E+00 0.  1.
</event>
<event>
 7    1  0.6597701E-006  0.1570731E+03  0.7818608E-02  0.1242891E+00
          2   -1    0    0  502    0  0.00000000000E+00  0.00000000000E+00  0.42034725729E+04  0.42034725729E+04  0.00000000000E+00 0. -1.
          1   -1    0    0  501    0 -0.00000000000E+00 -0.00000000000E+00 -0.86440657845E+02  0.86440657845E+02  0.00000000000E+00 0. -1.
         25    2    1    2    0    0 -0.89507338499E+02 -0.20242120062E+03  0.12833889443E+04  0.13083198249E+04  0.12501070253E+03 0.  0.
          2    1    1    2  501    0 -0.91629674276E+01  0.91410325345E+02 -0.42778453491E+02  0.10134003964E+03  0.00000000000E+00 0. -1.
          1    1    1    2  502    0  0.98670305927E+02  0.11101087527E+03  0.28764214243E+04  0.28802533663E+04  0.00000000000E+00 0. -1.
         22    1    3    3    0    0  0.85176262851E+01 -0.19959631302E+02  0.25464605175E+02  0.33457180933E+02  0.00000000000E+00 0.  1.
         22    1    3    3    0    0 -0.98024964784E+02 -0.18246156932E+03  0.12579243391E+04  0.12748626439E+04  0.00000000000E+00 0.  1.
</event>
<event>
 7    1  0.6597701E-006  0.2215379E+03  0.7818608E-02  0.1206508E+00
          2   -1    0    0  502    0  0.00000000000E+00  0.00000000000E+00  0.23133668434E+03  0.23133668434E+03  0.00000000000E+00 0. -1.
          1   -1    0    0  501    0 -0.00000000000E+00 -0.00000000000E+00 -0.93874261371E+03  0.93874261371E+03  0.00000000000E+00 0. -1.
         25    2    1    2    0    0  0.12722528180E+03  0.14772734732E+03 -0.34014104767E+03  0.41149861819E+03  0.12500215595E+03 0.  0.
          2    1    1    2  501    0 -0.21805460521E+03 -0.11935593662E+03 -0.52129308454E+03  0.57752933298E+03  0.00000000000E+00 0. -1.
          1    1    1    2  502    0  0.90829323410E+02 -0.28371410694E+02  0.15402820284E+03  0.18105134688E+03  0.00000000000E+00 0. -1.
         22    1    3    3    0    0  0.56953089760E+02  0.26405597834E+02 -0.21360075996E+03  0.22263466641E+03  0.00000000000E+00 0. -1.
         22    1    3    3    0    0  0.70272192037E+02  0.12132174949E+03 -0.12654028771E+03  0.18886395179E+03  0.00000000000E+00 0. -1.
</event>
<event>
 7    1  0.7879057E-006  0.1218560E+03  0.7818608E-02  0.1400074E+00
          2   -1    0    0  502    0  0.00000000000E+00  0.00000000000E+00  0.25004333363E+04  0.25004333363E+04  0.00000000000E+00 0. -1.
          1   -1    0    0  501    0 -0.00000000000E+00 -0.00000000000E+00 -0.28752483794E+04  0.28752483794E+04  0.00000000000E+00 0. -1.
         25    2    1    2    0    0  0.11184534911E+03 -0.84316164086E+02 -0.13587895896E+04  0.13716970810E+04  0.12500054234E+03 0.  0.
          2    1    1    2  501    0 -0.28641273357E+02 -0.46876502137E+01 -0.15083773275E+04  0.15086565078E+04  0.00000000000E+00 0. -1.
          1    1    1    2  502    0 -0.83204075755E+02  0.89003814300E+02  0.24923518739E+04  0.24953281268E+04  0.00000000000E+00 0. -1.
         22    1    3    3    0    0  0.80168961212E+02 -0.11646425502E+03 -0.95870306685E+03  0.96907303926E+03  0.00000000000E+00 0.  1.
         22    1    3    3    0    0  0.31676387900E+02  0.32148090937E+02 -0.40008652277E+03  0.40262404176E+03  0.00000000000E+00 0.  1.
</event>
<event>
 7    1  0.6597701E-006  0.9715346E+02  0.7818608E-02  0.1363152E+00
          2   -1    0    0  502    0  0.00000000000E+00  0.00000000000E+00  0.12400034335E+04  0.12400034335E+04  0.00000000000E+00 0. -1.
          1   -1    0    0  501    0 -0.00000000000E+00 -0.00000000000E+00 -0.10149219011E+03  0.10149219011E+03  0.00000000000E+00 0. -1.
         25    2    1    2    0    0 -0.36075620337E+02 -0.89750716256E+02  0.17236283649E+03  0.23387182710E+03  0.12502176874E+03 0.  0.
          2    1    1    2  501    0  0.76914038389E+02  0.62386143582E+02 -0.35174126464E+02  0.10509528717E+03  0.00000000000E+00 0. -1.
          1    1    1    2  502    0 -0.40838418052E+02  0.27364572674E+02  0.10013225334E+04  0.10025285094E+04  0.00000000000E+00 0. -1.
         22    1    3    3    0    0  0.10730034163E+01 -0.11162401125E+03  0.10122138191E+03  0.15068788730E+03  0.00000000000E+00 0.  1.
         22    1    3    3    0    0 -0.37148623753E+02  0.21873294999E+02  0.71141454582E+02  0.83183939802E+02  0.00000000000E+00 0.  1.
</event>
<event>
 7    1  0.6597701E-006  0.3293970E+02  0.7818608E-02  0.1598826E+00
          2   -1    0    0  502    0  0.00000000000E+00  0.00000000000E+00  0.48572254305E+03  0.48572254305E+03  0.00000000000E+00 0. -1.
          1   -1    0    0  501    0 -0.00000000000E+00 -0.00000000000E+00 -0.12776693265E+03  0.12776693265E+03  0.00000000000E+00 0. -1.
         25    2    1    2    0    0 -0.15363224290E+02  0.15176564877E+02  0.44906947379E+02  0.13456788742E+03  0.12500210246E+03 0.  0.
          2    1    1    2  501    0  0.20696468187E+02  0.17651560576E+02 -0.79984697663E+02  0.84483567908E+02  0.00000000000E+00 0. -1.
          1    1    1    2  502    0 -0.53332438972E+01 -0.32828125454E+02  0.39303336068E+03  0.39443802037E+03  0.00000000000E+00 0. -1.
         22    1    3    3    0    0  0.50543995603E+02 -0.69430093717E+01 -0.13989571572E+01  0.51037809041E+02  0.00000000000E+00 0.  1.
         22    1    3    3    0    0 -0.65907219893E+02  0.22119574249E+02  0.46305904536E+02  0.83530078378E+02  0.00000000000E+00 0.  1.
</event>
<event>
 7    1  0.6597701E-006  0.7726255E+02  0.7818608E-02  0.1451594E+00
          2   -1    0    0  502    0  0.00000000000E+00  0.00000000000E+00  0.55762611883E+03  0.55762611883E+03  0.00000000000E+00 0. -1.
          1   -1    0    0  501    0 -0.00000000000E+00 -0.00000000000E+00 -0.86243066534E+02  0.86243066534E+02  0.00000000000E+00 0. -1.
         25    2    1    2    0    0  0.41297620113E+02 -0.71131444413E+02  0.12488616787E+03  0.19490280379E+03  0.12500148874E+03 0.  0.
          2    1    1    2  501    0 -0.10871373946E+02  0.76506226527E+02 -0.21075875399E+02  0.80097328250E+02  0.00000000000E+00 0. -1.
          1    1    1    2  502    0 -0.30426246167E+02 -0.53747821144E+01  0.36757275982E+03  0.36886905332E+03  0.00000000000E+00 0. -1.
         22    1    3    3    0    0  0.35584654433E+02 -0.73616006068E+02  0.12939515456E+02  0.82782939310E+02  0.00000000000E+00 0. -1.
         22    1    3    3    0    0  0.57129656795E+01  0.24845616545E+01  0.11194665242E+03  0.11211986448E+03  0.00000000000E+00 0. -1.
</event>
<event>
 7    1  0.6597701E-006  0.8757967E+02  0.7818608E-02  0.1405517E+00
          2   -1    0    0  502    0  0.00000000000E+00  0.00000000000E+00  0.62029095265E+03  0.62029095265E+03  0.00000000000E+00 0. -1.
          1   -1    0    0  501    0 -0.00000000000E+00 -0.00000000000E+00 -0.26374879929E+03  0.26374879929E+03  0.00000000000E+00 0. -1.
         25    2    1    2    0    0  0.10785378686E+03 -0.56896453172E+02  0.12232285088E+03  0.21320972806E+03  0.12500345022E+03 0.  0.
          2    1    1    2  501    0 -0.29425023038E+02  0.25112878395E+02 -0.21258824379E+03  0.21607926796E+03  0.00000000000E+00 0. -1.
          1    1    1    2  502    0 -0.78428763823E+02  0.31783574776E+02  0.44680754626E+03  0.45475075593E+03  0.00000000000E+00 0. -1.
         22    1    3    3    0    0  0.51425125954E+02  0.36025358943E+02  0.25985966265E+02  0.67953222948E+02  0.00000000000E+00 0.  1.
         22    1    3    3    0    0  0.56428660907E+02 -0.92921812114E+02  0.96336884618E+02  0.14525650511E+03  0.00000000000E+00 0.  1.
</event>
<event>
 7    1  0.6597701E-006  0.2074651E+03  0.7818608E-02  0.1325928E+00
          2   -1    0    0  502    0  0.00000000000E+00  0.00000000000E+00  0.62399038172E+03  0.62399038172E+03  0.00000000000E+00 0. -1.
          1   -1    0    0  501    0 -0.00000000000E+00 -0.00000000000E+00 -0.21643333433E+03  0.21643333433E+03  0.00000000000E+00 0. -1.
         25    2    1    2    0    0  0.22482556467E+03 -0.68712114366E+02 -0.24849908806E+02  0.26741622903E+03  0.12500412950E+03 0.  0.
          2    1    1    2  501    0 -0.31047453919E+02  0.64547225446E+01 -0.44408528110E+02  0.54568536785E+02  0.00000000000E+00 0. -1.
          1    1    1    2  502    0 -0.19377811075E+03  0.62257391821E+02  0.47681548431E+03  0.51843895023E+03  0.00000000000E+00 0. -1.
         22    1    3    3    0    0  0.22126457995E+03 -0.37447410056E+02  0.44002889372E+01  0.22445419444E+03  0.00000000000E+00 0. -1.
         22    1    3    3    0    0  0.35609847179E+01 -0.31264704310E+02 -0.29250197743E+02  0.42962034586E+02  0.00000000000E+00 0. -1.
</event>
<event>
 7    1  0.6597701E-006  0.2620329E+03  0.7818608E-02  0.1231959E+00
          2   -1    0    0  502    0  0.00000000000E+00  0.00000000000E+00  0.11812707028E+04  0.11812707028E+04  0.00000000000E+00 0. -1.
          1   -1    0    0  501    0 -0.00000000000E+00 -0.00000000000E+00 -0.12885095876E+04  0.12885095876E+04  0.00000000000E+00 0. -1.
         25    2    1    2    0    0  0.63636425220E+02 -0.19662787210E+03  0.12234968815E+03  0.27074965763E+03  0.12499526478E+03 0.  0.
          2    1    1    2  501    0 -0.64750817206E+02  0.25818196314E+03 -0.11987345420E+04  0.12279312263E+04  0.00000000000E+00 0. -1.
          1    1    1    2  502    0  0.11143919855E+01 -0.61554091037E+02  0.96914596902E+03  0.97109940647E+03  0.00000000000E+00 0. -1.
         22    1    3    3    0    0  0.92668954600E+02 -0.15751654991E+03  0.61540614229E+02  0.19283735593E+03  0.00000000000E+00 0.  1.
         22    1    3    3    0    0 -0.29032529380E+02 -0.39111322189E+02  0.60809073918E+02  0.77912301701E+02  0.00000000000E+00 0.  1.
</event>
<event>
 7    1  0.6597701E-006  0.7550709E+02  0.7818608E-02  0.1439356E+00
          2   -1    0    0  502    0  0.00000000000E+00  0.00000000000E+00  0.15910959368E+04  0.15910959368E+04  0.00000000000E+00 0. -1.
          1   -1    0    0  501    0 -0.00000000000E+00 -0.00000000000E+00 -0.34028760076E+03  0.34028760076E+03  0.00000000000E+00 0. -1.
         25    2    1    2    0    0 -0.83166792831E+02  0.37559396851E+02 -0.11955337037E+03  0.19556397065E+03  0.12499933812E+03 0.  0.
          2    1    1    2  501    0  0.51731229213E+02 -0.52060216088E+02 -0.17515790019E+03  0.18991228547E+03  0.00000000000E+00 0. -1.
          1    1    1    2  502    0  0.31435563618E+02  0.14500819238E+02  0.15455196066E+04  0.15459072814E+04  0.00000000000E+00 0. -1.
         22    1    3    3    0    0 -0.63308606151E+01 -0.27347105088E+02  0.11523513725E+02  0.30343620769E+02  0.00000000000E+00 0. -1.
         22    1    3    3    0    0 -0.76835932216E+02  0.64906501938E+02 -0.13107688409E+03  0.16522034989E+03  0.00000000000E+00 0. -1.
</event>
<event>
 7    1  0.6597701E-006  0.1140007E+03  0.7818608E-02  0.1340378E+00
          2   -1    0    0  502    0  0.00000000000E+00  0.00000000000E+00  0.29020186086E+04  0.29020186086E+04  0.00000000000E+00 0. -1.
          1   -1    0    0  501    0 -0.00000000000E+00 -0.00000000000E+00 -0.17532943689E+03  0.17532943689E+03  0.00000000000E+00 0. -1.
         25    2    1    2    0    0 -0.85288958635E+00 -0.64485600995E+02  0.24392641083E+02  0.14274815323E+03  0.12499165635E+03 0.  0.
          2    1    1    2  501    0 -0.86892568955E+01 -0.50104695212E+02 -0.10935367766E+03  0.12059938012E+03  0.00000000000E+00 0. -1.
          1    1    1    2  502    0  0.95421464818E+01  0.11459029621E+03  0.28116502082E+04  0.28140005121E+04  0.00000000000E+00 0. -1.
         22    1    3    3    0    0  0.35778839240E+02 -0.88332839165E+02  0.65243702240E+01  0.95526871712E+02  0.00000000000E+00 0.  1.
         22    1    3    3    0    0 -0.36631728826E+02  0.23847238170E+02  0.17868270859E+02  0.47221281523E+02  0.00000000000E+00 0.  1.
</event>
<event>
 7    1  0.6597701E-006  0.1082944E+03  0.7818608E-02  0.1289085E+00
          2   -1    0    0  502    0  0.00000000000E+00  0.00000000000E+00  0.12701701510E+04  0.12701701510E+04  0.00000000000E+00 0. -1.
          1   -1    0    0  501    0 -0.00000000000E+00 -0.00000000000E+00 -0.54361336781E+03  0.54361336781E+03  0.00000000000E+00 0. -1.
         25    2    1    2    0    0  0.24398524213E+02 -0.13489306472E+03  0.41331162686E+02  0.19006532283E+03  0.12500054016E+03 0.  0.
          2    1    1    2  501    0 -0.81148126445E+02  0.71632165436E+02 -0.46141072648E+03  0.47393675112E+03  0.00000000000E+00 0. -1.
          1    1    1    2  502    0  0.56749602232E+02  0.63260899286E+02  0.11466363469E+04  0.11497814448E+04  0.00000000000E+00 0. -1.
         22    1    3    3    0    0 -0.77643372056E+01  0.11459754472E+02  0.37716565655E+02  0.40176488518E+02  0.00000000000E+00 0.  1.
         22    1    3    3    0    0  0.32162861418E+02 -0.14635281919E+03  0.36145970314E+01  0.14988883432E+03  0.00000000000E+00 0.  1.
</event>
<event>
 7    1  0.6597701E-006  0.2177655E+03  0.7818608E-02  0.1350642E+00
          2   -1    0    0  502    0  0.00000000000E+00  0.00000000000E+00  0.99454738189E+03  0.99454738189E+03  0.00000000000E+00 0. -1.
          1   -1    0    0  501    0 -0.00000000000E+00 -0.00000000000E+00 -0.84413319024E+03  0.84413319024E+03  0.00000000000E+00 0. -1.
         25    2    1    2    0    0  0.17120614814E+02 -0.20395089390E+03 -0.14911661690E+03  0.28240031641E+03  0.12500036281E+03 0.  0.
          2    1    1    2  501    0 -0.19492064341E+02 -0.14635166933E+02 -0.61525549689E+03  0.61573813844E+03  0.00000000000E+00 0. -1.
          1    1    1    2  502    0  0.23714495271E+01  0.21858606083E+03  0.91478630544E+03  0.94054211728E+03  0.00000000000E+00 0. -1.
         22    1    3    3    0    0 -0.35398456686E+02 -0.14776718989E+03 -0.13690894121E+03  0.20452934099E+03  0.00000000000E+00 0.  1.
         22    1    3    3    0    0  0.52519071500E+02 -0.56183704006E+02 -0.12207675689E+02  0.77870975420E+02  0.00000000000E+00 0.  1.
</event>
<event>
 7    1  0.6597701E-006  0.6835164E+02  0.7818608E-02  0.1432690E+00
          2   -1    0    0  502    0  0.00000000000E+00  0.00000000000E+00  0.10664054649E+03  0.10664054649E+03  0.00000000000E+00 0. -1.
          1   -1    0    0  501    0 -0.00000000000E+00 -0.00000000000E+00 -0.15840499688E+04  0.15840499688E+04  0.00000000000E+00 0. -1.
         25    2    1    2    0    0 -0.50239801929E+01 -0.34289143510E+02 -0.23938727883E+03  0.27227715760E+03  0.12501038177E+03 0.  0.
          2    1    1    2  501    0  0.34999334212E+02  0.61087247150E+02 -0.13227536370E+04  0.13246259054E+04  0.00000000000E+00 0. -1.
          1    1    1    2  502    0 -0.29975354019E+02 -0.26798103640E+02  0.84731493515E+02  0.93787452255E+02  0.00000000000E+00 0. -1.
         22    1    3    3    0    0 -0.58522711375E+02 -0.42911434212E+02 -0.16492078381E+03  0.18018091981E+03  0.00000000000E+00 0. -1.
         22    1    3    3    0    0  0.53498731182E+02  0.86222907020E+01 -0.74466495022E+02  0.92096237794E+02  0.00000000000E+00 0. -1.
</event>
<event>
 7    1  0.6597701E-006  0.9200721E+02  0.7818608E-02  0.1348769E+00
          2   -1    0    0  502    0  0.00000000000E+00  0.00000000000E+00  0.99986723559E+03  0.99986723559E+03  0.00000000000E+00 0. -1.
          1   -1    0    0  501    0 -0.00000000000E+00 -0.00000000000E+00 -0.11770392236E+03  0.11770392236E+03  0.00000000000E+00 0. -1.
         25    2    1    2    0    0  0.81222506614E+02 -0.11742214336E+03  0.33153786012E+03  0.38199291528E+03  0.12496471220E+03 0.  0.
          2    1    1    2  501    0 -0.34378836165E+02  0.82179693708E+02 -0.69315579363E+02  0.11287185644E+03  0.00000000000E+00 0. -1.
          1    1    1    2  502    0 -0.46843670449E+02  0.35242449656E+02  0.61994103247E+03  0.62270638623E+03  0.00000000000E+00 0. -1.
         22    1    3    3    0    0  0.13161925156E+02 -0.68292900903E+02  0.43638877917E+02  0.82106688237E+02  0.00000000000E+00 0.  1.
         22    1    3    3    0    0  0.68060581458E+02 -0.49129242461E+02  0.28789898220E+03  0.29988622704E+03  0.00000000000E+00 0.  1.
</event>
<event>
 7    1  0.6597701E-006  0.3355957E+02  0.7818608E-02  0.1635963E+00
          2   -1    0    0  502    0  0.00000000000E+00  0.00000000000E+00  0.17056937207E+02  0.17056937207E+02  0.00000000000E+00 0. -1.
          1   -1    0    0  501    0 -0.00000000000E+00 -0.00000000000E+00 -0.90251118039E+03  0.90251118039E+03  0.00000000000E+00 0. -1.
         25    2    1    2    0    0 -0.47095727362E+02  0.25199005389E+02 -0.51681898159E+03  0.53439723986E+03  0.12500221132E+03 0.  0.
          2    1    1    2  501    0  0.27952404578E+02 -0.15504904413E+02 -0.36097370149E+03  0.36238619200E+03  0.00000000000E+00 0. -1.
          1    1    1    2  502    0  0.19143322784E+02 -0.96941009756E+01 -0.76615601073E+01  0.22784685739E+02  0.00000000000E+00 0. -1.
         22    1    3    3    0    0 -0.58828975481E+02 -0.23799195916E+02 -0.13389205973E+03  0.14816994884E+03  0.00000000000E+00 0.  1.
         22    1    3    3    0    0  0.11733248119E+02  0.48998201305E+02 -0.38292692186E+03  0.38622729102E+03  0.00000000000E+00 0.  1.
</event>
<event>
 7    1  0.6597701E-006  0.8817504E+02  0.7818608E-02  0.1372920E+00
          2   -1    0    0  502    0  0.00000000000E+00  0.00000000000E+00  0.92450107089E+02  0.92450107089E+02  0.00000000000E+00 0. -1.
          1   -1    0    0  501    0 -0.00000000000E+00 -0.00000000000E+00 -0.35296820033E+03  0.35296820033E+03  0.00000000000E+00 0. -1.
         25    2    1    2    0    0 -0.82261499445E+02 -0.27387486817E+02 -0.25255181666E+03  0.29482914480E+03  0.12499910319E+03 0.  0.
          2    1    1    2  501    0  0.98448006897E+02 -0.19862312574E+02 -0.50379504303E+01  0.10055795576E+03  0.00000000000E+00 0. -1.
          1    1    1    2  502    0 -0.16186507452E+02  0.47249799391E+02 -0.29283261531E+01  0.50031206861E+02  0.00000000000E+00 0. -1.
         22    1    3    3    0    0 -0.94606964020E+02 -0.59034230639E+02 -0.22489603956E+03  0.25102539042E+03  0.00000000000E+00 0.  1.
         22    1    3    3    0    0  0.12345464575E+02  0.31646743822E+02 -0.27655777103E+02  0.43803754374E+02  0.00000000000E+00 0.  1.
</event>
<event>
 7    1  0.6597701E-006  0.8906981E+02  0.7818608E-02  0.1319970E+00
          2   -1    0    0  502    0  0.00000000000E+00  0.00000000000E+00  0.39144693139E+03  0.39144693139E+03  0.00000000000E+00 0. -1.
          1   -1    0    0  501    0 -0.00000000000E+00 -0.00000000000E+00 -0.18561423030E+04  0.18561423030E+04  0.00000000000E+00 0. -1.
         25    2    1    2    0    0 -0.14942237443E+03 -0.16087211253E+02 -0.43999667859E+01  0.19552460337E+03  0.12499866588E+03 0.  0.
          2    1    1    2  501    0  0.66906202013E+02  0.39865602557E+02 -0.17490644039E+04  0.17507975312E+04  0.00000000000E+00 0. -1.
          1    1    1    2  502    0  0.82516172416E+02 -0.23778391304E+02  0.28876899909E+03  0.30126709983E+03  0.00000000000E+00 0. -1.
         22    1    3    3    0    0 -0.95826318627E+02 -0.56989829625E+02 -0.41022016362E+02  0.11879953640E+03  0.00000000000E+00 0.  1.
         22    1    3    3    0    0 -0.53596055803E+02  0.40902618372E+02  0.36622049576E+02  0.76725066976E+02  0.00000000000E+00 0.  1.
</event>
<event>
 7    1  0.6597701E-006  0.3155159E+03  0.7818608E-02  0.1167081E+00
          2   -1    0    0  502    0  0.00000000000E+00  0.00000000000E+00  0.49549864201E+03  0.49549864201E+03  0.00000000000E+00 0. -1.
          1   -1    0    0  501    0 -0.00000000000E+00 -0.00000000000E+00 -0.15920896492E+04  0.15920896492E+04  0.00000000000E+00 0. -1.
         25    2    1    2    0    0  0.25434673257E+02 -0.24554411536E+03 -0.42473329816E+02  0.27994271674E+03  0.12500042287E+03 0.  0.
          2    1    1    2  501    0  0.11819533303E+02 -0.10286762816E+03 -0.13469935540E+04  0.13509674625E+04  0.00000000000E+00 0. -1.
          1    1    1    2  502    0 -0.37254206560E+02  0.34841174353E+03  0.29287587654E+03  0.45667811202E+03  0.00000000000E+00 0. -1.
         22    1    3    3    0    0 -0.39478607177E+02 -0.16055367113E+03 -0.50007324143E+02  0.17273324581E+03  0.00000000000E+00 0. -1.
         22    1    3    3    0    0  0.64913280434E+02 -0.84990444229E+02  0.75339943269E+01  0.10720947093E+03  0.00000000000E+00 0. -1.
</event>
<event>
 7    1  0.6597701E-006  0.9522891E+02  0.7818608E-02  0.1433175E+00
          2   -1    0    0  502    0  0.00000000000E+00  0.00000000000E+00  0.10359622346E+03  0.10359622346E+03  0.00000000000E+00 0. -1.
          1   -1    0    0  501    0 -0.00000000000E+00 -0.00000000000E+00 -0.48172902416E+03  0.48172902416E+03  0.00000000000E+00 0. -1.
         25    2    1    2    0    0  0.79607974582E+02 -0.15190826198E+02 -0.15815976809E+03  0.21727332151E+03  0.12499997273E+03 0.  0.
          2    1    1    2  501    0 -0.99759234728E+02 -0.53205043700E+01 -0.28227658254E+03  0.29943326757E+03  0.00000000000E+00 0. -1.
          1    1    1    2  502    0  0.20151260146E+02  0.20511330568E+02  0.62303549917E+02  0.68618658536E+02  0.00000000000E+00 0. -1.
         22    1    3    3    0    0 -0.16336362371E+02 -0.33878233568E+01  0.12696916995E+02  0.20965824185E+02  0.00000000000E+00 0.  1.
         22    1    3    3    0    0  0.95944336953E+02 -0.11803002841E+02 -0.17085668508E+03  0.19630749733E+03  0.00000000000E+00 0.  1.
</event>
<event>
 7    1  0.6597701E-006  0.1023146E+03  0.7818608E-02  0.1353415E+00
          2   -1    0    0  502    0  0.00000000000E+00  0.00000000000E+00  0.29568669706E+03  0.29568669706E+03  0.00000000000E+00 0. -1.
          1   -1    0    0  501    0 -0.00000000000E+00 -0.00000000000E+00 -0.21961677511E+04  0.21961677511E+04  0.00000000000E+00 0. -1.
         25    2    1    2    0    0  0.88267174167E+02 -0.32790569358E+02 -0.63685168854E+02  0.16896206171E+03  0.12500424829E+03 0.  0.
          2    1    1    2  501    0 -0.10152791913E+03 -0.16113276190E+02 -0.20759175180E+04  0.20784612331E+04  0.00000000000E+00 0. -1.
          1    1    1    2  502    0  0.13260744967E+02  0.48903845548E+02  0.23912163279E+03  0.24443115336E+03  0.00000000000E+00 0. -1.
         22    1    3    3    0    0  0.35036353095E+02  0.14454492700E+02  0.32073130534E+02  0.49650418928E+02  0.00000000000E+00 0. -1.
         22    1    3    3    0    0  0.53230821071E+02 -0.47245062057E+02 -0.95758299388E+02  0.11931164278E+03  0.00000000000E+00 0. -1.
</event>
<event>
 7    1  0.6597701E-006  0.3039641E+03  0.7818608E-02  0.1246224E+00
          2   -1    0    0  502    0  0.00000000000E+00  0.00000000000E+00  0.94492688245E+03  0.94492688245E+03  0.00000000000E+00 0. -1.
          1   -1    0    0  501    0 -0.00000000000E+00 -0.00000000000E+00 -0.61500827599E+03  0.61500827599E+03  0.00000000000E+00 0. -1.
         25    2    1    2    0    0  0.15669373107E+03 -0.28685527842E+03  0.28446333276E+03  0.45098014608E+03  0.12499931344E+03 0.  0.
          2    1    1    2  501    0  0.10356166340E+02  0.44721152463E+02 -0.49313453973E+03  0.49526649991E+03  0.00000000000E+00 0. -1.
          1    1    1    2  502    0 -0.16704989741E+03  0.24213412596E+03  0.53858981343E+03  0.61368851244E+03  0.00000000000E+00 0. -1.
         22    1    3    3    0    0  0.15507687775E+03 -0.28219104823E+03  0.22857957342E+03  0.39487877519E+03  0.00000000000E+00 0.  1.
         22    1    3    3    0    0  0.16168533266E+01 -0.46642301922E+01  0.55883759339E+02  0.56101370891E+02  0.00000000000E+00 0.  1.
</event>
<event>
 7    1  0.6597701E-006  0.6230931E+02  0.7818608E-02  0.1465370E+00
          2   -1    0    0  502    0  0.00000000000E+00  0.00000000000E+00  0.16326792039E+04  0.16326792039E+04  0.00000000000E+00 0. -1.
          1   -1    0    0  501    0 -0.00000000000E+00 -0.00000000000E+00 -0.76563293263E+03  0.76563293263E+03  0.00000000000E+00 0. -1.
         25    2    1    2    0    0  0.17958913449E+02 -0.22968766546E+02 -0.82829760583E+02  0.15275783811E+03  0.12499640418E+03 0.  0.
          2    1    1    2  501    0 -0.40409812633E+02  0.49370207248E+02 -0.64607980621E+03  0.64922221643E+03  0.00000000000E+00 0. -1.
          1    1    1    2  502    0  0.22450899184E+02 -0.26401440702E+02  0.15959558381E+04  0.15963320820E+04  0.00000000000E+00 0. -1.
         22    1    3    3    0    0  0.20422326175E+02  0.16844835257E+02 -0.10419588552E+03  0.10750629023E+03  0.00000000000E+00 0. -1.
         22    1    3    3    0    0 -0.24634127252E+01 -0.39813601803E+02  0.21366124932E+02  0.45251547879E+02  0.00000000000E+00 0. -1.
</event>
<event>
 7    1  0.6597701E-006  0.7387958E+02  0.7818608E-02  0.1388389E+00
          2   -1    0    0  502    0  0.00000000000E+00  0.00000000000E+00  0.19050342609E+04  0.19050342609E+04  0.00000000000E+00 0. -1.
          1   -1    0    0  501    0 -0.00000000000E+00 -0.00000000000E+00 -0.32992910994E+02  0.32992910994E+02  0.00000000000E+00 0. -1.
         25    2    1    2    0    0 -0.19080343542E+02  0.16106930829E+02  0.17335293131E+03  0.21517384062E+03  0.12500020065E+03 0.  0.
          2    1    1    2  501    0 -0.50620188120E+02  0.14112528569E+02  0.50392945998E+02  0.72808075886E+02  0.00000000000E+00 0. -1.
          1    1    1    2  502    0  0.69700531662E+02 -0.30219459398E+02  0.16482954726E+04  0.16500452554E+04  0.00000000000E+00 0. -1.
         22    1    3    3    0    0  0.42941335189E+02  0.27613891047E+02  0.31659247443E+02  0.60073231936E+02  0.00000000000E+00 0.  1.
         22    1    3    3    0    0 -0.62021678732E+02 -0.11506960219E+02  0.14169368387E+03  0.15510060868E+03  0.00000000000E+00 0.  1.
</event>
<event>
 7    1  0.6597701E-006  0.1013792E+03  0.7818608E-02  0.1304214E+00
          2   -1    0    0  502    0  0.00000000000E+00  0.00000000000E+00  0.13783120792E+04  0.13783120792E+04  0.00000000000E+00 0. -1.
          1   -1    0    0  501    0 -0.00000000000E+00 -0.00000000000E+00 -0.68333626992E+02  0.68333626992E+02  0.00000000000E+00 0. -1.
         25    2    1    2    0    0 -0.58295071398E+02 -0.69958493204E+02  0.23387125487E+03  0.28038106540E+03  0.12500108744E+03 0.  0.
          2    1    1    2  501    0  0.70860285457E+02 -0.34714412189E+02 -0.59061885653E+01  0.79127451191E+02  0.00000000000E+00 0. -1.
          1    1    1    2  502    0 -0.12565214058E+02  0.10467290539E+03  0.10820133859E+04  0.10871371896E+04  0.00000000000E+00 0. -1.
         22    1    3    3    0    0 -0.37277188550E+02 -0.12260096512E+01  0.19526395016E+03  0.19879411993E+03  0.00000000000E+00 0. -1.
         22    1    3    3    0    0 -0.21017882848E+02 -0.68732483553E+02  0.38607304705E+02  0.81586945471E+02  0.00000000000E+00 0. -1.
</event>
<event>
 7    1  0.6597701E-006  0.4444967E+02  0.7818608E-02  0.1528672E+00
          2   -1    0    0  502    0  0.00000000000E+00  0.00000000000E+00  0.18501145892E+04  0.18501145892E+04  0.00000000000E+00 0. -1.
          1   -1    0    0  501    0 -0.00000000000E+00 -0.00000000000E+00 -0.66474377622E+02  0.66474377622E+02  0.00000000000E+00 0. -1.
         25    2    1    2    0    0 -0.62290736927E+01  0.47222110192E+02  0.30869768145E+03  0.33643420481E+03  0.12499994634E+03 0.  0.
          2    1    1    2  501    0  0.29938514705E+02 -0.94145052578E+01 -0.47569130093E+02  0.56989206958E+02  0.00000000000E+00 0. -1.
          1    1    1    2  502    0 -0.23709441012E+02 -0.37807604934E+02  0.15225116603E+04  0.15231655551E+04  0.00000000000E+00 0. -1.
         22    1    3    3    0    0 -0.54886077688E+02  0.13886975067E+02  0.23662696851E+03  0.24330567570E+03  0.00000000000E+00 0. -1.
         22    1    3    3    0    0  0.48657003995E+02  0.33335135124E+02  0.72070712936E+02  0.93128529113E+02  0.00000000000E+00 0. -1.
</event>
<event>
 7    1  0.6597701E-006  0.1567456E+03  0.7818608E-02  0.1265877E+00
          2   -1    0    0  502    0  0.00000000000E+00  0.00000000000E+00  0.19305716589E+04  0.19305716589E+04  0.00000000000E+00 0. -1.
          1   -1    0    0  501    0 -0.00000000000E+00 -0.00000000000E+00 -0.31812531398E+03  0.31812531398E+03  0.00000000000E+00 0. -1.
         25    2    1    2    0    0  0.19752111792E+03  0.10069849637E+03  0.65004104587E+03  0.69809262049E+03  0.12500066507E+03 0.  0.
          2    1    1    2  501    0 -0.14751786117E+03 -0.47113146461E+02 -0.27255221749E+03  0.31347388917E+03  0.00000000000E+00 0. -1.
          1    1    1    2  502    0 -0.50003256751E+02 -0.53585349909E+02  0.12349575165E+04  0.12371304632E+04  0.00000000000E+00 0. -1.
         22    1    3    3    0    0  0.53632194345E+02  0.88761661574E+02  0.19743276198E+03  0.22301287035E+03  0.00000000000E+00 0. -1.
         22    1    3    3    0    0  0.14388892357E+03  0.11936834797E+02  0.45260828388E+03  0.47507975014E+03  0.00000000000E+00 0. -1.
</event>
<event>
 7    1  0.1074322E-005  0.5202588E+02  0.7818608E-02  0.1462833E+00
          2   -1    0    0  502    0  0.00000000000E+00  0.00000000000E+00  0.17870052310E+04  0.17870052310E+04  0.00000000000E+00 0. -1.
          1   -1    0    0  501    0 -0.00000000000E+00 -0.00000000000E+00 -0.21520633711E+04  0.21520633711E+04  0.00000000000E+00 0. -1.
         25    2    1    2    0    0 -0.90160146221E+02  0.21054395124E+02 -0.43902872685E+03  0.46577087111E+03  0.12499656737E+03 0.  0.
          2    1    1    2  501    0  0.42266559689E+02 -0.81928669083E+00 -0.16990195575E+04  0.16995454069E+04  0.00000000000E+00 0. -1.
          1    1    1    2  502    0  0.47893586532E+02 -0.20235108433E+02  0.17729901443E+04  0.17737523240E+04  0.00000000000E+00 0. -1.
         22    1    3    3    0    0 -0.64654847038E+02  0.23377168332E+02 -0.43432356904E+03  0.43973139969E+03  0.00000000000E+00 0. -1.
         22    1    3    3    0    0 -0.25505299183E+02 -0.23227732076E+01 -0.47051578038E+01  0.26039471419E+02  0.00000000000E+00 0. -1.
</event>
<event>
 7    1  0.6597701E-006  0.5879587E+02  0.7818608E-02  0.1509294E+00
          2   -1    0    0  502    0  0.00000000000E+00  0.00000000000E+00  0.12117758179E+04  0.12117758179E+04  0.00000000000E+00 0. -1.
          1   -1    0    0  501    0 -0.00000000000E+00 -0.00000000000E+00 -0.14278521985E+03  0.14278521985E+03  0.00000000000E+00 0. -1.
         25    2    1    2    0    0 -0.46564976266E+02  0.37644947390E+02 -0.14522466178E+02  0.13936088967E+03  0.12500046587E+03 0.  0.
          2    1    1    2  501    0  0.25143178570E+02 -0.54101946958E+02 -0.52136023523E+02  0.79229824196E+02  0.00000000000E+00 0. -1.
          1    1    1    2  502    0  0.21421797696E+02  0.16456999568E+02  0.11356490877E+04  0.11359703238E+04  0.00000000000E+00 0. -1.
         22    1    3    3    0    0 -0.61203540710E+02 -0.30047246097E+02 -0.16215876893E+02  0.70083272304E+02  0.00000000000E+00 0.  1.
         22    1    3    3    0    0  0.14638564444E+02  0.67692193488E+02  0.16934107143E+01  0.69277617367E+02  0.00000000000E+00 0.  1.
</event>
<event>
 7    1  0.6597701E-006  0.6692770E+02  0.7818608E-02  0.1400865E+00
          2   -1    0    0  502    0  0.00000000000E+00  0.00000000000E+00  0.28291417300E+04  0.28291417300E+04  0.00000000000E+00 0. -1.
          1   -1    0    0  501    0 -0.00000000000E+00 -0.00000000000E+00 -0.19845206247E+03  0.19845206247E+03  0.00000000000E+00 0. -1.
         25    2    1    2    0    0 -0.66753850440E+02  0.18155876234E+01  0.76675543912E+02  0.16112770060E+03  0.12499449571E+03 0.  0.
          2    1    1    2  501    0  0.21603423966E+02  0.47862152364E+02 -0.15138515832E+03  0.16023407789E+03  0.00000000000E+00 0. -1.
          1    1    1    2  502    0  0.45150426474E+02 -0.49677739987E+02  0.27053992819E+04  0.27062320140E+04  0.00000000000E+00 0. -1.
         22    1    3    3    0    0  0.31734620944E+01  0.16416485086E+02  0.87317496016E+02  0.88903976035E+02  0.00000000000E+00 0. -1.
         22    1    3    3    0    0 -0.69927312535E+02 -0.14600897463E+02 -0.10641952104E+02  0.72223724562E+02  0.00000000000E+00 0. -1.
</event>
<event>
 7    1  0.6597701E-006  0.5780327E+02  0.7818608E-02  0.1408848E+00
          2   -1    0    0  502    0  0.00000000000E+00  0.00000000000E+00  0.43151603476E+03  0.43151603476E+03  0.00000000000E+00 0. -1.
          1   -1    0    0  501    0 -0.00000000000E+00 -0.00000000000E+00 -0.81183160034E+03  0.81183160034E+03  0.00000000000E+00 0. -1.
         25    2    1    2    0    0 -0.11362551076E+03  0.20688445381E+01 -0.15778143706E+03  0.23116042967E+03  0.12500050220E+03 0.  0.
          2    1    1    2  501    0  0.56644353725E+02 -0.72152434405E+01 -0.61395618680E+03  0.61660590482E+03  0.00000000000E+00 0. -1.
          1    1    1    2  502    0  0.56981157030E+02  0.51463989024E+01  0.39142205828E+03  0.39558130061E+03  0.00000000000E+00 0. -1.
         22    1    3    3    0    0  0.22448085763E+02 -0.16332175359E+02 -0.10189273092E+02  0.29571570681E+02  0.00000000000E+00 0.  1.
         22    1    3    3    0    0 -0.13607359652E+03  0.18401019897E+02 -0.14759216397E+03  0.20158885899E+03  0.00000000000E+00 0.  1.
</event>
<event>
 7    1  0.6597701E-006  0.1468859E+03  0.7818608E-02  0.1284002E+00
          2   -1    0    0  502    0  0.00000000000E+00  0.00000000000E+00  0.36055978754E+03  0.36055978754E+03  0.00000000000E+00 0. -1.
          1   -1    0    0  501    0 -0.00000000000E+00 -0.00000000000E+00 -0.14617322193E+04  0.14617322193E+04  0.00000000000E+00 0. -1.
         25    2    1    2    0    0  0.16187386632E+03 -0.97813294547E+02  0.25621855300E+03  0.34211643433E+03  0.12500047419E+03 0.  0.
          2    1    1    2  501    0 -0.14218340358E+03  0.35103234134E+02 -0.13961898286E+04  0.14038498477E+04  0.00000000000E+00 0. -1.
          1    1    1    2  502    0 -0.19690462735E+02  0.62710060413E+02  0.38798843791E+02  0.76325724885E+02  0.00000000000E+00 0. -1.
         22    1    3    3    0    0  0.12137544800E+03 -0.10614679783E+03  0.12349412999E+03  0.20310081784E+03  0.00000000000E+00 0.  1.
         22    1    3    3    0    0  0.40498418322E+02  0.83335032814E+01  0.13272442302E+03  0.13901561649E+03  0.00000000000E+00 0.  1.
</event>
<event>
 7    1  0.6597701E-006  0.1414589E+03  0.7818608E-02  0.1257916E+00
          2   -1    0    0  502    0  0.00000000000E+00  0.00000000000E+00  0.21847980915E+03  0.21847980915E+03  0.00000000000E+00 0. -1.
          1   -1    0    0  501    0 -0.00000000000E+00 -0.00000000000E+00 -0.30303415348E+04  0.30303415348E+04  0.00000000000E+00 0. -1.
         25    2    1    2    0    0 -0.69638865894E+02 -0.47609790991E+01 -0.59067105442E+03  0.60777463992E+03  0.12500191931E+03 0.  0.
          2    1    1    2  501    0 -0.55453079750E+02 -0.68072662127E+02 -0.24052698448E+04  0.24068718200E+04  0.00000000000E+00 0. -1.
          1    1    1    2  502    0  0.12509194564E+03  0.72833641226E+02  0.18407917361E+03  0.23417488404E+03  0.00000000000E+00 0. -1.
         22    1    3    3    0    0  0.11815865532E+02  0.42716747906E+02 -0.26692587691E+03  0.27058041133E+03  0.00000000000E+00 0. -1.
         22    1    3    3    0    0 -0.81454731425E+02 -0.47477727005E+02 -0.32374517751E+03  0.33719422859E+03  0.00000000000E+00 0. -1.
</event>
<event>
 7    1  0.6597701E-006  0.6114019E+02  0.7818608E-02  0.1415647E+00
          2   -1    0    0  502    0  0.00000000000E+00  0.00000000000E+00  0.95527654862E+02  0.95527654862E+02  0.00000000000E+00 0. -1.
          1   -1    0    0  501    0 -0.00000000000E+00 -0.00000000000E+00 -0.21914897283E+04  0.21914897283E+04  0.00000000000E+00 0. -1.
         25    2    1    2    0    0  0.88950286439E+02  0.38482171729E+02 -0.15183252488E+03  0.21925024591E+03  0.12499809487E+03 0.  0.
          2    1    1    2  501    0 -0.29938080785E+02 -0.41541126531E+02 -0.19914225628E+04  0.19920807659E+04  0.00000000000E+00 0. -1.
          1    1    1    2  502    0 -0.59012205654E+02  0.30589548014E+01  0.47293014266E+02  0.75686371421E+02  0.00000000000E+00 0. -1.
         22    1    3    3    0    0  0.10782261804E+03  0.35715879745E+02 -0.16183183663E+03  0.19771414814E+03  0.00000000000E+00 0.  1.
         22    1    3    3    0    0 -0.18872331600E+02  0.27662919839E+01  0.99993117565E+01  0.21536097766E+02  0.00000000000E+00 0.  1.
</event>
<event>
 7    1  0.6597701E-006  0.8503298E+02  0.7818608E-02  0.1402756E+00
          2   -1    0    0  502    0  0.00000000000E+00  0.00000000000E+00  0.82433560704E+03  0.82433560704E+03  0.00000000000E+00 0. -1.
          1   -1    0    0  501    0 -0.00000000000E+00 -0.00000000000E+00 -0.15254887512E+04  0.15254887512E+04  0.00000000000E+00 0. -1.
         25    2    1    2    0    0 -0.62927068271E+02 -0.68774300319E+02 -0.10645169140E+03  0.18880436432E+03  0.12500162031E+03 0.  0.
          2    1    1    2  501    0 -0.16120002762E+02  0.37391493847E+02 -0.13752494852E+04  0.13758521450E+04  0.00000000000E+00 0. -1.
          1    1    1    2  502    0  0.79047071033E+02  0.31382806472E+02  0.78054803247E+03  0.78516784892E+03  0.00000000000E+00 0. -1.
         22    1    3    3    0    0  0.35859700232E+02 -0.10683912893E+02 -0.92766738671E+01  0.38550237009E+02  0.00000000000E+00 0.  1.
         22    1    3    3    0    0 -0.98786768502E+02 -0.58090387426E+02 -0.97175017534E+02  0.15025412732E+03  0.00000000000E+00 0.  1.
</event>
<event>
 7    1  0.6597701E-006  0.1786048E+03  0.7818608E-02  0.1289161E+00
          2   -1    0    0  502    0  0.00000000000E+00  0.00000000000E+00  0.29462774347E+02  0.29462774347E+02  0.00000000000E+00 0. -1.
          1   -1    0    0  501    0 -0.00000000000E+00 -0.00000000000E+00 -0.32475077032E+04  0.32475077032E+04  0.00000000000E+00 0. -1.
         25    2    1    2    0    0  0.36379302921E+02  0.18055882985E+03 -0.81169644071E+03  0.84166576949E+03  0.12500084378E+03 0.  0.
          2    1    1    2  501    0 -0.82829672719E+02 -0.15833535477E+03 -0.23577115220E+04  0.23644734002E+04  0.00000000000E+00 0. -1.
          1    1    1    2  502    0  0.46450369798E+02 -0.22223475085E+02 -0.48636966158E+02  0.70831307882E+02  0.00000000000E+00 0. -1.
         22    1    3    3    0    0  0.59991993348E+02  0.13898140062E+03 -0.40852807130E+03  0.43567195689E+03  0.00000000000E+00 0.  1.
         22    1    3    3    0    0 -0.23612690427E+02  0.41577429237E+02 -0.40316836941E+03  0.40599381260E+03  0.00000000000E+00 0.  1.
</event>
<event>
 7    1  0.6597701E-006  0.1519044E+03  0.7818608E-02  0.1291253E+00
          2   -1    0    0  502    0  0.00000000000E+00  0.00000000000E+00  0.87214783697E+03  0.87214783697E+03  0.00000000000E+00 0. -1.
          1   -1    0    0  501    0 -0.00000000000E+00 -0.00000000000E+00 -0.11811116388E+04  0.11811116388E+04  0.00000000000E+00 0. -1.
         25    2    1    2    0    0 -0.19762920823E+02 -0.16094163853E+03 -0.22695019048E+03  0.30565226580E+03  0.12499653827E+03 0.  0.
          2    1    1    2  501    0 -0.37944479115E+02  0.14699096304E+03 -0.90743881768E+03  0.92004963700E+03  0.00000000000E+00 0. -1.
          1    1    1    2  502    0  0.57707399938E+02  0.13950675484E+02  0.82542520633E+03  0.82755757298E+03  0.00000000000E+00 0. -1.
         22    1    3    3    0    0  0.11245997965E+02  0.45487792137E+01 -0.83740438105E+02  0.84614566339E+02  0.00000000000E+00 0.  1.
         22    1    3    3    0    0 -0.31008918788E+02 -0.16549041774E+03 -0.14320975237E+03  0.22103769946E+03  0.00000000000E+00 0.  1.
</event>
<event>
 7    1  0.6597701E-006  0.3168564E+02  0.7818608E-02  0.1648184E+00
          2   -1    0    0  502    0  0.00000000000E+00  0.00000000000E+00  0.10142259596E+03  0.10142259596E+03  0.00000000000E+00 0. -1.
          1   -1    0    0  501    0 -0.00000000000E+00 -0.00000000000E+00 -0.76590145267E+03  0.76590145267E+03  0.00000000000E+00 0. -1.
         25    2    1    2    0    0 -0.17045017998E+02  0.44385409045E+02 -0.24093907946E+03  0.27556808801E+03  0.12500213577E+03 0.  0.
          2    1    1    2  501    0 -0.39264049993E+01 -0.20830069000E+02 -0.50446097805E+03  0.50490611683E+03  0.00000000000E+00 0. -1.
          1    1    1    2  502    0  0.20971422997E+02 -0.23555340045E+02  0.80921200803E+02  0.86849843792E+02  0.00000000000E+00 0. -1.
         22    1    3    3    0    0  0.38707383097E+02  0.45425499293E+02 -0.19305021419E+03  0.20206464978E+03  0.00000000000E+00 0. -1.
         22    1    3    3    0    0 -0.55752401095E+02 -0.10400902484E+01 -0.47888865273E+02  0.73503438237E+02  0.00000000000E+00 0. -1.
</event>
<event>
 7    1  0.6597701E-006  0.6668405E+02  0.7818608E-02  0.1406906E+00
          2   -1    0    0  502    0  0.00000000000E+00  0.00000000000E+00  0.21473663093E+04  0.21473663093E+04  0.00000000000E+00 0. -1.
          1   -1    0    0  501    0 -0.00000000000E+00 -0.00000000000E+00 -0.20709810908E+03  0.20709810908E+03  0.00000000000E+00 0. -1.
         25    2    1    2    0    0  0.20787411381E+02  0.87340969153E+02  0.33232667456E+03  0.36623370801E+03  0.12500219557E+03 0.  0.
          2    1    1    2  501    0  0.27644261123E+02 -0.41969523487E+02 -0.18619967091E+03  0.19286255085E+03  0.00000000000E+00 0. -1.
          1    1    1    2  502    0 -0.48431672504E+02 -0.45371445665E+02  0.17941411966E+04  0.17953681595E+04  0.00000000000E+00 0. -1.
         22    1    3    3    0    0  0.19328792799E+02 -0.26427587092E+02  0.13050850428E+03  0.13455292371E+03  0.00000000000E+00 0.  1.
         22    1    3    3    0    0  0.14586185821E+01  0.11376855625E+03  0.20181817028E+03  0.23168078430E+03  0.00000000000E+00 0.  1.
</event>
<event>
 7    1  0.6597701E-006  0.2321762E+03  0.7818608E-02  0.1327215E+00
          2   -1    0    0  502    0  0.00000000000E+00  0.00000000000E+00  0.52035921439E+03  0.52035921439E+03  0.00000000000E+00 0. -1.
          1   -1    0    0  501    0 -0.00000000000E+00 -0.00000000000E+00 -0.10199290485E+04  0.10199290485E+04  0.00000000000E+00 0. -1.
         25    2    1    2    0    0 -0.12570013475E+03  0.17697847853E+03 -0.22906598877E+03  0.33943839740E+03  0.12500117070E+03 0.  0.
          2    1    1    2  501    0  0.15334274858E+03 -0.18153416964E+03 -0.71603604248E+03  0.75443771607E+03  0.00000000000E+00 0. -1.
          1    1    1    2  502    0 -0.27642613831E+02  0.45556911101E+01  0.44553219717E+03  0.44641214940E+03  0.00000000000E+00 0. -1.
         22    1    3    3    0    0  0.21650706847E+02  0.36784150826E+01 -0.29868279805E+02  0.37072873951E+02  0.00000000000E+00 0. -1.
         22    1    3    3    0    0 -0.14735084160E+03  0.17330006345E+03 -0.19919770896E+03  0.30236552344E+03  0.00000000000E+00 0. -1.
</event>
<event>
 7    1  0.6597701E-006  0.5942520E+02  0.7818608E-02  0.1508521E+00
          2   -1    0    0  502    0  0.00000000000E+00  0.00000000000E+00  0.60531746983E+03  0.60531746983E+03  0.00000000000E+00 0. -1.
          1   -1    0    0  501    0 -0.00000000000E+00 -0.00000000000E+00 -0.33045329613E+03  0.33045329613E+03  0.00000000000E+00 0. -1.
         25    2    1    2    0    0 -0.27973877555E+02  0.17146006391E+02 -0.13880979615E+03  0.18965458384E+03  0.12499671317E+03 0.  0.
          2    1    1    2  501    0 -0.23228612593E+02  0.13502777741E+02 -0.16358710593E+03  0.16577887283E+03  0.00000000000E+00 0. -1.
          1    1    1    2  502    0  0.51202490148E+02 -0.30648784132E+02  0.57726107577E+03  0.58033730930E+03  0.00000000000E+00 0. -1.
         22    1    3    3    0    0  0.18785233148E+02 -0.46222034808E+02 -0.45188167079E+02  0.67315168649E+02  0.00000000000E+00 0.  1.
         22    1    3    3    0    0 -0.46759110703E+02  0.63368041198E+02 -0.93621629069E+02  0.12233941519E+03  0.00000000000E+00 0.  1.
</event>
<event>
 7    1  0.6597701E-006  0.4287610E+02  0.7818608E-02  0.1549261E+00
          2   -1    0    0  502    0  0.00000000000E+00  0.00000000000E+00  0.83834972740E+02  0.83834972740E+02  0.00000000000E+00 0. -1.
          1   -1    0    0  501    0 -0.00000000000E+00 -0.00000000000E+00 -0.97549013337E+03  0.97549013337E+03  0.00000000000E+00 0. -1.
         25    2    1    2    0    0 -0.86228445377E+01 -0.55124193629E+02 -0.82318298476E+02  0.15973157375E+03  0.12499937287E+03 0.  0.
          2    1    1    2  501    0 -0.17915033235E+02  0.22100408944E+02 -0.84422959422E+03  0.84470881625E+03  0.00000000000E+00 0. -1.
          1    1    1    2  502    0  0.26537877773E+02  0.33023784685E+02  0.34892732065E+02  0.54884716111E+02  0.00000000000E+00 0. -1.
         22    1    3    3    0    0  0.42403718204E+02  0.19099861218E+02 -0.33164191670E+02  0.57120430891E+02  0.00000000000E+00 0. -1.
         22    1    3    3    0    0 -0.51026562742E+02 -0.74224054847E+02 -0.49154106806E+02  0.10261114286E+03  0.00000000000E+00 0. -1.
</event>
<event>
 7    1  0.6597701E-006  0.4456420E+02  0.7818608E-02  0.1583138E+00
          2   -1    0    0  502    0  0.00000000000E+00  0.00000000000E+00  0.12300978084E+04  0.12300978084E+04  0.00000000000E+00 0. -1.
          1   -1    0    0  501    0 -0.00000000000E+00 -0.00000000000E+00 -0.42895328324E+02  0.42895328324E+02  0.00000000000E+00 0. -1.
         25    2    1    2    0    0 -0.21871468038E+01 -0.64126412682E+02  0.10262904027E+04  0.10358644432E+04  0.12500469490E+03 0.  0.
          2    1    1    2  501    0  0.95853913083E+01  0.43279601346E+02 -0.24332852837E+02  0.50567690736E+02  0.00000000000E+00 0. -1.
          1    1    1    2  502    0 -0.73982445045E+01  0.20846811336E+02  0.18524493022E+03  0.18656100272E+03  0.00000000000E+00 0. -1.
         22    1    3    3    0    0 -0.15277306119E+01  0.32624971080E+02  0.11804129636E+03  0.12247640730E+03  0.00000000000E+00 0. -1.
         22    1    3    3    0    0 -0.65941619186E+00 -0.96751383762E+02  0.90824910630E+03  0.91338803593E+03  0.00000000000E+00 0. -1.
</event>
<event>
 7    1  0.6597701E-006  0.1164004E+03  0.7818608E-02  0.1254438E+00
          2   -1    0    0  502    0  0.00000000000E+00  0.00000000000E+00  0.12105452995E+04  0.12105452995E+04  0.00000000000E+00 0. -1.
          1   -1    0    0  501    0 -0.00000000000E+00 -0.00000000000E+00 -0.12358863510E+03  0.12358863510E+03  0.00000000000E+00 0. -1.
         25    2    1    2    0    0  0.67706502156E+01 -0.10713348784E+03  0.29326882967E+03  0.33638482157E+03  0.12499886323E+03 0.  0.
          2    1    1    2  501    0  0.99835790109E+02  0.60398981358E+02 -0.63398132308E+02  0.13279512459E+03  0.00000000000E+00 0. -1.
          1    1    1    2  502    0 -0.10660644032E+03  0.46734506477E+02  0.85708596704E+03  0.86495398843E+03  0.00000000000E+00 0. -1.
         22    1    3    3    0    0  0.52436858675E+02 -0.92049706030E+02  0.25067832293E+03  0.27214406867E+03  0.00000000000E+00 0. -1.
         22    1    3    3    0    0 -0.45666208460E+02 -0.15083781805E+02  0.42590506735E+02  0.64240752896E+02  0.00000000000E+00 0. -1.
</event>
<event>
 7    1  0.6597701E-006  0.3413393E+03  0.7818608E-02  0.1224864E+00
          2   -1    0    0  502    0  0.00000000000E+00  0.00000000000E+00  0.13616499019E+04  0.13616499019E+04  0.00000000000E+00 0. -1.
          1   -1    0    0  501    0 -0.00000000000E+00 -0.00000000000E+00 -0.23016617278E+04  0.23016617278E+04  0.00000000000E+00 0. -1.
         25    2    1    2    0    0 -0.18199700303E+03  0.33135328897E+03  0.35681764438E+03  0.53466074842E+03  0.12500149334E+03 0.  0.
          2    1    1    2  501    0  0.35237113456E+02 -0.36678516944E+02 -0.21828540538E+04  0.21834465388E+04  0.00000000000E+00 0. -1.
          1    1    1    2  502    0  0.14675988957E+03 -0.29467477203E+03  0.88602458348E+03  0.94520434245E+03  0.00000000000E+00 0. -1.
         22    1    3    3    0    0 -0.77415056433E+02  0.74153840643E+02  0.16657270014E+03  0.19808671707E+03  0.00000000000E+00 0. -1.
         22    1    3    3    0    0 -0.10458194659E+03  0.25719944833E+03  0.19024494423E+03  0.33657403135E+03  0.00000000000E+00 0. -1.
</event>
<event>
 7    1  0.6597701E-006  0.1424999E+03  0.7818608E-02  0.1347875E+00
          2   -1    0    0  502    0  0.00000000000E+00  0.00000000000E+00  0.11122241866E+04  0.11122241866E+04  0.00000000000E+00 0. -1.
          1   -1    0    0  501    0 -0.00000000000E+00 -0.00000000000E+00 -0.11336818066E+04  0.11336818066E+04  0.00000000000E+00 0. -1.
         25    2    1    2    0    0  0.91281530786E+02 -0.13987337646E+03  0.18019746814E+03  0.27567023875E+03  0.12500429475E+03 0.  0.
          2    1    1    2  501    0 -0.98448393198E+02  0.10241298557E+03 -0.10808843948E+04  0.10901796094E+04  0.00000000000E+00 0. -1.
          1    1    1    2  502    0  0.71668624124E+01  0.37460390889E+02  0.87922930671E+03  0.88005614513E+03  0.00000000000E+00 0. -1.
         22    1    3    3    0    0 -0.10392263516E+02 -0.97100833919E+02  0.95603516310E+02  0.13666237017E+03  0.00000000000E+00 0.  1.
         22    1    3    3    0    0  0.10167379430E+03 -0.42772542539E+02  0.84593951829E+02  0.13900786859E+03  0.00000000000E+00 0.  1.
</event>
<event>
 7    1  0.6597701E-006  0.2540497E+03  0.7818608E-02  0.1355646E+00
          2   -1    0    0  502    0  0.00000000000E+00  0.00000000000E+00  0.17942102641E+04  0.17942102641E+04  0.00000000000E+00 0. -1.
          1   -1    0    0  501    0 -0.00000000000E+00 -0.00000000000E+00 -0.18198133321E+03  0.18198133321E+03  0.00000000000E+00 0. -1.
         25    2    1    2    0    0 -0.10415043490E+02  0.25500206344E+03  0.10647287200E+04  0.11020012087E+04  0.12499956535E+03 0.  0.
          2    1    1    2  501    0 -0.95749911985E+01 -0.25382862861E+03 -0.64333172271E+02  0.26202940715E+03  0.00000000000E+00 0. -1.
          1    1    1    2  502    0  0.19990034689E+02 -0.11734348284E+01  0.61183338314E+03  0.61216098141E+03  0.00000000000E+00 0. -1.
         22    1    3    3    0    0 -0.20962831058E+02  0.17645529727E+03  0.91991110252E+03  0.93691640436E+03  0.00000000000E+00 0. -1.
         22    1    3    3    0    0  0.10547787567E+02  0.78546766170E+02  0.14481761750E+03  0.16508480438E+03  0.00000000000E+00 0. -1.
</event>
<event>
 7    1  0.6597701E-006  0.1107823E+03  0.7818608E-02  0.1314366E+00
          2   -1    0    0  502    0  0.00000000000E+00  0.00000000000E+00  0.38115960816E+04  0.38115960816E+04  0.00000000000E+00 0. -1.
          1   -1    0    0  501    0 -0.00000000000E+00 -0.00000000000E+00 -0.62937093947E+03  0.62937093947E+03  0.00000000000E+00 0. -1.
         25    2    1    2    0    0  0.41203433337E+01 -0.84911418693E+00 -0.29034683027E+03  0.31613953510E+03  0.12500090232E+03 0.  0.
          2    1    1    2  501    0 -0.83326693315E+02  0.78302829546E+02 -0.31527031196E+03  0.33536553272E+03  0.00000000000E+00 0. -1.
          1    1    1    2  502    0  0.79206349982E+02 -0.77453715359E+02  0.37878422843E+04  0.37894619532E+04  0.00000000000E+00 0. -1.
         22    1    3    3    0    0 -0.12442392853E+02 -0.50974603028E+02 -0.59491189891E+02  0.79324806765E+02  0.00000000000E+00 0.  1.
         22    1    3    3    0    0  0.16562736186E+02  0.50125488841E+02 -0.23085564038E+03  0.23681472834E+03  0.00000000000E+00 0.  1.
</event>
<event>
 7    1  0.6597701E-006  0.7976714E+02  0.7818608E-02  0.1405449E+00
          2   -1    0    0  502    0  0.00000000000E+00  0.00000000000E+00  0.41915594770E+03  0.41915594770E+03  0.00000000000E+00 0. -1.
          1   -1    0    0  501    0 -0.00000000000E+00 -0.00000000000E+00 -0.99727559353E+03  0.99727559353E+03  0.00000000000E+00 0. -1.
         25    2    1    2    0    0  0.48393509768E+02  0.90382606666E+02  0.10964992573E+03  0.19534334527E+03  0.12499987582E+03 0.  0.
          2    1    1    2  501    0 -0.40403718745E+02 -0.13170141617E+02 -0.94829377094E+03  0.94924548412E+03  0.00000000000E+00 0. -1.
          1    1    1    2  502    0 -0.79897910236E+01 -0.77212465049E+02  0.26052419938E+03  0.27184271184E+03  0.00000000000E+00 0. -1.
         22    1    3    3    0    0  0.22923429078E+02  0.59278378180E+02 -0.14207379136E+02  0.65124951764E+02  0.00000000000E+00 0. -1.
         22    1    3    3    0    0  0.25470080690E+02  0.31104228486E+02  0.12385730486E+03  0.13021839351E+03  0.00000000000E+00 0. -1.
</event>
<event>
 7    1  0.6597701E-006  0.5356387E+02  0.7818608E-02  0.1553146E+00
          2   -1    0    0  502    0  0.00000000000E+00  0.00000000000E+00  0.11825500704E+04  0.11825500704E+04  0.00000000000E+00 0. -1.
          1   -1    0    0  501    0 -0.00000000000E+00 -0.00000000000E+00 -0.22008318261E+03  0.22008318261E+03  0.00000000000E+00 0. -1.
         25    2    1    2    0    0  0.16103785559E+01  0.74340704605E+02  0.21401402898E+03  0.25875940573E+03  0.12500116708E+03 0.  0.
          2    1    1    2  501    0  0.43212457372E+01 -0.21788208433E+02 -0.19634474760E+03  0.19759721431E+03  0.00000000000E+00 0. -1.
          1    1    1    2  502    0 -0.59316242931E+01 -0.52552496173E+02  0.94479760641E+03  0.94627663297E+03  0.00000000000E+00 0. -1.
         22    1    3    3    0    0 -0.69119242555E+01  0.71703092280E+02  0.22969092801E+03  0.24072189462E+03  0.00000000000E+00 0. -1.
         22    1    3    3    0    0  0.85223028113E+01  0.26376123252E+01 -0.15676899025E+02  0.18037511110E+02  0.00000000000E+00 0. -1.
</event>
<event>
 7    1  0.6597701E-006  0.8299923E+02  0.7818608E-02  0.1363041E+00
          2   -1    0    0  502    0  0.00000000000E+00  0.00000000000E+00  0.84150264940E+03  0.84150264940E+03  0.00000000000E+00 0. -1.
          1   -1    0    0  501    0 -0.00000000000E+00 -0.00000000000E+00 -0.18582819654E+04  0.18582819654E+04  0.00000000000E+00 0. -1.
         25    2    1    2    0    0 -0.32495365070E+01 -0.12335030481E+03  0.13799407463E+03  0.22336743474E+03  0.12499915633E+03 0.  0.
          2    1    1    2  501    0 -0.30803867680E+02  0.76900146853E+02 -0.18133929211E+04  0.18152841092E+04  0.00000000000E+00 0. -1.
          1    1    1    2  502    0  0.34053404187E+02  0.46450157957E+02  0.65861953045E+03  0.66113307087E+03  0.00000000000E+00 0. -1.
         22    1    3    3    0    0 -0.35773393513E+02 -0.13603718895E+03  0.11305029832E+03  0.18046113822E+03  0.00000000000E+00 0. -1.
         22    1    3    3    0    0  0.32523857006E+02  0.12686884137E+02  0.24943776310E+02  0.42906296511E+02  0.00000000000E+00 0. -1.
</event>
<event>
 7    1  0.6597701E-006  0.1676146E+03  0.7818608E-02  0.1375694E+00
          2   -1    0    0  502    0  0.00000000000E+00  0.00000000000E+00  0.13807581294E+04  0.13807581294E+04  0.00000000000E+00 0. -1.
          1   -1    0    0  501    0 -0.00000000000E+00 -0.00000000000E+00 -0.98420019078E+03  0.98420019078E+03  0.00000000000E+00 0. -1.
         25    2    1    2    0    0  0.68712696368E+02  0.14682663502E+03  0.63228569864E+03  0.66459470401E+03  0.12498568117E+03 0.  0.
          2    1    1    2  501    0 -0.93283891590E+02 -0.13935713572E+03 -0.96055392500E+03  0.97508263165E+03  0.00000000000E+00 0. -1.
          1    1    1    2  502    0  0.24571195222E+02 -0.74694993078E+01  0.72482616495E+03  0.72528098448E+03  0.00000000000E+00 0. -1.
         22    1    3    3    0    0 -0.13437046739E+02  0.37884660958E+02  0.33606329586E+03  0.33845877236E+03  0.00000000000E+00 0. -1.
         22    1    3    3    0    0  0.82149743107E+02  0.10894197407E+03  0.29622240278E+03  0.32613593165E+03  0.00000000000E+00 0. -1.
</event>
<event>
 7    1  0.6597701E-006  0.6308176E+02  0.7818608E-02  0.1462112E+00
          2   -1    0    0  502    0  0.00000000000E+00  0.00000000000E+00  0.51688862505E+03  0.51688862505E+03  0.00000000000E+00 0. -1.
          1   -1    0    0  501    0 -0.00000000000E+00 -0.00000000000E+00 -0.18259440066E+03  0.18259440066E+03  0.00000000000E+00 0. -1.
         25    2    1    2    0    0  0.83181195368E+02  0.39508465889E+02 -0.11313620718E+02  0.15567067924E+03  0.12500132888E+03 0.  0.
          2    1    1    2  501    0 -0.35047188287E+02  0.18057395766E+00 -0.93729412320E+02  0.10006768083E+03  0.00000000000E+00 0. -1.
          1    1    1    2  502    0 -0.48134007080E+02 -0.39689039847E+02  0.43933725743E+03  0.44374466564E+03  0.00000000000E+00 0. -1.
         22    1    3    3    0    0  0.59570754592E+01  0.58109144842E+02  0.30508346059E+02  0.65900824286E+02  0.00000000000E+00 0. -1.
         22    1    3    3    0    0  0.77224119908E+02 -0.18600678953E+02 -0.41821966777E+02  0.89769854953E+02  0.00000000000E+00 0. -1.
</event>
<event>
 7    1  0.6597701E-006  0.2532197E+03  0.7818608E-02  0.1313808E+00
          2   -1    0    0  502    0  0.00000000000E+00  0.00000000000E+00  0.55213316386E+03  0.55213316386E+03  0.00000000000E+00 0. -1.
          1   -1    0    0  501    0 -0.00000000000E+00 -0.00000000000E+00 -0.18869993157E+04  0.18869993157E+04  0.00000000000E+00 0. -1.
         25    2    1    2    0    0 -0.43749855415E+02  0.27694585384E+03 -0.89899881036E+03  0.94996652318E+03  0.12499791328E+03 0.  0.
          2    1    1    2  501    0 -0.23482144426E+01 -0.28857772028E+02 -0.93205355465E+03  0.93250314415E+03  0.00000000000E+00 0. -1.
          1    1    1    2  502    0  0.46098069858E+02 -0.24808808181E+03  0.49618621317E+03  0.55666281223E+03  0.00000000000E+00 0. -1.
         22    1    3    3    0    0  0.37078501076E+02  0.63089232562E+02 -0.30066734686E+03  0.30944453457E+03  0.00000000000E+00 0. -1.
         22    1    3    3    0    0 -0.80828356491E+02  0.21385662128E+03 -0.59833146350E+03  0.64052198861E+03  0.00000000000E+00 0. -1.
</event>
<event>
 7    1  0.6597701E-006  0.8022765E+02  0.7818608E-02  0.1400118E+00
          2   -1    0    0  502    0  0.00000000000E+00  0.00000000000E+00  0.27387361411E+03  0.27387361411E+03  0.00000000000E+00 0. -1.
          1   -1    0    0  501    0 -0.00000000000E+00 -0.00000000000E+00 -0.42513131347E+03  0.42513131347E+03  0.00000000000E+00 0. -1.
         25    2    1    2    0    0  0.52428963020E+02  0.91961642739E+01 -0.12011372222E+03  0.18134327582E+03  0.12499884726E+03 0.  0.
          2    1    1    2  501    0 -0.72706114039E+02 -0.48319869236E+02 -0.26535245297E+03  0.27934371853E+03  0.00000000000E+00 0. -1.
          1    1    1    2  502    0  0.20277151020E+02  0.39123704962E+02  0.23420847584E+03  0.23831793323E+03  0.00000000000E+00 0. -1.
         22    1    3    3    0    0  0.63847933752E+02 -0.43321586281E+02 -0.46120736246E+02  0.89891272069E+02  0.00000000000E+00 0. -1.
         22    1    3    3    0    0 -0.11418970732E+02  0.52517750555E+02 -0.73992985978E+02  0.91452003750E+02  0.00000000000E+00 0. -1.
</event>
<event>
 7    1  0.6597701E-006  0.6063152E+02  0.7818608E-02  0.1488447E+00
          2   -1    0    0  502    0  0.00000000000E+00  0.00000000000E+00  0.13677639871E+04  0.13677639871E+04  0.00000000000E+00 0. -1.
          1   -1    0    0  501    0 -0.00000000000E+00 -0.00000000000E+00 -0.10797107928E+03  0.10797107928E+03  0.00000000000E+00 0. -1.
         25    2    1    2    0    0 -0.87586379032E+02  0.94574421710E+01  0.42798291765E+03  0.45448354879E+03  0.12500040526E+03 0.  0.
          2    1    1    2  501    0  0.28862331952E+02 -0.90135249330E+01 -0.91350673053E+02  0.96224858039E+02  0.00000000000E+00 0. -1.
          1    1    1    2  502    0  0.58724047080E+02 -0.44391723798E+00  0.92316066321E+03  0.92502665955E+03  0.00000000000E+00 0. -1.
         22    1    3    3    0    0 -0.72917994902E+02 -0.61085189380E+01  0.90762372075E+02  0.11658540290E+03  0.00000000000E+00 0.  1.
         22    1    3    3    0    0 -0.14668384130E+02  0.15565961109E+02  0.33722054558E+03  0.33789814589E+03  0.00000000000E+00 0.  1.
</event>
<event>
 7    1  0.6597701E-006  0.9724208E+02  0.7818608E-02  0.1316529E+00
          2   -1    0    0  502    0  0.00000000000E+00  0.00000000000E+00  0.25798608444E+04  0.25798608444E+04  0.00000000000E+00 0. -1.
          1   -1    0    0  501    0 -0.00000000000E+00 -0.00000000000E+00 -0.33861374614E+03  0.33861374614E+03  0.00000000000E+00 0. -1.
         25    2    1    2    0    0  0.16798476119E+03  0.13246912012E+02 -0.35653418253E+01  0.20983678981E+03  0.12499762408E+03 0.  0.
          2    1    1    2  501    0 -0.73317624578E+02  0.60920572991E+01 -0.22510949857E+03  0.23682667413E+03  0.00000000000E+00 0. -1.
          1    1    1    2  502    0 -0.94667136612E+02 -0.19338969311E+02  0.24699219387E+04  0.24718111266E+04  0.00000000000E+00 0. -1.
         22    1    3    3    0    0  0.14927391526E+03  0.52756140292E+02 -0.26413186306E+02  0.16051033776E+03  0.00000000000E+00 0. -1.
         22    1    3    3    0    0  0.18710845926E+02 -0.39509228280E+02  0.22847844481E+02  0.49326452051E+02  0.00000000000E+00 0. -1.
</event>
<event>
 7    1  0.6597701E-006  0.7223823E+02  0.7818608E-02  0.1467084E+00
          2   -1    0    0  502    0  0.00000000000E+00  0.00000000000E+00  0.11475240601E+04  0.11475240601E+04  0.00000000000E+00 0. -1.
          1   -1    0    0  501    0 -0.00000000000E+00 -0.00000000000E+00 -0.13543822983E+03  0.13543822983E+03  0.00000000000E+00 0. -1.
         25    2    1    2    0    0  0.14637294674E+02 -0.81813558649E+02  0.40959022498E+03  0.43622881413E+03  0.12499486833E+03 0.  0.
          2    1    1    2  501    0  0.12815374948E+02  0.70943409172E+02 -0.11114736382E+03  0.13247995178E+03  0.00000000000E+00 0. -1.
          1    1    1    2  502    0 -0.27452669622E+02  0.10870149477E+02  0.71364296909E+03  0.71425352400E+03  0.00000000000E+00 0. -1.
         22    1    3    3    0    0 -0.24615046534E+02  0.19496438969E+02  0.17376032992E+03  0.17657481107E+03  0.00000000000E+00 0. -1.
         22    1    3    3    0    0  0.39252341208E+02 -0.10130999762E+03  0.23582989505E+03  0.25965400307E+03  0.00000000000E+00 0. -1.
</event>
<event>
 7    1  0.6597701E-006  0.7606894E+02  0.7818608E-02  0.1403184E+00
          2   -1    0    0  502    0  0.00000000000E+00  0.00000000000E+00  0.90450210589E+03  0.90450210589E+03  0.00000000000E+00 0. -1.
          1   -1    0    0  501    0 -0.00000000000E+00 -0.00000000000E+00 -0.41967097413E+03  0.41967097413E+03  0.00000000000E+00 0. -1.
         25    2    1    2    0    0  0.34156057524E+02  0.11523303809E+03  0.11685725812E+03  0.20910696968E+03  0.12499926664E+03 0.  0.
          2    1    1    2  501    0 -0.17892875582E+02 -0.72885463861E+02 -0.36907215760E+03  0.37662541517E+03  0.00000000000E+00 0. -1.
          1    1    1    2  502    0 -0.16263181941E+02 -0.42347574230E+02  0.73704603123E+03  0.73844069517E+03  0.00000000000E+00 0. -1.
         22    1    3    3    0    0  0.31416684332E+02  0.93854062163E+02  0.14382215887E+03  0.17458638670E+03  0.00000000000E+00 0.  1.
         22    1    3    3    0    0  0.27393731920E+01  0.21378975928E+02 -0.26964900745E+02  0.34520582982E+02  0.00000000000E+00 0.  1.
</event>
<event>
 7    1  0.6597701E-006  0.1694132E+03  0.7818608E-02  0.1294780E+00
          2   -1    0    0  502    0  0.00000000000E+00  0.00000000000E+00  0.22652566110E+03  0.22652566110E+03  0.00000000000E+00 0. -1.
          1   -1    0    0  501    0 -0.00000000000E+00 -0.00000000000E+00 -0.41049308048E+03  0.41049308048E+03  0.00000000000E+00 0. -1.
         25    2    1    2    0    0  0.39296639857E+02 -0.18853727923E+03 -0.38987190872E+02  0.23288773432E+03  0.12500465664E+03 0.  0.
          2    1    1    2  501    0 -0.71370584726E+02  0.14822873769E+03 -0.24296911253E+03  0.29342717783E+03  0.00000000000E+00 0. -1.
          1    1    1    2  502    0  0.32073944870E+02  0.40308541533E+02  0.97988884022E+02  0.11070382944E+03  0.00000000000E+00 0. -1.
         22    1    3    3    0    0  0.41254559278E+02 -0.14232951512E+03 -0.82313606513E+02  0.16951448125E+03  0.00000000000E+00 0.  1.
         22    1    3    3    0    0 -0.19579194216E+01 -0.46207764104E+02  0.43326415641E+02  0.63373253067E+02  0.00000000000E+00 0.  1.
</event>
<event>
 7    1  0.6597701E-006  0.1177318E+03  0.7818608E-02  0.1357866E+00
          2   -1    0    0  502    0  0.00000000000E+00  0.00000000000E+00  0.10683044393E+04  0.10683044393E+04  0.00000000000E+00 0. -1.
          1   -1    0    0  501    0 -0.00000000000E+00 -0.00000000000E+00 -0.51906229035E+03  0.51906229035E+03  0.00000000000E+00 0. -1.
         25    2    1    2    0    0 -0.13882578729E+03 -0.11905929332E+02  0.57867088935E+02  0.19593553750E+03  0.12501113752E+03 0.  0.
          2    1    1    2  501    0  0.11449580422E+03 -0.22828018089E+02 -0.44196651977E+03  0.45712669162E+03  0.00000000000E+00 0. -1.
          1    1    1    2  502    0  0.24329983075E+02  0.34733947422E+02  0.93334157982E+03  0.93430450058E+03  0.00000000000E+00 0. -1.
         22    1    3    3    0    0  0.20072375176E+02  0.88700979642E+01 -0.70290583893E+01  0.23043145292E+02  0.00000000000E+00 0.  1.
         22    1    3    3    0    0 -0.15889816247E+03 -0.20776027296E+02  0.64896147325E+02  0.17289239221E+03  0.00000000000E+00 0.  1.
</event>
<event>
 7    1  0.6597701E-006  0.7390938E+02  0.7818608E-02  0.1460282E+00
          2   -1    0    0  502    0  0.00000000000E+00  0.00000000000E+00  0.23637034697E+03  0.23637034697E+03  0.00000000000E+00 0. -1.
          1   -1    0    0  501    0 -0.00000000000E+00 -0.00000000000E+00 -0.10976767612E+04  0.10976767612E+04  0.00000000000E+00 0. -1.
         25    2    1    2    0    0 -0.41017232672E+02  0.59838284649E+02 -0.36110618144E+03  0.38895523791E+03  0.12500187654E+03 0.  0.
          2    1    1    2  501    0 -0.21950815571E+02 -0.20905350400E+02 -0.71615689491E+03  0.71679813763E+03  0.00000000000E+00 0. -1.
          1    1    1    2  502    0  0.62968048243E+02 -0.38932934249E+02  0.21595666209E+03  0.22829373265E+03  0.00000000000E+00 0. -1.
         22    1    3    3    0    0 -0.67135522566E+02  0.58188374338E+02 -0.13673483407E+03  0.16306281043E+03  0.00000000000E+00 0. -1.
         22    1    3    3    0    0  0.26118289893E+02  0.16499103104E+01 -0.22437134737E+03  0.22589242747E+03  0.00000000000E+00 0. -1.
</event>
<event>
 7    1  0.6597701E-006  0.5847689E+02  0.7818608E-02  0.1501243E+00
          2   -1    0    0  502    0  0.00000000000E+00  0.00000000000E+00  0.13086332077E+04  0.13086332077E+04  0.00000000000E+00 0. -1.
          1   -1    0    0  501    0 -0.00000000000E+00 -0.00000000000E+00 -0.39030203157E+02  0.39030203157E+02  0.00000000000E+00 0. -1.
         25    2    1    2    0    0  0.67276450073E+02 -0.21658856150E+02  0.18968737328E+03  0.23791126631E+03  0.12500097708E+03 0.  0.
          2    1    1    2  501    0 -0.92764443317E+01  0.27153511275E+02  0.43208123381E+00  0.28697600739E+02  0.00000000000E+00 0. -1.
          1    1    1    2  502    0 -0.58000005741E+02 -0.54946551245E+01  0.10794835501E+04  0.10810545439E+04  0.00000000000E+00 0. -1.
         22    1    3    3    0    0  0.92999711224E+02  0.64247241364E+01  0.83677977309E+02  0.12526862039E+03  0.00000000000E+00 0.  1.
         22    1    3    3    0    0 -0.25723261151E+02 -0.28083580287E+02  0.10600939597E+03  0.11264264592E+03  0.00000000000E+00 0.  1.
</event>
<event>
 7    1  0.6597701E-006  0.5865619E+02  0.7818608E-02  0.1477644E+00
          2   -1    0    0  502    0  0.00000000000E+00  0.00000000000E+00  0.10370830703E+04  0.10370830703E+04  0.00000000000E+00 0. -1.
          1   -1    0    0  501    0 -0.00000000000E+00 -0.00000000000E+00 -0.13329522254E+03  0.13329522254E+03  0.00000000000E+00 0. -1.
         25    2    1    2    0    0  0.26002634719E+02  0.46210839233E+02  0.39254666200E+03  0.41536690651E+03  0.12500082601E+03 0.  0.
          2    1    1    2  501    0  0.53312441334E+01 -0.58677294744E+02 -0.11428396358E+03  0.12857788073E+03  0.00000000000E+00 0. -1.
          1    1    1    2  502    0 -0.31333878852E+02  0.12466455511E+02  0.62552514936E+03  0.62643350562E+03  0.00000000000E+00 0. -1.
         22    1    3    3    0    0  0.71375885396E+02  0.31069446900E+02  0.15975517883E+03  0.17771197120E+03  0.00000000000E+00 0. -1.
         22    1    3    3    0    0 -0.45373250677E+02  0.15141392333E+02  0.23279148317E+03  0.23765493531E+03  0.00000000000E+00 0. -1.
</event>
<event>
 7    1  0.6597701E-006  0.7713176E+02  0.7818608E-02  0.1393882E+00
          2   -1    0    0  502    0  0.00000000000E+00  0.00000000000E+00  0.30728085492E+03  0.30728085492E+03  0.00000000000E+00 0. -1.
          1   -1    0    0  501    0 -0.00000000000E+00 -0.00000000000E+00 -0.77507254763E+03  0.77507254763E+03  0.00000000000E+00 0. -1.
         25    2    1    2    0    0 -0.17352638104E+02 -0.26136693150E+02  0.18963964686E+03  0.22926805017E+03  0.12496560483E+03 0.  0.
          2    1    1    2  501    0 -0.54843124850E+02  0.54235971392E+02 -0.73758766019E+03  0.74160964489E+03  0.00000000000E+00 0. -1.
          1    1    1    2  502    0  0.72195762954E+02 -0.28099278241E+02  0.80156320615E+02  0.11147570749E+03  0.00000000000E+00 0. -1.
         22    1    3    3    0    0 -0.15304869588E+02 -0.46740864824E+02  0.12265089216E+02  0.50689050998E+02  0.00000000000E+00 0.  1.
         22    1    3    3    0    0 -0.20477685163E+01  0.20604171674E+02  0.17737455764E+03  0.17857899917E+03  0.00000000000E+00 0.  1.
</event>
<event>
 7    1  0.6597701E-006  0.8177930E+02  0.7818608E-02  0.1337468E+00
          2   -1    0    0  502    0  0.00000000000E+00  0.00000000000E+00  0.46222365082E+03  0.46222365082E+03  0.00000000000E+00 0. -1.
          1   -1    0    0  501    0 -0.00000000000E+00 -0.00000000000E+00 -0.16901957465E+04  0.16901957465E+04  0.00000000000E+00 0. -1.
         25    2    1    2    0    0 -0.27073050343E+02 -0.94379937151E+01  0.77006135071E+02  0.14958966294E+03  0.12500038656E+03 0.  0.
          2    1    1    2  501    0  0.14678371153E+02  0.81075269021E+02 -0.16490772688E+04  0.16511343047E+04  0.00000000000E+00 0. -1.
          1    1    1    2  502    0  0.12394679191E+02 -0.71637275306E+02  0.34409903802E+03  0.35169542967E+03  0.00000000000E+00 0. -1.
         22    1    3    3    0    0 -0.11132424728E+02  0.18370331558E+02 -0.30557460766E+02  0.37351818835E+02  0.00000000000E+00 0.  1.
         22    1    3    3    0    0 -0.15940625615E+02 -0.27808325273E+02  0.10756359584E+03  0.11223784410E+03  0.00000000000E+00 0.  1.
</event>
<event>
 7    1  0.6597701E-006  0.1130253E+03  0.7818608E-02  0.1303755E+00
          2   -1    0    0  502    0  0.00000000000E+00  0.00000000000E+00  0.59475480871E+03  0.59475480871E+03  0.00000000000E+00 0. -1.
          1   -1    0    0  501    0 -0.00000000000E+00 -0.00000000000E+00 -0.37139854103E+03  0.37139854103E+03  0.00000000000E+00 0. -1.
         25    2    1    2    0    0  0.15118966280E+03  0.87034227046E+02 -0.16832588846E+02  0.21527024232E+03  0.12499868145E+03 0.  0.
          2    1    1    2  501    0 -0.69873122041E+02 -0.13012179046E+02 -0.24411568827E+03  0.25425192083E+03  0.00000000000E+00 0. -1.
          1    1    1    2  502    0 -0.81316540762E+02 -0.74022048000E+02  0.48430454479E+03  0.49663118659E+03  0.00000000000E+00 0. -1.
         22    1    3    3    0    0  0.11849524352E+03 -0.32229625466E+01 -0.12144604926E+02  0.11915956384E+03  0.00000000000E+00 0.  1.
         22    1    3    3    0    0  0.32694419281E+02  0.90257189593E+02 -0.46879839199E+01  0.96110678484E+02  0.00000000000E+00 0.  1.
</event>
<event>
 7    1  0.6597701E-006  0.1543611E+03  0.7818608E-02  0.1306038E+00
          2   -1    0    0  502    0  0.00000000000E+00  0.00000000000E+00  0.12490633676E+04  0.12490633676E+04  0.00000000000E+00 0. -1.
          1   -1    0    0  501    0 -0.00000000000E+00 -0.00000000000E+00 -0.49898379746E+02  0.49898379746E+02  0.00000000000E+00 0. -1.
         25    2    1    2    0    0  0.11036095151E+02 -0.14331691301E+03  0.57176226543E+03  0.60266000038E+03  0.12500181977E+03 0.  0.
          2    1    1    2  501    0 -0.61849865257E+02  0.14725499545E+03  0.15980961383E+03  0.22593926660E+03  0.00000000000E+00 0. -1.
          1    1    1    2  502    0  0.50813770106E+02 -0.39380824426E+01  0.46759310858E+03  0.47036248035E+03  0.00000000000E+00 0. -1.
         22    1    3    3    0    0 -0.25603119320E+02 -0.10631342550E+03  0.20614925416E+03  0.23335719219E+03  0.00000000000E+00 0.  1.
         22    1    3    3    0    0  0.36639214471E+02 -0.37003487514E+02  0.36561301127E+03  0.36930280819E+03  0.00000000000E+00 0.  1.
</event>
<event>
 7    1  0.6597701E-006  0.7518145E+02  0.7818608E-02  0.1438981E+00
          2   -1    0    0  502    0  0.00000000000E+00  0.00000000000E+00  0.23530963157E+03  0.23530963157E+03  0.00000000000E+00 0. -1.
          1   -1    0    0  501    0 -0.00000000000E+00 -0.00000000000E+00 -0.14952629237E+03  0.14952629237E+03  0.00000000000E+00 0. -1.
         25    2    1    2    0    0 -0.78718621007E+02  0.21957857225E+02 -0.36783489354E+02  0.15380805641E+03  0.12500049735E+03 0.  0.
          2    1    1    2  501    0  0.73541370876E+02  0.12522111179E+02 -0.25556702417E+02  0.78856081168E+02  0.00000000000E+00 0. -1.
          1    1    1    2  502    0  0.51772501305E+01 -0.34479968404E+02  0.14812353097E+03  0.15217178637E+03  0.00000000000E+00 0. -1.
         22    1    3    3    0    0  0.31415912929E+02  0.35826793919E+01  0.93845035429E+01  0.32982784654E+02  0.00000000000E+00 0. -1.
         22    1    3    3    0    0 -0.11013453394E+03  0.18375177833E+02 -0.46167992897E+02  0.12082527175E+03  0.00000000000E+00 0. -1.
</event>
<event>
 7    1  0.6597701E-006  0.6338112E+02  0.7818608E-02  0.1408722E+00
          2   -1    0    0  502    0  0.00000000000E+00  0.00000000000E+00  0.92712924601E+02  0.92712924601E+02  0.00000000000E+00 0. -1.
          1   -1    0    0  501    0 -0.00000000000E+00 -0.00000000000E+00 -0.17869766305E+04  0.17869766305E+04  0.00000000000E+00 0. -1.
         25    2    1    2    0    0  0.51344462086E+02  0.80873599771E+01 -0.11136796271E+04  0.11218769997E+04  0.12499612570E+03 0.  0.
          2    1    1    2  501    0 -0.45231888813E+02 -0.59856211832E+02 -0.65921564929E+03  0.66347114642E+03  0.00000000000E+00 0. -1.
          1    1    1    2  502    0 -0.61125732730E+01  0.51768851855E+02  0.78631570486E+02  0.94341408997E+02  0.00000000000E+00 0. -1.
         22    1    3    3    0    0  0.78674569557E+02 -0.11218788144E+02 -0.42382278072E+03  0.43120911233E+03  0.00000000000E+00 0. -1.
         22    1    3    3    0    0 -0.27330107471E+02  0.19306148121E+02 -0.68985684638E+03  0.69066788736E+03  0.00000000000E+00 0. -1.
</event>
<event>
 7    1  0.6597701E-006  0.2978489E+02  0.7818608E-02  0.1658415E+00
          2   -1    0    0  502    0  0.00000000000E+00  0.00000000000E+00  0.61472603781E+03  0.61472603781E+03  0.00000000000E+00 0. -1.
          1   -1    0    0  501    0 -0.00000000000E+00 -0.00000000000E+00 -0.73107099450E+03  0.73107099450E+03  0.00000000000E+00 0. -1.
         25    2    1    2    0    0 -0.25866244872E+02  0.21745549747E+00  0.41517981598E+02  0.13423401810E+03  0.12500367558E+03 0.  0.
          2    1    1    2  501    0  0.21193309776E+02 -0.20987114368E+02 -0.68417286934E+03  0.68482270004E+03  0.00000000000E+00 0. -1.
          1    1    1    2  502    0  0.46729350955E+01  0.20769658871E+02  0.52630993105E+03  0.52674031417E+03  0.00000000000E+00 0. -1.
         22    1    3    3    0    0  0.25443972718E+02 -0.16887693397E+02  0.67607114657E+02  0.74184310256E+02  0.00000000000E+00 0. -1.
         22    1    3    3    0    0 -0.51310217590E+02  0.17105148895E+02 -0.26089133058E+02  0.60049707839E+02  0.00000000000E+00 0. -1.
</event>
<event>
 7    1  0.6597701E-006  0.3509507E+02  0.7818608E-02  0.1593065E+00
          2   -1    0    0  502    0  0.00000000000E+00  0.00000000000E+00  0.34840833631E+04  0.34840833631E+04  0.00000000000E+00 0. -1.
          1   -1    0    0  501    0 -0.00000000000E+00 -0.00000000000E+00 -0.10337096552E+04  0.10337096552E+04  0.00000000000E+00 0. -1.
         25    2    1    2    0    0 -0.10000258277E+02 -0.15774149880E+02  0.30960113245E+04  0.30985898475E+04  0.12499637112E+03 0.  0.
          2    1    1    2  501    0 -0.92964496507E+01  0.33843647933E+02 -0.10316699109E+04  0.10322667395E+04  0.00000000000E+00 0. -1.
          1    1    1    2  502    0  0.19296707928E+02 -0.18069498053E+02  0.38603229424E+03  0.38693643133E+03  0.00000000000E+00 0. -1.
         22    1    3    3    0    0  0.11545180821E+01 -0.70490234525E+02  0.16874464707E+04  0.16889185290E+04  0.00000000000E+00 0. -1.
         22    1    3    3    0    0 -0.11154776359E+02  0.54716084645E+02  0.14085648538E+04  0.14096713186E+04  0.00000000000E+00 0. -1.
</event>
<event>
 7    1  0.6597701E-006  0.4799502E+02  0.7818608E-02  0.1481246E+00
          2   -1    0    0  502    0  0.00000000000E+00  0.00000000000E+00  0.20403071705E+04  0.20403071705E+04  0.00000000000E+00 0. -1.
          1   -1    0    0  501    0 -0.00000000000E+00 -0.00000000000E+00 -0.22357733278E+02  0.22357733278E+02  0.00000000000E+00 0. -1.
         25    2    1    2    0    0 -0.74008553107E+02 -0.17423372048E+02  0.15593595876E+04  0.15662081399E+04  0.12499909673E+03 0.  0.
          2    1    1    2  501    0  0.36171620848E+02  0.30936154646E+02  0.13385152815E+02  0.49442837044E+02  0.00000000000E+00 0. -1.
          1    1    1    2  502    0  0.37836932259E+02 -0.13512782598E+02  0.44520469688E+03  0.44701392692E+03  0.00000000000E+00 0. -1.
         22    1    3    3    0    0 -0.14097693758E+02  0.38303377236E+02  0.10064432559E+04  0.10072705303E+04  0.00000000000E+00 0.  1.
         22    1    3    3    0    0 -0.59910859349E+02 -0.55726749284E+02  0.55291633163E+03  0.55893760961E+03  0.00000000000E+00 0.  1.
</event>
<event>
 7    1  0.6597701E-006  0.9307749E+02  0.7818608E-02  0.1427168E+00
          2   -1    0    0  502    0  0.00000000000E+00  0.00000000000E+00  0.14235190327E+03  0.14235190327E+03  0.00000000000E+00 0. -1.
          1   -1    0    0  501    0 -0.00000000000E+00 -0.00000000000E+00 -0.11770046081E+04  0.11770046081E+04  0.00000000000E+00 0. -1.
         25    2    1    2    0    0 -0.62360048086E+02 -0.92803719162E+02 -0.27471732620E+03  0.32186315134E+03  0.12499989194E+03 0.  0.
          2    1    1    2  501    0  0.66893167015E+02  0.62350360297E+02 -0.87429363778E+03  0.87906292624E+03  0.00000000000E+00 0. -1.
          1    1    1    2  502    0 -0.45331189297E+01  0.30453358865E+02  0.11435825911E+03  0.11843043384E+03  0.00000000000E+00 0. -1.
         22    1    3    3    0    0 -0.46767669134E+02 -0.12411308539E+03 -0.22180414322E+03  0.25843442261E+03  0.00000000000E+00 0.  1.
         22    1    3    3    0    0 -0.15592378952E+02  0.31309366224E+02 -0.52913182988E+02  0.63428728733E+02  0.00000000000E+00 0.  1.
</event>
<event>
 7    1  0.6597701E-006  0.1283069E+03  0.7818608E-02  0.1433512E+00
          2   -1    0    0  502    0  0.00000000000E+00  0.00000000000E+00  0.57075494901E+03  0.57075494901E+03  0.00000000000E+00 0. -1.
          1   -1    0    0  501    0 -0.00000000000E+00 -0.00000000000E+00 -0.94725625329E+03  0.94725625329E+03  0.00000000000E+00 0. -1.
         25    2    1    2    0    0  0.22533604208E+02  0.10603739704E+03  0.75930495423E+02  0.18205809624E+03  0.12501206895E+03 0.  0.
          2    1    1    2  501    0 -0.32418610617E+02 -0.12489000104E+03 -0.88927732268E+03  0.89858924727E+03  0.00000000000E+00 0. -1.
          1    1    1    2  502    0  0.98850064094E+01  0.18852603996E+02  0.43684552298E+03  0.43736385879E+03  0.00000000000E+00 0. -1.
         22    1    3    3    0    0  0.23037258837E+02  0.22743814508E+01 -0.27229593542E+02  0.35739877870E+02  0.00000000000E+00 0. -1.
         22    1    3    3    0    0 -0.50365462958E+00  0.10376301559E+03  0.10316008896E+03  0.14631821837E+03  0.00000000000E+00 0. -1.
</event>
<event>
 7    1  0.6597701E-006  0.1496513E+03  0.7818608E-02  0.1293947E+00
          2   -1    0    0  502    0  0.00000000000E+00  0.00000000000E+00  0.36532172118E+03  0.36532172118E+03  0.00000000000E+00 0. -1.
          1   -1    0    0  501    0 -0.00000000000E+00 -0.00000000000E+00 -0.11993562616E+04  0.11993562616E+04  0.00000000000E+00 0. -1.
         25    2    1    2    0    0 -0.17012602513E+03 -0.10667176940E+03 -0.41519301962E+03  0.47783418443E+03  0.12497413112E+03 0.  0.
          2    1    1    2  501    0  0.57819656563E+02  0.10515127738E+02 -0.73525123693E+03  0.73759613746E+03  0.00000000000E+00 0. -1.
          1    1    1    2  502    0  0.11230636857E+03  0.96156641659E+02  0.31640971615E+03  0.34924766088E+03  0.00000000000E+00 0. -1.
         22    1    3    3    0    0  0.10236565413E+02 -0.44134518814E+02 -0.70277575723E+02  0.83615672406E+02  0.00000000000E+00 0.  1.
         22    1    3    3    0    0 -0.18036259055E+03 -0.62537250583E+02 -0.34491544390E+03  0.39421851202E+03  0.00000000000E+00 0.  1.
</event>
<event>
 7    1  0.6597701E-006  0.7016912E+02  0.7818608E-02  0.1374572E+00
          2   -1    0    0  502    0  0.00000000000E+00  0.00000000000E+00  0.35735454656E+03  0.35735454656E+03  0.00000000000E+00 0. -1.
          1   -1    0    0  501    0 -0.00000000000E+00 -0.00000000000E+00 -0.89880897418E+03  0.89880897418E+03  0.00000000000E+00 0. -1.
         25    2    1    2    0    0  0.12633821513E+03 -0.21288373527E+02 -0.13673582476E+01  0.17899897835E+03  0.12499690049E+03 0.  0.
          2    1    1    2  501    0 -0.61901628226E+02  0.12413685336E+01 -0.80317592297E+03  0.80555876000E+03  0.00000000000E+00 0. -1.
          1    1    1    2  502    0 -0.64436586904E+02  0.20047004993E+02  0.26308885360E+03  0.27160578239E+03  0.00000000000E+00 0. -1.
         22    1    3    3    0    0  0.13269874047E+03  0.20998070078E+02 -0.12150765245E+02  0.13489816814E+03  0.00000000000E+00 0.  1.
         22    1    3    3    0    0 -0.63605253429E+01 -0.42286443604E+02  0.10783406997E+02  0.44100810217E+02  0.00000000000E+00 0.  1.
</event>
<event>
 7    1  0.6597701E-006  0.1492387E+03  0.7818608E-02  0.1309059E+00
          2   -1    0    0  502    0  0.00000000000E+00  0.00000000000E+00  0.34978297657E+03  0.34978297657E+03  0.00000000000E+00 0. -1.
          1   -1    0    0  501    0 -0.00000000000E+00 -0.00000000000E+00 -0.59823567296E+03  0.59823567296E+03  0.00000000000E+00 0. -1.
         25    2    1    2    0    0 -0.95469087501E+02 -0.50291642233E+02  0.94996911928E+02  0.19050882036E+03  0.12500240563E+03 0.  0.
          2    1    1    2  501    0  0.14624609680E+03  0.43095394522E+02 -0.53651063729E+03  0.55775334852E+03  0.00000000000E+00 0. -1.
          1    1    1    2  502    0 -0.50777009296E+02  0.71962477106E+01  0.19306102898E+03  0.19975648065E+03  0.00000000000E+00 0. -1.
         22    1    3    3    0    0 -0.58096334486E+02 -0.17736994901E+02  0.12036985187E+03  0.13482835869E+03  0.00000000000E+00 0.  1.
         22    1    3    3    0    0 -0.37372753015E+02 -0.32554647332E+02 -0.25372939939E+02  0.55680461672E+02  0.00000000000E+00 0.  1.
</event>
<event>
 7    1  0.6597701E-006  0.1229175E+03  0.7818608E-02  0.1244422E+00
          2   -1    0    0  502    0  0.00000000000E+00  0.00000000000E+00  0.59053250548E+03  0.59053250548E+03  0.00000000000E+00 0. -1.
          1   -1    0    0  501    0 -0.00000000000E+00 -0.00000000000E+00 -0.82168281262E+03  0.82168281262E+03  0.00000000000E+00 0. -1.
         25    2    1    2    0    0 -0.18958011405E+03  0.14130328761E+03 -0.41381124838E+03  0.49271809351E+03  0.12499652656E+03 0.  0.
          2    1    1    2  501    0  0.96499731719E+02 -0.63641222763E+02 -0.35240044101E+03  0.37087528130E+03  0.00000000000E+00 0. -1.
          1    1    1    2  502    0  0.93080382332E+02 -0.77662064851E+02  0.53506138224E+03  0.54862194329E+03  0.00000000000E+00 0. -1.
         22    1    3    3    0    0 -0.15216574893E+03  0.58233732105E+02 -0.18545549075E+03  0.24685891062E+03  0.00000000000E+00 0. -1.
         22    1    3    3    0    0 -0.37414365121E+02  0.83069555510E+02 -0.22835575763E+03  0.24585918289E+03  0.00000000000E+00 0. -1.
</event>
<event>
 7    1  0.6597701E-006  0.8387964E+02  0.7818608E-02  0.1376547E+00
          2   -1    0    0  502    0  0.00000000000E+00  0.00000000000E+00  0.15210146014E+03  0.15210146014E+03  0.00000000000E+00 0. -1.
          1   -1    0    0  501    0 -0.00000000000E+00 -0.00000000000E+00 -0.66341208056E+03  0.66341208056E+03  0.00000000000E+00 0. -1.
         25    2    1    2    0    0  0.50502562240E+02  0.21170979794E+02 -0.10120788412E+03  0.16990319187E+03  0.12500135847E+03 0.  0.
          2    1    1    2  501    0 -0.86628914456E+02  0.14771774527E+02 -0.51846670702E+03  0.52586167424E+03  0.00000000000E+00 0. -1.
          1    1    1    2  502    0  0.36126352216E+02 -0.35942754321E+02  0.10836397073E+03  0.11974867459E+03  0.00000000000E+00 0. -1.
         22    1    3    3    0    0 -0.23824602536E+02  0.42978802819E+02 -0.71890013312E+02  0.87080211252E+02  0.00000000000E+00 0.  1.
         22    1    3    3    0    0  0.74327164776E+02 -0.21807823026E+02 -0.29317870812E+02  0.82822980614E+02  0.00000000000E+00 0.  1.
</event>
<event>
 7    1  0.6597701E-006  0.7035577E+02  0.7818608E-02  0.1362759E+00
          2   -1    0    0  502    0  0.00000000000E+00  0.00000000000E+00  0.18744161106E+04  0.18744161106E+04  0.00000000000E+00 0. -1.
          1   -1    0    0  501    0 -0.00000000000E+00 -0.00000000000E+00 -0.10843480089E+04  0.10843480089E+04  0.00000000000E+00 0. -1.
         25    2    1    2    0    0 -0.12508296558E+03 -0.24756944166E+02  0.29771848590E+03  0.34716055597E+03  0.12500200082E+03 0.  0.
          2    1    1    2  501    0  0.67003434712E+02 -0.12206018969E+02 -0.10577678259E+04  0.10599581222E+04  0.00000000000E+00 0. -1.
          1    1    1    2  502    0  0.58079530872E+02  0.36962963135E+02  0.15501174417E+04  0.15516454413E+04  0.00000000000E+00 0. -1.
         22    1    3    3    0    0 -0.30528214035E+02 -0.53575522840E+02  0.46610876683E+02  0.77297362988E+02  0.00000000000E+00 0. -1.
         22    1    3    3    0    0 -0.94554751550E+02  0.28818578674E+02  0.25110760922E+03  0.26986319298E+03  0.00000000000E+00 0. -1.
</event>
<event>
 7    1  0.7477736E-006  0.6548094E+02  0.7818608E-02  0.1383368E+00
          2   -1    0    0  502    0  0.00000000000E+00  0.00000000000E+00  0.17245917213E+04  0.17245917213E+04  0.00000000000E+00 0. -1.
          1   -1    0    0  501    0 -0.00000000000E+00 -0.00000000000E+00 -0.61663944936E+03  0.61663944936E+03  0.00000000000E+00 0. -1.
         25    2    1    2    0    0  0.42679034118E+02  0.50959920246E+02 -0.80438611857E+02  0.16281967013E+03  0.12498584431E+03 0.  0.
          2    1    1    2  501    0 -0.66663424124E+02  0.59387122218E+01 -0.49217851518E+03  0.49670813485E+03  0.00000000000E+00 0. -1.
          1    1    1    2  502    0  0.23984390005E+02 -0.56898632468E+02  0.16805693989E+04  0.16817033656E+04  0.00000000000E+00 0. -1.
         22    1    3    3    0    0  0.31750984498E+02  0.47913886305E+02 -0.11384880527E+03  0.12753593995E+03  0.00000000000E+00 0. -1.
         22    1    3    3    0    0  0.10928049620E+02  0.30460339413E+01  0.33410193415E+02  0.35283730178E+02  0.00000000000E+00 0. -1.
</event>
<event>
 7    1  0.6597701E-006  0.7531297E+02  0.7818608E-02  0.1367927E+00
          2   -1    0    0  502    0  0.00000000000E+00  0.00000000000E+00  0.10459755661E+04  0.10459755661E+04  0.00000000000E+00 0. -1.
          1   -1    0    0  501    0 -0.00000000000E+00 -0.00000000000E+00 -0.27786788182E+04  0.27786788182E+04  0.00000000000E+00 0. -1.
         25    2    1    2    0    0 -0.11309049921E+03 -0.36719503018E+02 -0.97394347201E+02  0.19811035101E+03  0.12499707756E+03 0.  0.
          2    1    1    2  501    0  0.74269898696E+02 -0.10256234119E+02 -0.26294591052E+04  0.26305277786E+04  0.00000000000E+00 0. -1.
          1    1    1    2  502    0  0.38820600510E+02  0.46975737138E+02  0.99415020030E+03  0.99601625472E+03  0.00000000000E+00 0. -1.
         22    1    3    3    0    0 -0.12181687083E+03 -0.25067912020E+02 -0.11895276242E+03  0.17209738499E+03  0.00000000000E+00 0.  1.
         22    1    3    3    0    0  0.87263716217E+01 -0.11651590998E+02  0.21558415220E+02  0.26012966022E+02  0.00000000000E+00 0.  1.
</event>
<event>
 7    1  0.6597701E-006  0.2199111E+03  0.7818608E-02  0.1251837E+00
          2   -1    0    0  502    0  0.00000000000E+00  0.00000000000E+00  0.20480081560E+03  0.20480081560E+03  0.00000000000E+00 0. -1.
          1   -1    0    0  501    0 -0.00000000000E+00 -0.00000000000E+00 -0.16065847880E+04  0.16065847880E+04  0.00000000000E+00 0. -1.
         25    2    1    2    0    0 -0.17137739479E+03 -0.33890470074E+01 -0.58657202692E+03  0.62375604369E+03  0.12499264855E+03 0.  0.
          2    1    1    2  501    0 -0.51623387447E+02 -0.30548450094E+02 -0.93178882650E+03  0.93371762280E+03  0.00000000000E+00 0. -1.
          1    1    1    2  502    0  0.22300078223E+03  0.33937497101E+02  0.11657688106E+03  0.25391193707E+03  0.00000000000E+00 0. -1.
         22    1    3    3    0    0 -0.67771906199E+02 -0.11412157635E+02 -0.74958577749E+02  0.10169590449E+03  0.00000000000E+00 0. -1.
         22    1    3    3    0    0 -0.10360548859E+03  0.80231106274E+01 -0.51161344917E+03  0.52206013920E+03  0.00000000000E+00 0. -1.
</event>
<event>
 7    1  0.6597701E-006  0.1025443E+03  0.7818608E-02  0.1332481E+00
          2   -1    0    0  502    0  0.00000000000E+00  0.00000000000E+00  0.23368869937E+03  0.23368869937E+03  0.00000000000E+00 0. -1.
          1   -1    0    0  501    0 -0.00000000000E+00 -0.00000000000E+00 -0.11141661928E+04  0.11141661928E+04  0.00000000000E+00 0. -1.
         25    2    1    2    0    0 -0.51178765249E+02  0.52420058390E+02 -0.49689015155E+03  0.51758816124E+03  0.12502221168E+03 0.  0.
          2    1    1    2  501    0  0.11169269172E+03 -0.50077784277E+02 -0.59648940224E+03  0.60891924658E+03  0.00000000000E+00 0. -1.
          1    1    1    2  502    0 -0.60513926468E+02 -0.23422741132E+01  0.21290206034E+03  0.22134748438E+03  0.00000000000E+00 0. -1.
         22    1    3    3    0    0 -0.47192251706E+02  0.80064453285E+02 -0.46899057093E+03  0.47811042754E+03  0.00000000000E+00 0.  1.
         22    1    3    3    0    0 -0.39865135424E+01 -0.27644394895E+02 -0.27899580625E+02  0.39477733704E+02  0.00000000000E+00 0.  1.
</event>
<event>
 7    1  0.6597701E-006  0.1425899E+03  0.7818608E-02  0.1316227E+00
          2   -1    0    0  502    0  0.00000000000E+00  0.00000000000E+00  0.23727269532E+04  0.23727269532E+04  0.00000000000E+00 0. -1.
          1   -1    0    0  501    0 -0.00000000000E+00 -0.00000000000E+00 -0.11993410010E+03  0.11993410010E+03  0.00000000000E+00 0. -1.
         25    2    1    2    0    0  0.53374169810E+02 -0.10166435859E+03  0.12898638481E+04  0.13009834893E+04  0.12499939583E+03 0.  0.
          2    1    1    2  501    0 -0.10364202486E+03  0.99632128396E+02 -0.68340826754E+02  0.15918133976E+03  0.00000000000E+00 0. -1.
          1    1    1    2  502    0  0.50267855053E+02  0.20322301974E+01  0.10312698317E+04  0.10324962242E+04  0.00000000000E+00 0. -1.
         22    1    3    3    0    0  0.67099672130E+01 -0.28040119293E+01  0.82678533015E+00  0.73191336154E+01  0.00000000000E+00 0. -1.
         22    1    3    3    0    0  0.46664202597E+02 -0.98860346664E+02  0.12890370628E+04  0.12936643557E+04  0.00000000000E+00 0. -1.
</event>
<event>
 7    1  0.6597701E-006  0.2512912E+02  0.7818608E-02  0.1668575E+00
          2   -1    0    0  502    0  0.00000000000E+00  0.00000000000E+00  0.81801523933E+02  0.81801523933E+02  0.00000000000E+00 0. -1.
          1   -1    0    0  501    0 -0.00000000000E+00 -0.00000000000E+00 -0.38371009732E+03  0.38371009732E+03  0.00000000000E+00 0. -1.
         25    2    1    2    0    0  0.19118223734E+02  0.22503020250E+02 -0.16536183596E+03  0.20938279467E+03  0.12499890205E+03 0.  0.
          2    1    1    2  501    0 -0.23738759581E+02  0.22906570344E+01 -0.19291083355E+03  0.19437943698E+03  0.00000000000E+00 0. -1.
          1    1    1    2  502    0  0.46205358465E+01 -0.24793677284E+02  0.56364096125E+02  0.61749389607E+02  0.00000000000E+00 0. -1.
         22    1    3    3    0    0 -0.85608695370E+01 -0.32767247241E+02 -0.13744744994E+03  0.14155840658E+03  0.00000000000E+00 0.  1.
         22    1    3    3    0    0  0.27679093271E+02  0.55270267491E+02 -0.27914386015E+02  0.67824388088E+02  0.00000000000E+00 0.  1.
</event>
<event>
 7    1  0.6597701E-006  0.9545183E+02  0.7818608E-02  0.1374238E+00
          2   -1    0    0  502    0  0.00000000000E+00  0.00000000000E+00  0.36203978823E+03  0.36203978823E+03  0.00000000000E+00 0. -1.
          1   -1    0    0  501    0 -0.00000000000E+00 -0.00000000000E+00 -0.55251990847E+03  0.55251990847E+03  0.00000000000E+00 0. -1.
         25    2    1    2    0    0  0.38003061746E+02  0.40512034635E+02 -0.20081251356E+03  0.24296925387E+03  0.12499174001E+03 0.  0.
          2    1    1    2  501    0  0.44538109786E+02  0.99663528877E+01 -0.32212416968E+03  0.32534128559E+03  0.00000000000E+00 0. -1.
          1    1    1    2  502    0 -0.82541171532E+02 -0.50478387523E+02  0.33245656301E+03  0.34624915724E+03  0.00000000000E+00 0. -1.
         22    1    3    3    0    0  0.36688859747E+02 -0.33439031868E+02 -0.33079847205E+02  0.59653311500E+02  0.00000000000E+00 0. -1.
         22    1    3    3    0    0  0.13142019988E+01  0.73951066503E+02 -0.16773266635E+03  0.18331594237E+03  0.00000000000E+00 0. -1.
</event>
<event>
 7    1  0.6597701E-006  0.1981176E+03  0.7818608E-02  0.1304899E+00
          2   -1    0    0  502    0  0.00000000000E+00  0.00000000000E+00  0.23310421969E+04  0.23310421969E+04  0.00000000000E+00 0. -1.
          1   -1    0    0  501    0 -0.00000000000E+00 -0.00000000000E+00 -0.10000657538E+03  0.10000657538E+03  0.00000000000E+00 0. -1.
         25    2    1    2    0    0 -0.15558365998E+03  0.79233640839E+02  0.44594594698E+03  0.49495080486E+03  0.12499706600E+03 0.  0.
          2    1    1    2  501    0  0.16889316640E+03 -0.11708695976E+03  0.65005363129E+02  0.21554571450E+03  0.00000000000E+00 0. -1.
          1    1    1    2  502    0 -0.13309506418E+02  0.37853318921E+02  0.17200843114E+04  0.17205522529E+04  0.00000000000E+00 0. -1.
         22    1    3    3    0    0 -0.16578590560E+03  0.74329093466E+02  0.44800589062E+03  0.48344499032E+03  0.00000000000E+00 0. -1.
         22    1    3    3    0    0  0.10202245618E+02  0.49045473735E+01 -0.20599436376E+01  0.11505814546E+02  0.00000000000E+00 0. -1.
</event>
<event>
 7    1  0.6597701E-006  0.7190026E+02  0.7818608E-02  0.1441107E+00
          2   -1    0    0  502    0  0.00000000000E+00  0.00000000000E+00  0.15381986714E+03  0.15381986714E+03  0.00000000000E+00 0. -1.
          1   -1    0    0  501    0 -0.00000000000E+00 -0.00000000000E+00 -0.22269669279E+04  0.22269669279E+04  0.00000000000E+00 0. -1.
         25    2    1    2    0    0 -0.63393335989E+02 -0.20605020804E+02  0.14799616835E+02  0.14242549604E+03  0.12499084500E+03 0.  0.
          2    1    1    2  501    0  0.48479396801E+02  0.53241928455E+02 -0.21582389619E+04  0.21594398282E+04  0.00000000000E+00 0. -1.
          1    1    1    2  502    0  0.14913939188E+02 -0.32636907651E+02  0.70292284303E+02  0.78921470815E+02  0.00000000000E+00 0. -1.
         22    1    3    3    0    0 -0.80045355864E+02 -0.54984265272E+02  0.29503123483E+02  0.10149365851E+03  0.00000000000E+00 0. -1.
         22    1    3    3    0    0  0.16652019875E+02  0.34379244467E+02 -0.14703506647E+02  0.40931837532E+02  0.00000000000E+00 0. -1.
</event>
<event>
 7    1  0.6597701E-006  0.7051730E+02  0.7818608E-02  0.1427010E+00
          2   -1    0    0  502    0  0.00000000000E+00  0.00000000000E+00  0.39729540296E+04  0.39729540296E+04  0.00000000000E+00 0. -1.
          1   -1    0    0  501    0 -0.00000000000E+00 -0.00000000000E+00 -0.62009957926E+03  0.62009957926E+03  0.00000000000E+00 0. -1.
         25    2    1    2    0    0  0.35694020094E+02 -0.78476355297E+01  0.12091269909E+04  0.12161202195E+04  0.12499863828E+03 0.  0.
          2    1    1    2  501    0  0.33113180444E+02 -0.23643609555E+02 -0.61541244533E+03  0.61675601405E+03  0.00000000000E+00 0. -1.
          1    1    1    2  502    0 -0.68807200538E+02  0.31491245085E+02  0.27591399048E+04  0.27601773754E+04  0.00000000000E+00 0. -1.
         22    1    3    3    0    0  0.51064911316E+02 -0.49052490299E+01  0.11912773304E+04  0.11923813839E+04  0.00000000000E+00 0. -1.
         22    1    3    3    0    0 -0.15370891222E+02 -0.29423864998E+01  0.17849660492E+02  0.23738835585E+02  0.00000000000E+00 0. -1.
</event>
<event>
 7    1  0.6597701E-006  0.1062490E+03  0.7818608E-02  0.1304881E+00
          2   -1    0    0  502    0  0.00000000000E+00  0.00000000000E+00  0.28105621842E+04  0.28105621842E+04  0.00000000000E+00 0. -1.
          1   -1    0    0  501    0 -0.00000000000E+00 -0.00000000000E+00 -0.84061465973E+03  0.84061465973E+03  0.00000000000E+00 0. -1.
         25    2    1    2    0    0 -0.17361206638E+03 -0.36523252499E+02  0.32014062723E+03  0.38677371340E+03  0.12501514553E+03 0.  0.
          2    1    1    2  501    0  0.10541909276E+03  0.57084050058E+01 -0.80327354785E+03  0.81018156217E+03  0.00000000000E+00 0. -1.
          1    1    1    2  502    0  0.68192973621E+02  0.30814847493E+02  0.24530804451E+04  0.24542215684E+04  0.00000000000E+00 0. -1.
         22    1    3    3    0    0 -0.64680289060E+02  0.46324469640E+02  0.10385314894E+03  0.13082420580E+03  0.00000000000E+00 0.  1.
         22    1    3    3    0    0 -0.10893177732E+03 -0.82847722139E+02  0.21628747829E+03  0.25594950760E+03  0.00000000000E+00 0.  1.
</event>
<event>
 7    1  0.6597701E-006  0.1225036E+03  0.7818608E-02  0.1326165E+00
          2   -1    0    0  502    0  0.00000000000E+00  0.00000000000E+00  0.24523289158E+04  0.24523289158E+04  0.00000000000E+00 0. -1.
          1   -1    0    0  501    0 -0.00000000000E+00 -0.00000000000E+00 -0.12105481207E+04  0.12105481207E+04  0.00000000000E+00 0. -1.
         25    2    1    2    0    0  0.73157561423E+02  0.15909750810E+03  0.11300841493E+03  0.24300692312E+03  0.12496966416E+03 0.  0.
          2    1    1    2  501    0 -0.52161545322E+02 -0.10978952211E+03 -0.11420074752E+04  0.11484579398E+04  0.00000000000E+00 0. -1.
          1    1    1    2  502    0 -0.20996016101E+02 -0.49307985986E+02  0.22707798554E+04  0.22714121735E+04  0.00000000000E+00 0. -1.
         22    1    3    3    0    0  0.76231360658E+02  0.58641850134E+02  0.62436280232E+01  0.96379820636E+02  0.00000000000E+00 0.  1.
         22    1    3    3    0    0 -0.30737992351E+01  0.10045565796E+03  0.10676478691E+03  0.14662710248E+03  0.00000000000E+00 0.  1.
</event>
<event>
 7    1  0.6597701E-006  0.5394061E+02  0.7818608E-02  0.1443103E+00
          2   -1    0    0  502    0  0.00000000000E+00  0.00000000000E+00  0.11396165354E+04  0.11396165354E+04  0.00000000000E+00 0. -1.
          1   -1    0    0  501    0 -0.00000000000E+00 -0.00000000000E+00 -0.57600159842E+03  0.57600159842E+03  0.00000000000E+00 0. -1.
         25    2    1    2    0    0 -0.29593817179E+02  0.29461302218E+02 -0.27381930612E+03  0.30388517038E+03  0.12500168810E+03 0.  0.
          2    1    1    2  501    0 -0.23161660954E+02 -0.41039478999E+02 -0.28456194870E+03  0.28843752187E+03  0.00000000000E+00 0. -1.
          1    1    1    2  502    0  0.52755478133E+02  0.11578176781E+02  0.11219961918E+04  0.11232954416E+04  0.00000000000E+00 0. -1.
         22    1    3    3    0    0 -0.28005905867E+01 -0.47427204582E+02 -0.13286209467E+03  0.14110109582E+03  0.00000000000E+00 0. -1.
         22    1    3    3    0    0 -0.26793226592E+02  0.76888506800E+02 -0.14095721145E+03  0.16278407456E+03  0.00000000000E+00 0. -1.
</event>
<event>
 7    1  0.6597701E-006  0.1249912E+03  0.7818608E-02  0.1324208E+00
          2   -1    0    0  502    0  0.00000000000E+00  0.00000000000E+00  0.47127012991E+03  0.47127012991E+03  0.00000000000E+00 0. -1.
          1   -1    0    0  501    0 -0.00000000000E+00 -0.00000000000E+00 -0.46530734949E+03  0.46530734949E+03  0.00000000000E+00 0. -1.
         25    2    1    2    0    0  0.97629288343E+02  0.24945574529E+02 -0.20066550121E+03  0.25699402203E+03  0.12500209738E+03 0.  0.
          2    1    1    2  501    0 -0.14593569975E+03 -0.20810340706E+01 -0.21209657069E+03  0.25746167572E+03  0.00000000000E+00 0. -1.
          1    1    1    2  502    0  0.48306411408E+02 -0.22864540458E+02  0.41872485232E+03  0.42212178165E+03  0.00000000000E+00 0. -1.
         22    1    3    3    0    0  0.10747127999E+03  0.40984701285E+02 -0.20727409301E+03  0.23704930162E+03  0.00000000000E+00 0.  1.
         22    1    3    3    0    0 -0.98419916498E+01 -0.16039126756E+02  0.66085917995E+01  0.19944720412E+02  0.00000000000E+00 0.  1.
</event>
<event>
 7    1  0.6597701E-006  0.2162149E+03  0.7818608E-02  0.1374710E+00
          2   -1    0    0  502    0  0.00000000000E+00  0.00000000000E+00  0.48732000591E+03  0.48732000591E+03  0.00000000000E+00 0. -1.
          1   -1    0    0  501    0 -0.00000000000E+00 -0.00000000000E+00 -0.14385600053E+03  0.14385600053E+03  0.00000000000E+00 0. -1.
         25    2    1    2    0    0 -0.93971394166E+02 -0.18750230247E+03  0.10326717116E+03  0.26509658048E+03  0.12499740794E+03 0.  0.
          2    1    1    2  501    0  0.86533987252E+02  0.20614385681E+03  0.13976561454E+03  0.26366237437E+03  0.00000000000E+00 0. -1.
          1    1    1    2  502    0  0.74374069140E+01 -0.18641554341E+02  0.10043121968E+03  0.10241705159E+03  0.00000000000E+00 0. -1.
         22    1    3    3    0    0 -0.12455916655E+03 -0.16178929683E+03  0.85345378546E+02  0.22130204739E+03  0.00000000000E+00 0.  1.
         22    1    3    3    0    0  0.30587772381E+02 -0.25713005633E+02  0.17921792613E+02  0.43794533087E+02  0.00000000000E+00 0.  1.
</event>
<event>
 7    1  0.6597701E-006  0.7867823E+02  0.7818608E-02  0.1333595E+00
          2   -1    0    0  502    0  0.00000000000E+00  0.00000000000E+00  0.32964303029E+03  0.32964303029E+03  0.00000000000E+00 0. -1.
          1   -1    0    0  501    0 -0.00000000000E+00 -0.00000000000E+00 -0.48778541944E+03  0.48778541944E+03  0.00000000000E+00 0. -1.
         25    2    1    2    0    0  0.40028386136E+02 -0.46178132900E+02 -0.34813970918E+01  0.13915660219E+03  0.12497098925E+03 0.  0.
          2    1    1    2  501    0 -0.78825708672E+02 -0.21676775914E+02 -0.40647040172E+03  0.41461013306E+03  0.00000000000E+00 0. -1.
          1    1    1    2  502    0  0.38797322536E+02  0.67854908814E+02  0.25180940966E+03  0.26366171448E+03  0.00000000000E+00 0. -1.
         22    1    3    3    0    0  0.78258871826E+02 -0.36903790511E+02  0.25604269468E+02  0.90232584960E+02  0.00000000000E+00 0.  1.
         22    1    3    3    0    0 -0.38230485690E+02 -0.92743423887E+01 -0.29085666560E+02  0.48924017231E+02  0.00000000000E+00 0.  1.
</event>
<event>
 7    1  0.6597701E-006  0.3729724E+02  0.7818608E-02  0.1586503E+00
          2   -1    0    0  502    0  0.00000000000E+00  0.00000000000E+00  0.44420172564E+03  0.44420172564E+03  0.00000000000E+00 0. -1.
          1   -1    0    0  501    0 -0.00000000000E+00 -0.00000000000E+00 -0.47049398607E+02  0.47049398607E+02  0.00000000000E+00 0. -1.
         25    2    1    2    0    0 -0.31728052864E+02 -0.31080428608E+02  0.14829237905E+03  0.19896866804E+03  0.12500095518E+03 0.  0.
          2    1    1    2  501    0  0.36896690154E+02  0.57110675816E+01 -0.44971354487E+01  0.37605933900E+02  0.00000000000E+00 0. -1.
          1    1    1    2  502    0 -0.51686372897E+01  0.25369361026E+02  0.25335708343E+03  0.25467652231E+03  0.00000000000E+00 0. -1.
         22    1    3    3    0    0 -0.66784077623E+02 -0.27663647479E+02  0.14689613918E+03  0.16371886306E+03  0.00000000000E+00 0. -1.
         22    1    3    3    0    0  0.35056024759E+02 -0.34167811294E+01  0.13962398681E+01  0.35249804977E+02  0.00000000000E+00 0. -1.
</event>
<event>
 7    1  0.6597701E-006  0.1133649E+03  0.7818608E-02  0.1262116E+00
          2   -1    0    0  502    0  0.00000000000E+00  0.00000000000E+00  0.11336254751E+04  0.11336254751E+04  0.00000000000E+00 0. -1.
          1   -1    0    0  501    0 -0.00000000000E+00 -0.00000000000E+00 -0.67493978848E+03  0.67493978848E+03  0.00000000000E+00 0. -1.
         25    2    1    2    0    0  0.21186574247E+03  0.27838398048E+02 -0.32659404481E+03  0.40981754219E+03  0.12499871417E+03 0.  0.
          2    1    1    2  501    0 -0.10487806302E+03  0.72555683483E+01 -0.29471256900E+03  0.31290182119E+03  0.00000000000E+00 0. -1.
          1    1    1    2  502    0 -0.10698767945E+03 -0.35093966396E+02  0.10799923004E+04  0.10858459002E+04  0.00000000000E+00 0. -1.
         22    1    3    3    0    0  0.14041799833E+03  0.62221543409E+02 -0.27571583632E+03  0.31560728305E+03  0.00000000000E+00 0. -1.
         22    1    3    3    0    0  0.71447744133E+02 -0.34383145361E+02 -0.50878208488E+02  0.94210259131E+02  0.00000000000E+00 0. -1.
</event>
<event>
 7    1  0.6597701E-006  0.8041981E+02  0.7818608E-02  0.1433226E+00
          2   -1    0    0  502    0  0.00000000000E+00  0.00000000000E+00  0.74138352106E+02  0.74138352106E+02  0.00000000000E+00 0. -1.
          1   -1    0    0  501    0 -0.00000000000E+00 -0.00000000000E+00 -0.22133617220E+04  0.22133617220E+04  0.00000000000E+00 0. -1.
         25    2    1    2    0    0 -0.64684735687E+02 -0.88662603415E+02 -0.29547044380E+03  0.33907624766E+03  0.12499898515E+03 0.  0.
          2    1    1    2  501    0  0.56622345422E+02  0.55595302072E+02 -0.18896324155E+04  0.18912978595E+04  0.00000000000E+00 0. -1.
          1    1    1    2  502    0  0.80623902654E+01  0.33067301342E+02  0.45879489395E+02  0.57125966968E+02  0.00000000000E+00 0. -1.
         22    1    3    3    0    0  0.23233683746E+00 -0.83679645365E+02 -0.23782146764E+03  0.25211383837E+03  0.00000000000E+00 0.  1.
         22    1    3    3    0    0 -0.64917072525E+02 -0.49829580499E+01 -0.57648976166E+02  0.86962409288E+02  0.00000000000E+00 0.  1.
</event>
<event>
 7    1  0.6597701E-006  0.7528234E+02  0.7818608E-02  0.1358327E+00
          2   -1    0    0  502    0  0.00000000000E+00  0.00000000000E+00  0.27349254642E+04  0.27349254642E+04  0.00000000000E+00 0. -1.
          1   -1    0    0  501    0 -0.00000000000E+00 -0.00000000000E+00 -0.66961595759E+03  0.66961595759E+03  0.00000000000E+00 0. -1.
         25    2    1    2    0    0  0.84276369399E+02 -0.11207929207E+03  0.22817252845E+03  0.29554995558E+03  0.12499119712E+03 0.  0.
          2    1    1    2  501    0 -0.49826615171E+02  0.55709915392E+02 -0.63328802450E+03  0.63768331343E+03  0.00000000000E+00 0. -1.
          1    1    1    2  502    0 -0.34449754227E+02  0.56369376681E+02  0.24704250027E+04  0.24713081528E+04  0.00000000000E+00 0. -1.
         22    1    3    3    0    0  0.88876521022E+02 -0.95450625504E+02  0.24101597758E+03  0.27404116360E+03  0.00000000000E+00 0. -1.
         22    1    3    3    0    0 -0.46001516227E+01 -0.16628666569E+02 -0.12843449136E+02  0.21508791982E+02  0.00000000000E+00 0. -1.
</event>
<event>
 7    1  0.6597701E-006  0.7426720E+02  0.7818608E-02  0.1424102E+00
          2   -1    0    0  502    0  0.00000000000E+00  0.00000000000E+00  0.30976044375E+03  0.30976044375E+03  0.00000000000E+00 0. -1.
          1   -1    0    0  501    0 -0.00000000000E+00 -0.00000000000E+00 -0.74553999079E+03  0.74553999079E+03  0.00000000000E+00 0. -1.
         25    2    1    2    0    0 -0.60557163799E+02  0.18812813531E+02  0.77641540124E+02  0.16023735226E+03  0.12500683288E+03 0.  0.
          2    1    1    2  501    0  0.48723533862E+02 -0.56498721925E+02 -0.70019476186E+03  0.70415821579E+03  0.00000000000E+00 0. -1.
          1    1    1    2  502    0  0.11833629938E+02  0.37685908394E+02  0.18677367470E+03  0.19090486649E+03  0.00000000000E+00 0. -1.
         22    1    3    3    0    0  0.39013575372E+02  0.92597865710E+01  0.24068066288E+02  0.46766168599E+02  0.00000000000E+00 0.  1.
         22    1    3    3    0    0 -0.99570739171E+02  0.95530269603E+01  0.53573473836E+02  0.11347118366E+03  0.00000000000E+00 0.  1.
</event>
<event>
 7    1  0.6597701E-006  0.2046377E+03  0.7818608E-02  0.1329766E+00
          2   -1    0    0  502    0  0.00000000000E+00  0.00000000000E+00  0.58068606592E+03  0.58068606592E+03  0.00000000000E+00 0. -1.
          1   -1    0    0  501    0 -0.00000000000E+00 -0.00000000000E+00 -0.53353011469E+03  0.53353011469E+03  0.00000000000E+00 0. -1.
         25    2    1    2    0    0 -0.16099102276E+03 -0.12900632436E+03 -0.25325482845E+03  0.34974830676E+03  0.12500051526E+03 0.  0.
          2    1    1    2  501    0  0.22368807473E+02 -0.21575979073E+02 -0.21117967873E+03  0.21345431157E+03  0.00000000000E+00 0. -1.
          1    1    1    2  502    0  0.13862221529E+03  0.15058230343E+03  0.51159045841E+03  0.55101356228E+03  0.00000000000E+00 0. -1.
         22    1    3    3    0    0 -0.62779159575E+02 -0.11294254687E+03 -0.19651590598E+03  0.23519299112E+03  0.00000000000E+00 0.  1.
         22    1    3    3    0    0 -0.98211863186E+02 -0.16063777487E+02 -0.56738922471E+02  0.11455531564E+03  0.00000000000E+00 0.  1.
</event>
<event>
 7    1  0.6597701E-006  0.2590249E+03  0.7818608E-02  0.1225535E+00
          2   -1    0    0  502    0  0.00000000000E+00  0.00000000000E+00  0.12750177934E+04  0.12750177934E+04  0.00000000000E+00 0. -1.
          1   -1    0    0  501    0 -0.00000000000E+00 -0.00000000000E+00 -0.61474594719E+03  0.61474594719E+03  0.00000000000E+00 0. -1.
         25    2    1    2    0    0 -0.18495602120E+03 -0.67724175702E+02  0.38406395604E+03  0.44936187112E+03  0.12500270052E+03 0.  0.
          2    1    1    2  501    0  0.24840140581E+03  0.87843072033E+02 -0.55087697672E+03  0.61064319139E+03  0.00000000000E+00 0. -1.
          1    1    1    2  502    0 -0.63445384611E+02 -0.20118896331E+02  0.82708486687E+03  0.82975867807E+03  0.00000000000E+00 0. -1.
         22    1    3    3    0    0 -0.12317574257E+03  0.19930283673E+02  0.22970784663E+03  0.26140997412E+03  0.00000000000E+00 0.  1.
         22    1    3    3    0    0 -0.61780278631E+02 -0.87654459376E+02  0.15435610941E+03  0.18795189700E+03  0.00000000000E+00 0.  1.
</event>
<event>
 7    1  0.6597701E-006  0.4818818E+02  0.7818608E-02  0.1478063E+00
          2   -1    0    0  502    0  0.00000000000E+00  0.00000000000E+00  0.60178510471E+03  0.60178510471E+03  0.00000000000E+00 0. -1.
          1   -1    0    0  501    0 -0.00000000000E+00 -0.00000000000E+00 -0.52953612624E+02  0.52953612624E+02  0.00000000000E+00 0. -1.
         25    2    1    2    0    0 -0.58398235725E+02 -0.55616233822E+02  0.36634654317E+03  0.39539763669E+03  0.12500392796E+03 0.  0.
          2    1    1    2  501    0  0.19542664992E+02  0.35959587093E+02 -0.24584186831E+02  0.47742956559E+02  0.00000000000E+00 0. -1.
          1    1    1    2  502    0  0.38855570733E+02  0.19656646729E+02  0.20706913575E+03  0.21159812409E+03  0.00000000000E+00 0. -1.
         22    1    3    3    0    0 -0.44658817240E+01 -0.38308394783E+02  0.18151603140E+02  0.42625789224E+02  0.00000000000E+00 0.  1.
         22    1    3    3    0    0 -0.53932354001E+02 -0.17307839038E+02  0.34819494003E+03  0.35277184746E+03  0.00000000000E+00 0.  1.
</event>
<event>
 7    1  0.6597701E-006  0.8922724E+02  0.7818608E-02  0.1337599E+00
          2   -1    0    0  502    0  0.00000000000E+00  0.00000000000E+00  0.60377818759E+03  0.60377818759E+03  0.00000000000E+00 0. -1.
          1   -1    0    0  501    0 -0.00000000000E+00 -0.00000000000E+00 -0.62106731674E+02  0.62106731674E+02  0.00000000000E+00 0. -1.
         25    2    1    2    0    0 -0.93082507132E+02  0.18631718961E+02  0.27656864312E+03  0.31800334523E+03  0.12499767650E+03 0.  0.
          2    1    1    2  501    0  0.79446994997E+02  0.46513467811E+02  0.20407846792E+02  0.94296383348E+02  0.00000000000E+00 0. -1.
          1    1    1    2  502    0  0.13635512135E+02 -0.65145186772E+02  0.24469496600E+03  0.25358519069E+03  0.00000000000E+00 0. -1.
         22    1    3    3    0    0  0.25519947494E+02 -0.89260902707E+01  0.18820105852E+02  0.32941450968E+02  0.00000000000E+00 0.  1.
         22    1    3    3    0    0 -0.11860245463E+03  0.27557809232E+02  0.25774853727E+03  0.28506189426E+03  0.00000000000E+00 0.  1.
</event>
<event>
 7    1  0.6597701E-006  0.6259521E+02  0.7818608E-02  0.1416540E+00
          2   -1    0    0  502    0  0.00000000000E+00  0.00000000000E+00  0.99445018195E+03  0.99445018195E+03  0.00000000000E+00 0. -1.
          1   -1    0    0  501    0 -0.00000000000E+00 -0.00000000000E+00 -0.92781664867E+03  0.92781664867E+03  0.00000000000E+00 0. -1.
         25    2    1    2    0    0  0.14812945431E+02 -0.15253294267E+02  0.16271541322E+03  0.20629131481E+03  0.12501085764E+03 0.  0.
          2    1    1    2  501    0 -0.62823790784E+02  0.25206292311E+01 -0.90417443205E+03  0.90635786852E+03  0.00000000000E+00 0. -1.
          1    1    1    2  502    0  0.48010845353E+02  0.12732665035E+02  0.80809255210E+03  0.80961764728E+03  0.00000000000E+00 0. -1.
         22    1    3    3    0    0 -0.50250546226E+02 -0.29524311660E+02  0.93909314145E+02  0.11052493682E+03  0.00000000000E+00 0. -1.
         22    1    3    3    0    0  0.65063491657E+02  0.14271017393E+02  0.68806099077E+02  0.95766377995E+02  0.00000000000E+00 0. -1.
</event>
<event>
 7    1  0.6597701E-006  0.1334634E+03  0.7818608E-02  0.1343840E+00
          2   -1    0    0  502    0  0.00000000000E+00  0.00000000000E+00  0.92151691345E+03  0.92151691345E+03  0.00000000000E+00 0. -1.
          1   -1    0    0  501    0 -0.00000000000E+00 -0.00000000000E+00 -0.68630728887E+03  0.68630728887E+03  0.00000000000E+00 0. -1.
         25    2    1    2    0    0 -0.85968044488E+02  0.75509293342E+02 -0.15634842159E+03  0.23056915374E+03  0.12500059068E+03 0.  0.
          2    1    1    2  501    0  0.76481400623E+02 -0.11658562649E+03 -0.48246840455E+03  0.50221247927E+03  0.00000000000E+00 0. -1.
          1    1    1    2  502    0  0.94866438646E+01  0.41076333147E+02  0.87402645071E+03  0.87504256931E+03  0.00000000000E+00 0. -1.
         22    1    3    3    0    0 -0.11504630798E+03  0.39427777938E+02 -0.12633235142E+03  0.17535696641E+03  0.00000000000E+00 0.  1.
         22    1    3    3    0    0  0.29078263494E+02  0.36081515404E+02 -0.30016070166E+02  0.55212187331E+02  0.00000000000E+00 0.  1.
</event>
<event>
 7    1  0.6597701E-006  0.5536910E+02  0.7818608E-02  0.1437555E+00
          2   -1    0    0  502    0  0.00000000000E+00  0.00000000000E+00  0.97748103227E+03  0.97748103227E+03  0.00000000000E+00 0. -1.
          1   -1    0    0  501    0 -0.00000000000E+00 -0.00000000000E+00 -0.11138033067E+03  0.11138033067E+03  0.00000000000E+00 0. -1.
         25    2    1    2    0    0  0.36575088418E+02 -0.45906875729E+02  0.19274017412E+03  0.23710556958E+03  0.12500039230E+03 0.  0.
          2    1    1    2  501    0 -0.56001469419E+02  0.21765424113E+01 -0.79559304125E+02  0.97316929600E+02  0.00000000000E+00 0. -1.
          1    1    1    2  502    0  0.19426381002E+02  0.43730333317E+02  0.75291983161E+03  0.75443886376E+03  0.00000000000E+00 0. -1.
         22    1    3    3    0    0 -0.14222936715E+02  0.15635900468E+02  0.13969293929E+03  0.14128301596E+03  0.00000000000E+00 0.  1.
         22    1    3    3    0    0  0.50798025133E+02 -0.61542776197E+02  0.53047234829E+02  0.95822553621E+02  0.00000000000E+00 0.  1.
</event>
<event>
 7    1  0.6597701E-006  0.9840004E+02  0.7818608E-02  0.1423711E+00
          2   -1    0    0  502    0  0.00000000000E+00  0.00000000000E+00  0.73798906036E+03  0.73798906036E+03  0.00000000000E+00 0. -1.
          1   -1    0    0  501    0 -0.00000000000E+00 -0.00000000000E+00 -0.22530364223E+03  0.22530364223E+03  0.00000000000E+00 0. -1.
         25    2    1    2    0    0  0.57387409548E+02 -0.84595908139E+02  0.32453093065E+03  0.36248490763E+03  0.12500080344E+03 0.  0.
          2    1    1    2  501    0 -0.28423187577E+02 -0.92872921680E+01 -0.19907517745E+03  0.20130836461E+03  0.00000000000E+00 0. -1.
          1    1    1    2  502    0 -0.28964221971E+02  0.93883200307E+02  0.38722966493E+03  0.39949943036E+03  0.00000000000E+00 0. -1.
         22    1    3    3    0    0  0.71742493720E+02 -0.24782320210E+02  0.26938014060E+03  0.27986927118E+03  0.00000000000E+00 0. -1.
         22    1    3    3    0    0 -0.14355084171E+02 -0.59813587929E+02  0.55150790045E+02  0.82615636445E+02  0.00000000000E+00 0. -1.
</event>
<event>
 7    1  0.6597701E-006  0.1482077E+03  0.7818608E-02  0.1370700E+00
          2   -1    0    0  502    0  0.00000000000E+00  0.00000000000E+00  0.36161629861E+03  0.36161629861E+03  0.00000000000E+00 0. -1.
          1   -1    0    0  501    0 -0.00000000000E+00 -0.00000000000E+00 -0.63468766125E+03  0.63468766125E+03  0.00000000000E+00 0. -1.
         25    2    1    2    0    0  0.80155315025E+02  0.12050227957E+03 -0.11062676164E+03  0.22092638968E+03  0.12499806140E+03 0.  0.
          2    1    1    2  501    0 -0.10624779091E+03 -0.10516931455E+03 -0.45619839432E+03  0.48006890420E+03  0.00000000000E+00 0. -1.
          1    1    1    2  502    0  0.26092475881E+02 -0.15332965023E+02  0.29375379333E+03  0.29530866599E+03  0.00000000000E+00 0. -1.
         22    1    3    3    0    0 -0.65457511317E+01  0.57126836539E+02  0.11136708295E+02  0.58569177752E+02  0.00000000000E+00 0.  1.
         22    1    3    3    0    0  0.86701066157E+02  0.63375443035E+02 -0.12176346994E+03  0.16235721192E+03  0.00000000000E+00 0.  1.
</event>
<event>
 7    1  0.6597701E-006  0.8857655E+02  0.7818608E-02  0.1310449E+00
          2   -1    0    0  502    0  0.00000000000E+00  0.00000000000E+00  0.41274487027E+04  0.41274487027E+04  0.00000000000E+00 0. -1.
          1   -1    0    0  501    0 -0.00000000000E+00 -0.00000000000E+00 -0.38019377333E+02  0.38019377333E+02  0.00000000000E+00 0. -1.
         25    2    1    2    0    0 -0.47488694330E+02  0.11488259973E+02  0.11521225609E+04  0.11599132245E+04  0.12500054770E+03 0.  0.
          2    1    1    2  501    0 -0.15586175539E+02 -0.87194479236E+02  0.25628525397E+02  0.92209692501E+02  0.00000000000E+00 0. -1.
          1    1    1    2  502    0  0.63074869869E+02  0.75706219262E+02  0.29116782391E+04  0.29133451631E+04  0.00000000000E+00 0. -1.
         22    1    3    3    0    0  0.23472124345E+02  0.85153373221E+01  0.53966805421E+02  0.59463162364E+02  0.00000000000E+00 0.  1.
         22    1    3    3    0    0 -0.70960818675E+02  0.29729226514E+01  0.10981557554E+04  0.11004500621E+04  0.00000000000E+00 0.  1.
</event>
<event>
 7    1  0.6597701E-006  0.7907526E+02  0.7818608E-02  0.1461281E+00
          2   -1    0    0  502    0  0.00000000000E+00  0.00000000000E+00  0.57134877530E+03  0.57134877530E+03  0.00000000000E+00 0. -1.
          1   -1    0    0  501    0 -0.00000000000E+00 -0.00000000000E+00 -0.26941203993E+03  0.26941203993E+03  0.00000000000E+00 0. -1.
         25    2    1    2    0    0 -0.71998961648E+02 -0.77051551945E+02  0.77423670867E+02  0.18094096748E+03  0.12499766704E+03 0.  0.
          2    1    1    2  501    0  0.18515805419E+02  0.21174200430E+02 -0.21334055327E+03  0.21518683390E+03  0.00000000000E+00 0. -1.
          1    1    1    2  502    0  0.53483156229E+02  0.55877351515E+02  0.43785361778E+03  0.44463301386E+03  0.00000000000E+00 0. -1.
         22    1    3    3    0    0 -0.48696816738E+01  0.10097243897E+02 -0.27018878908E+02  0.29252144389E+02  0.00000000000E+00 0.  1.
         22    1    3    3    0    0 -0.67129279974E+02 -0.87148795842E+02  0.10444254977E+03  0.15168882309E+03  0.00000000000E+00 0.  1.
</event>
<event>
 7    1  0.6597701E-006  0.8096723E+02  0.7818608E-02  0.1352141E+00
          2   -1    0    0  502    0  0.00000000000E+00  0.00000000000E+00  0.25495231218E+04  0.25495231218E+04  0.00000000000E+00 0. -1.
          1   -1    0    0  501    0 -0.00000000000E+00 -0.00000000000E+00 -0.10823836585E+03  0.10823836585E+03  0.00000000000E+00 0. -1.
         25    2    1    2    0    0 -0.29037122710E+02  0.10254015998E+03  0.40115447099E+03  0.43348259814E+03  0.12499845755E+03 0.  0.
          2    1    1    2  501    0 -0.29602908073E+02 -0.75139296457E+02 -0.73773972755E+02  0.10938393435E+03  0.00000000000E+00 0. -1.
          1    1    1    2  502    0  0.58640030784E+02 -0.27400863524E+02  0.21139042577E+04  0.21148949551E+04  0.00000000000E+00 0. -1.
         22    1    3    3    0    0 -0.76341645514E+02  0.42573369344E+02  0.23041974424E+03  0.24644227956E+03  0.00000000000E+00 0. -1.
         22    1    3    3    0    0  0.47304522804E+02  0.59966790638E+02  0.17073472675E+03  0.18704031858E+03  0.00000000000E+00 0. -1.
</event>
<event>
 7    1  0.6597701E-006  0.7677747E+02  0.7818608E-02  0.1368280E+00
          2   -1    0    0  502    0  0.00000000000E+00  0.00000000000E+00  0.41359913349E+03  0.41359913349E+03  0.00000000000E+00 0. -1.
          1   -1    0    0  501    0 -0.00000000000E+00 -0.00000000000E+00 -0.19809550889E+03  0.19809550889E+03  0.00000000000E+00 0. -1.
         25    2    1    2    0    0  0.11953193971E+03  0.38200326120E+02  0.22033062690E+03  0.28269674652E+03  0.12499886325E+03 0.  0.
          2    1    1    2  501    0 -0.56187892391E+02 -0.19887140794E+02 -0.15441650470E+03  0.16552049585E+03  0.00000000000E+00 0. -1.
          1    1    1    2  502    0 -0.63344047315E+02 -0.18313185326E+02  0.14958950240E+03  0.16347740002E+03  0.00000000000E+00 0. -1.
         22    1    3    3    0    0  0.66490020907E+02 -0.43682244649E+02  0.97977072025E+02  0.12620843086E+03  0.00000000000E+00 0.  1.
         22    1    3    3    0    0  0.53041918798E+02  0.81882570770E+02  0.12235355488E+03  0.15648831566E+03  0.00000000000E+00 0.  1.
</event>
<event>
 7    1  0.6597701E-006  0.1478203E+03  0.7818608E-02  0.1270099E+00
          2   -1    0    0  502    0  0.00000000000E+00  0.00000000000E+00  0.10201870883E+03  0.10201870883E+03  0.00000000000E+00 0. -1.
          1   -1    0    0  501    0 -0.00000000000E+00 -0.00000000000E+00 -0.12762665030E+04  0.12762665030E+04  0.00000000000E+00 0. -1.
         25    2    1    2    0    0  0.15332494059E+03  0.32792582220E+02 -0.29357435702E+03  0.35552077062E+03  0.12500089754E+03 0.  0.
          2    1    1    2  501    0 -0.11393092372E+03 -0.96141347625E+02 -0.92436763468E+03  0.93631134681E+03  0.00000000000E+00 0. -1.
          1    1    1    2  502    0 -0.39394016867E+02  0.63348765405E+02  0.43694197501E+02  0.86453094441E+02  0.00000000000E+00 0. -1.
         22    1    3    3    0    0  0.12194476305E+03 -0.18799840483E+02 -0.25657474446E+03  0.28470082320E+03  0.00000000000E+00 0.  1.
         22    1    3    3    0    0  0.31380177539E+02  0.51592422703E+02 -0.36999612566E+02  0.70819947421E+02  0.00000000000E+00 0.  1.
</event>
<event>
 7    1  0.6597701E-006  0.6583081E+02  0.7818608E-02  0.1464278E+00
          2   -1    0    0  502    0  0.00000000000E+00  0.00000000000E+00  0.48203180381E+03  0.48203180381E+03  0.00000000000E+00 0. -1.
          1   -1    0    0  501    0 -0.00000000000E+00 -0.00000000000E+00 -0.73413822519E+03  0.73413822519E+03  0.00000000000E+00 0. -1.
         25    2    1    2    0    0 -0.85992578354E+01 -0.64458596537E+02 -0.66032751233E+02  0.15560809389E+03  0.12499878697E+03 0.  0.
          2    1    1    2  501    0 -0.30963555715E+02  0.11591664246E+02 -0.62038214454E+03  0.62126251595E+03  0.00000000000E+00 0. -1.
          1    1    1    2  502    0  0.39562813550E+02  0.52866932291E+02  0.43430847439E+03  0.43929941916E+03  0.00000000000E+00 0. -1.
         22    1    3    3    0    0 -0.42142171081E+02 -0.85099631313E+02 -0.23880392874E+02  0.97919267751E+02  0.00000000000E+00 0.  1.
         22    1    3    3    0    0  0.33542913246E+02  0.20641034777E+02 -0.42152358360E+02  0.57688826136E+02  0.00000000000E+00 0.  1.
</event>
<event>
 7    1  0.6597701E-006  0.6421607E+02  0.7818608E-02  0.1403908E+00
          2   -1    0    0  502    0  0.00000000000E+00  0.00000000000E+00  0.16493203131E+02  0.16493203131E+02  0.00000000000E+00 0. -1.
          1   -1    0    0  501    0 -0.00000000000E+00 -0.00000000000E+00 -0.12044296745E+04  0.12044296745E+04  0.00000000000E+00 0. -1.
         25    2    1    2    0    0  0.93019849844E+01  0.11213612106E+02 -0.44222483216E+03  0.45978289549E+03  0.12500094711E+03 0.  0.
          2    1    1    2  501    0  0.88540471690E+01  0.63602748213E+02 -0.48702048993E+03  0.49123585104E+03  0.00000000000E+00 0. -1.
          1    1    1    2  502    0 -0.18156032153E+02 -0.74816360319E+02 -0.25869114925E+03  0.26990413108E+03  0.00000000000E+00 0. -1.
         22    1    3    3    0    0 -0.37844100183E+02  0.85582170198E+01 -0.37842548464E+03  0.38040934061E+03  0.00000000000E+00 0.  1.
         22    1    3    3    0    0  0.47146085167E+02  0.26553950865E+01 -0.63799347523E+02  0.79373554878E+02  0.00000000000E+00 0.  1.
</event>
<event>
 7    1  0.6597701E-006  0.6148196E+02  0.7818608E-02  0.1462921E+00
          2   -1    0    0  502    0  0.00000000000E+00  0.00000000000E+00  0.30068587425E+04  0.30068587425E+04  0.00000000000E+00 0. -1.
          1   -1    0    0  501    0 -0.00000000000E+00 -0.00000000000E+00 -0.30779640055E+02  0.30779640055E+02  0.00000000000E+00 0. -1.
         25    2    1    2    0    0 -0.16733450428E+02 -0.34667854789E+02  0.18568108904E+04  0.18614115859E+04  0.12499816296E+03 0.  0.
          2    1    1    2  501    0 -0.59655533331E+01 -0.35248538400E+02 -0.15582228710E+02  0.38998117102E+02  0.00000000000E+00 0. -1.
          1    1    1    2  502    0  0.22699003761E+02  0.69916393188E+02  0.11348504407E+04  0.11372286796E+04  0.00000000000E+00 0. -1.
         22    1    3    3    0    0 -0.62709756297E+02 -0.55707163674E+01  0.13926897322E+04  0.13941119886E+04  0.00000000000E+00 0.  1.
         22    1    3    3    0    0  0.45976305870E+02 -0.29097138421E+02  0.46412115818E+03  0.46729959730E+03  0.00000000000E+00 0.  1.
</event>
<event>
 7    1  0.6597701E-006  0.1556456E+03  0.7818608E-02  0.1362586E+00
          2   -1    0    0  502    0  0.00000000000E+00  0.00000000000E+00  0.10082295378E+04  0.10082295378E+04  0.00000000000E+00 0. -1.
          1   -1    0    0  501    0 -0.00000000000E+00 -0.00000000000E+00 -0.15962555571E+04  0.15962555571E+04  0.00000000000E+00 0. -1.
         25    2    1    2    0    0  0.15606428224E+03 -0.78457113062E+02 -0.98094228572E-01  0.21479562240E+03  0.12500228397E+03 0.  0.
          2    1    1    2  501    0 -0.95065192202E+01  0.29328100490E+02 -0.14820167845E+04  0.14823374315E+04  0.00000000000E+00 0. -1.
          1    1    1    2  502    0 -0.14655776302E+03  0.49129012572E+02  0.89408885944E+03  0.90735204103E+03  0.00000000000E+00 0. -1.
         22    1    3    3    0    0  0.60693439258E+02 -0.99504812609E+02  0.77730010270E+01  0.11681318781E+03  0.00000000000E+00 0.  1.
         22    1    3    3    0    0  0.95370842986E+02  0.21047699547E+02 -0.78710952556E+01  0.97982434592E+02  0.00000000000E+00 0.  1.
</event>
<event>
 7    1  0.6597701E-006  0.3004699E+03  0.7818608E-02  0.1226169E+00
          2   -1    0    0  502    0  0.00000000000E+00  0.00000000000E+00  0.91237431482E+03  0.91237431482E+03  0.00000000000E+00 0. -1.
          1   -1    0    0  501    0 -0.00000000000E+00 -0.00000000000E+00 -0.32475130886E+03  0.32475130886E+03  0.00000000000E+00 0. -1.
         25    2    1    2    0    0  0.20411374184E+03 -0.24380691728E+03  0.23755571842E+03  0.41612845951E+03  0.12500377171E+03 0.  0.
          2    1    1    2  501    0 -0.55986324748E+02 -0.10708666856E+02 -0.19407904523E+03  0.20227659257E+03  0.00000000000E+00 0. -1.
          1    1    1    2  502    0 -0.14812741709E+03  0.25451558414E+03  0.54414633277E+03  0.61872057160E+03  0.00000000000E+00 0. -1.
         22    1    3    3    0    0  0.17390117679E+01 -0.76296568252E+02  0.76089353827E+02  0.10776725038E+03  0.00000000000E+00 0. -1.
         22    1    3    3    0    0  0.20237473007E+03 -0.16751034903E+03  0.16146636459E+03  0.30836120913E+03  0.00000000000E+00 0. -1.
</event>
<event>
 7    1  0.6597701E-006  0.6994532E+02  0.7818608E-02  0.1430099E+00
          2   -1    0    0  502    0  0.00000000000E+00  0.00000000000E+00  0.22895847546E+03  0.22895847546E+03  0.00000000000E+00 0. -1.
          1   -1    0    0  501    0 -0.00000000000E+00 -0.00000000000E+00 -0.22936533588E+04  0.22936533588E+04  0.00000000000E+00 0. -1.
         25    2    1    2    0    0 -0.43811393593E+02 -0.92587336624E+02  0.46890932527E+02  0.16826962936E+03  0.12499622194E+03 0.  0.
          2    1    1    2  501    0  0.11537781849E+02  0.68839704234E+02 -0.22290958938E+04  0.22301884515E+04  0.00000000000E+00 0. -1.
          1    1    1    2  502    0  0.32273611744E+02  0.23747632390E+02  0.11751007797E+03  0.12415375340E+03  0.00000000000E+00 0. -1.
         22    1    3    3    0    0 -0.34603311690E+02 -0.12221288013E+03  0.22930190656E+02  0.12907041060E+03  0.00000000000E+00 0. -1.
         22    1    3    3    0    0 -0.92080819030E+01  0.29625543502E+02  0.23960741872E+02  0.39199218757E+02  0.00000000000E+00 0. -1.
</event>
<event>
 7    1  0.6597701E-006  0.5983475E+02  0.7818608E-02  0.1438472E+00
          2   -1    0    0  502    0  0.00000000000E+00  0.00000000000E+00  0.19081754716E+04  0.19081754716E+04  0.00000000000E+00 0. -1.
          1   -1    0    0  501    0 -0.00000000000E+00 -0.00000000000E+00 -0.14563581626E+03  0.14563581626E+03  0.00000000000E+00 0. -1.
         25    2    1    2    0    0  0.10459010500E+02 -0.29324609912E+02  0.44264899982E+03  0.46101209355E+03  0.12499875884E+03 0.  0.
          2    1    1    2  501    0 -0.54335444275E+02  0.26359330123E+02 -0.12942236982E+03  0.14281913246E+03  0.00000000000E+00 0. -1.
          1    1    1    2  502    0  0.43876433775E+02  0.29652797885E+01  0.14493130253E+04  0.14499800618E+04  0.00000000000E+00 0. -1.
         22    1    3    3    0    0  0.19240653642E+02  0.43035223301E+02  0.26208358042E+03  0.26628938455E+03  0.00000000000E+00 0.  1.
         22    1    3    3    0    0 -0.87816431414E+01 -0.72359833212E+02  0.18056541940E+03  0.19472270900E+03  0.00000000000E+00 0.  1.
</event>
<event>
 7    1  0.6597701E-006  0.3477398E+02  0.7818608E-02  0.1582228E+00
          2   -1    0    0  502    0  0.00000000000E+00  0.00000000000E+00  0.25129403101E+02  0.25129403101E+02  0.00000000000E+00 0. -1.
          1   -1    0    0  501    0 -0.00000000000E+00 -0.00000000000E+00 -0.10411686308E+04  0.10411686308E+04  0.00000000000E+00 0. -1.
         25    2    1    2    0    0 -0.24927516769E+02  0.91695230755E+01 -0.28354650456E+03  0.31101416697E+03  0.12500292221E+03 0.  0.
          2    1    1    2  501    0  0.29871353525E+02  0.18906199960E+02 -0.72492815915E+03  0.72578962385E+03  0.00000000000E+00 0. -1.
          1    1    1    2  502    0 -0.49438367556E+01 -0.28075723035E+02 -0.75645639681E+01  0.29494243063E+02  0.00000000000E+00 0. -1.
         22    1    3    3    0    0 -0.73634429153E+02  0.22880576481E+02 -0.16557418264E+03  0.18264818612E+03  0.00000000000E+00 0. -1.
         22    1    3    3    0    0  0.48706912384E+02 -0.13711053405E+02 -0.11797232193E+03  0.12836598085E+03  0.00000000000E+00 0. -1.
</event>
<event>
 7    1  0.6597701E-006  0.1005542E+03  0.7818608E-02  0.1314945E+00
          2   -1    0    0  502    0  0.00000000000E+00  0.00000000000E+00  0.12470068950E+04  0.12470068950E+04  0.00000000000E+00 0. -1.
          1   -1    0    0  501    0 -0.00000000000E+00 -0.00000000000E+00 -0.73063654084E+03  0.73063654084E+03  0.00000000000E+00 0. -1.
         25    2    1    2    0    0 -0.14984146947E+03 -0.89053204103E+01  0.20324949915E+03  0.28189813256E+03  0.12499771010E+03 0.  0.
          2    1    1    2  501    0  0.62503197912E+02 -0.36076702464E+02 -0.68701548647E+03  0.69079552464E+03  0.00000000000E+00 0. -1.
          1    1    1    2  502    0  0.87338271560E+02  0.44982022874E+02  0.10001363415E+04  0.10049497787E+04  0.00000000000E+00 0. -1.
         22    1    3    3    0    0 -0.12218220083E+03 -0.60286986412E+02  0.13078106732E+03  0.18885629060E+03  0.00000000000E+00 0. -1.
         22    1    3    3    0    0 -0.27659268639E+02  0.51381666002E+02  0.72468431824E+02  0.93041841952E+02  0.00000000000E+00 0. -1.
</event>
<event>
 7    1  0.6597701E-006  0.4580756E+02  0.7818608E-02  0.1546456E+00
          2   -1    0    0  502    0  0.00000000000E+00  0.00000000000E+00  0.36500680369E+04  0.36500680369E+04  0.00000000000E+00 0. -1.
          1   -1    0    0  501    0 -0.00000000000E+00 -0.00000000000E+00 -0.10511904004E+04  0.10511904004E+04  0.00000000000E+00 0. -1.
         25    2    1    2    0    0 -0.42118361434E+02 -0.44754016845E+01  0.36128803282E+03  0.38464059176E+03  0.12500142630E+03 0.  0.
          2    1    1    2  501    0  0.77082441255E+01 -0.25995682674E+02 -0.10391761140E+04  0.10395297920E+04  0.00000000000E+00 0. -1.
          1    1    1    2  502    0  0.34410117309E+02  0.30471084359E+02  0.32767657176E+04  0.32770880536E+04  0.00000000000E+00 0. -1.
         22    1    3    3    0    0 -0.50051587518E+02  0.45873707215E+02  0.11860514934E+03  0.13666286942E+03  0.00000000000E+00 0.  1.
         22    1    3    3    0    0  0.79332260839E+01 -0.50349108900E+02  0.24268288348E+03  0.24797772234E+03  0.00000000000E+00 0.  1.
</event>
<event>
 7    1  0.6597701E-006  0.6523824E+02  0.7818608E-02  0.1378276E+00
          2   -1    0    0  502    0  0.00000000000E+00  0.00000000000E+00  0.26807372849E+04  0.26807372849E+04  0.00000000000E+00 0. -1.
          1   -1    0    0  501    0 -0.00000000000E+00 -0.00000000000E+00 -0.86903426639E+02  0.86903426639E+02  0.00000000000E+00 0. -1.
         25    2    1    2    0    0 -0.32244977516E+02  0.66272132378E+02  0.38220648337E+03  0.40882584268E+03  0.12500015846E+03 0.  0.
          2    1    1    2  501    0 -0.32907215865E+02 -0.55592286393E+02 -0.58843739412E+02  0.87384053639E+02  0.00000000000E+00 0. -1.
          1    1    1    2  502    0  0.65152193380E+02 -0.10679845985E+02  0.22704711143E+04  0.22714308152E+04  0.00000000000E+00 0. -1.
         22    1    3    3    0    0 -0.37546600262E+02  0.10009180285E+03  0.32531140786E+03  0.34242609170E+03  0.00000000000E+00 0. -1.
         22    1    3    3    0    0  0.53016227457E+01 -0.33819670472E+02  0.56895075501E+02  0.66399750985E+02  0.00000000000E+00 0. -1.
</event>
<event>
 7    1  0.6597701E-006  0.1974085E+03  0.7818608E-02  0.1163866E+00
          2   -1    0    0  502    0  0.00000000000E+00  0.00000000000E+00  0.72229255286E+03  0.72229255286E+03  0.00000000000E+00 0. -1.
          1   -1    0    0  501    0 -0.00000000000E+00 -0.00000000000E+00 -0.11674630049E+04  0.11674630049E+04  0.00000000000E+00 0. -1.
         25    2    1    2    0    0  0.10486927030E+03  0.26441181239E+03  0.23700441286E+03  0.39077946272E+03  0.12500530543E+03 0.  0.
          2    1    1    2  501    0  0.49914259633E+02 -0.18999563007E+03 -0.10631145326E+04  0.10811115957E+04  0.00000000000E+00 0. -1.
          1    1    1    2  502    0 -0.15478352993E+03 -0.74416182319E+02  0.38093966778E+03  0.41786449935E+03  0.00000000000E+00 0. -1.
         22    1    3    3    0    0  0.13170388886E+02 -0.12802886095E+02  0.18652251770E+02  0.26177844294E+02  0.00000000000E+00 0. -1.
         22    1    3    3    0    0  0.91698881410E+02  0.27721469848E+03  0.21835216109E+03  0.36460161842E+03  0.00000000000E+00 0. -1.
</event>
<event>
 7    1  0.6597701E-006  0.1093146E+03  0.7818608E-02  0.1283301E+00
          2   -1    0    0  502    0  0.00000000000E+00  0.00000000000E+00  0.10798103043E+04  0.10798103043E+04  0.00000000000E+00 0. -1.
          1   -1    0    0  501    0 -0.00000000000E+00 -0.00000000000E+00 -0.40954183222E+02  0.40954183222E+02  0.00000000000E+00 0. -1.
         25    2    1    2    0    0 -0.39540433626E+01  0.52232262995E+00  0.19621743716E+03  0.23268539069E+03  0.12500120446E+03 0.  0.
          2    1    1    2  501    0 -0.21215931355E+02 -0.10723605266E+03  0.14349200180E+03  0.18038747549E+03  0.00000000000E+00 0. -1.
          1    1    1    2  502    0  0.25169974717E+02  0.10671373003E+03  0.69914668213E+03  0.70769162136E+03  0.00000000000E+00 0. -1.
         22    1    3    3    0    0 -0.46854018221E+02  0.15507867482E+02  0.17628624524E+03  0.18306456030E+03  0.00000000000E+00 0.  1.
         22    1    3    3    0    0  0.42899974859E+02 -0.14985544852E+02  0.19931191922E+02  0.49620830392E+02  0.00000000000E+00 0.  1.
</event>
<event>
 7    1  0.6597701E-006  0.1178123E+03  0.7818608E-02  0.1268519E+00
          2   -1    0    0  502    0  0.00000000000E+00  0.00000000000E+00  0.20180285292E+03  0.20180285292E+03  0.00000000000E+00 0. -1.
          1   -1    0    0  501    0 -0.00000000000E+00 -0.00000000000E+00 -0.42446120244E+03  0.42446120244E+03  0.00000000000E+00 0. -1.
         25    2    1    2    0    0 -0.20707470915E+02 -0.38812740142E+02 -0.23584103470E+03  0.27052081396E+03  0.12500115594E+03 0.  0.
          2    1    1    2  501    0  0.43375098754E+02 -0.84566914108E+02 -0.13277494409E+03  0.16328547986E+03  0.00000000000E+00 0. -1.
          1    1    1    2  502    0 -0.22667627839E+02  0.12337965425E+03  0.14595762927E+03  0.19245776154E+03  0.00000000000E+00 0. -1.
         22    1    3    3    0    0 -0.37845698091E+02 -0.30882203316E+02 -0.18300848274E+02  0.52162519046E+02  0.00000000000E+00 0. -1.
         22    1    3    3    0    0  0.17138227176E+02 -0.79305368255E+01 -0.21754018643E+03  0.21835829491E+03  0.00000000000E+00 0. -1.
</event>
<event>
 7    1  0.6597701E-006  0.6895477E+02  0.7818608E-02  0.1374866E+00
          2   -1    0    0  502    0  0.00000000000E+00  0.00000000000E+00  0.70762220218E+03  0.70762220218E+03  0.00000000000E+00 0. -1.
          1   -1    0    0  501    0 -0.00000000000E+00 -0.00000000000E+00 -0.70416299361E+03  0.70416299361E+03  0.00000000000E+00 0. -1.
         25    2    1    2    0    0  0.57056253140E+02  0.62103984840E+02 -0.92647743355E+02  0.17697766070E+03  0.12500066833E+03 0.  0.
          2    1    1    2  501    0  0.53878722716E+01 -0.69256322249E+02 -0.56573703341E+03  0.56998584045E+03  0.00000000000E+00 0. -1.
          1    1    1    2  502    0 -0.62444125412E+02  0.71523374095E+01  0.66184398534E+03  0.66482169463E+03  0.00000000000E+00 0. -1.
         22    1    3    3    0    0 -0.36121718686E+02  0.21930425195E+01 -0.41202083159E+02  0.54837939904E+02  0.00000000000E+00 0. -1.
         22    1    3    3    0    0  0.93177971826E+02  0.59910942320E+02 -0.51445660196E+02  0.12213972080E+03  0.00000000000E+00 0. -1.
</event>
<event>
 7    1  0.1058079E-005  0.8145837E+02  0.7818608E-02  0.1403327E+00
          2   -1    0    0  502    0  0.00000000000E+00  0.00000000000E+00  0.22164353719E+04  0.22164353719E+04  0.00000000000E+00 0. -1.
          1   -1    0    0  501    0 -0.00000000000E+00 -0.00000000000E+00 -0.55904959133E+03  0.55904959133E+03  0.00000000000E+00 0. -1.
         25    2    1    2    0    0  0.45992918464E+02  0.43841757226E+02 -0.11226344385E+03  0.17962396033E+03  0.12499695226E+03 0.  0.
          2    1    1    2  501    0 -0.24115653302E+02  0.34769596546E+02 -0.41125734158E+03  0.41342845884E+03  0.00000000000E+00 0. -1.
          1    1    1    2  502    0 -0.21877265162E+02 -0.78611353772E+02  0.21809065660E+04  0.21824325441E+04  0.00000000000E+00 0. -1.
         22    1    3    3    0    0  0.82785301943E+01  0.81808668320E+02 -0.89298513708E+02  0.12138952519E+03  0.00000000000E+00 0.  1.
         22    1    3    3    0    0  0.37714388270E+02 -0.37966911094E+02 -0.22964930144E+02  0.58234435148E+02  0.00000000000E+00 0.  1.
</event>
<event>
 7    1  0.6597701E-006  0.8466335E+02  0.7818608E-02  0.1357414E+00
          2   -1    0    0  502    0  0.00000000000E+00  0.00000000000E+00  0.15635555609E+04  0.15635555609E+04  0.00000000000E+00 0. -1.
          1   -1    0    0  501    0 -0.00000000000E+00 -0.00000000000E+00 -0.26450907658E+02  0.26450907658E+02  0.00000000000E+00 0. -1.
         25    2    1    2    0    0 -0.25592346264E+01 -0.36214383897E+02  0.67365449971E+03  0.68611356524E+03  0.12499363241E+03 0.  0.
          2    1    1    2  501    0  0.33338054036E+02  0.86779892399E+02  0.94126055344E+02  0.13229470838E+03  0.00000000000E+00 0. -1.
          1    1    1    2  502    0 -0.30778819410E+02 -0.50565508502E+02  0.76932409816E+03  0.77159819491E+03  0.00000000000E+00 0. -1.
         22    1    3    3    0    0  0.25090274263E+01 -0.30890892762E+02  0.32470254270E+02  0.44887190674E+02  0.00000000000E+00 0.  1.
         22    1    3    3    0    0 -0.50682620528E+01 -0.53234911350E+01  0.64118424544E+03  0.64122637457E+03  0.00000000000E+00 0.  1.
</event>
<event>
 7    1  0.6597701E-006  0.1020814E+03  0.7818608E-02  0.1360850E+00
          2   -1    0    0  502    0  0.00000000000E+00  0.00000000000E+00  0.44673808807E+02  0.44673808807E+02  0.00000000000E+00 0. -1.
          1   -1    0    0  501    0 -0.00000000000E+00 -0.00000000000E+00 -0.10417099609E+04  0.10417099609E+04  0.00000000000E+00 0. -1.
         25    2    1    2    0    0  0.73106198274E+02  0.43558273850E+02 -0.54859571211E+03  0.56905537063E+03  0.12499968021E+03 0.  0.
          2    1    1    2  501    0 -0.11506584781E+03 -0.20878277956E+02 -0.45444886894E+03  0.46925454319E+03  0.00000000000E+00 0. -1.
          1    1    1    2  502    0  0.41959649536E+02 -0.22679995893E+02  0.60084289408E+01  0.48073855902E+02  0.00000000000E+00 0. -1.
         22    1    3    3    0    0 -0.87916455093E+00 -0.28347955088E+02 -0.27825557411E+03  0.27969723634E+03  0.00000000000E+00 0. -1.
         22    1    3    3    0    0  0.73985362825E+02  0.71906228938E+02 -0.27034013800E+03  0.28935813430E+03  0.00000000000E+00 0. -1.
</event>
<event>
 7    1  0.6597701E-006  0.4424543E+02  0.7818608E-02  0.1487590E+00
          2   -1    0    0  502    0  0.00000000000E+00  0.00000000000E+00  0.85674455017E+03  0.85674455017E+03  0.00000000000E+00 0. -1.
          1   -1    0    0  501    0 -0.00000000000E+00 -0.00000000000E+00 -0.98429864289E+02  0.98429864289E+02  0.00000000000E+00 0. -1.
         25    2    1    2    0    0  0.74132166780E+02  0.29823033813E+02  0.37700998254E+03  0.40515118458E+03  0.12500385569E+03 0.  0.
          2    1    1    2  501    0 -0.32237227224E+02 -0.26425530728E+02 -0.78191560743E+02  0.88608507858E+02  0.00000000000E+00 0. -1.
          1    1    1    2  502    0 -0.41894939556E+02 -0.33975030844E+01  0.45949626409E+03  0.46141472202E+03  0.00000000000E+00 0. -1.
         22    1    3    3    0    0  0.83331416095E+02 -0.19332805637E+02  0.14981947237E+03  0.17252175684E+03  0.00000000000E+00 0. -1.
         22    1    3    3    0    0 -0.91992493147E+01  0.49155839449E+02  0.22719051017E+03  0.23262942774E+03  0.00000000000E+00 0. -1.
</event>
<event>
 7    1  0.6597701E-006  0.3592036E+02  0.7818608E-02  0.1561664E+00
          2   -1    0    0  502    0  0.00000000000E+00  0.00000000000E+00  0.96778185658E+03  0.96778185658E+03  0.00000000000E+00 0. -1.
          1   -1    0    0  501    0 -0.00000000000E+00 -0.00000000000E+00 -0.17542936599E+03  0.17542936599E+03  0.00000000000E+00 0. -1.
         25    2    1    2    0    0  0.15959193252E+02 -0.45019833251E+02  0.98978386343E+02  0.16644178569E+03  0.12499866329E+03 0.  0.
          2    1    1    2  501    0 -0.31283936011E+02  0.17640467704E+02 -0.13912162995E+03  0.14368263177E+03  0.00000000000E+00 0. -1.
          1    1    1    2  502    0  0.15324742759E+02  0.27379365547E+02  0.83249573420E+03  0.83308680512E+03  0.00000000000E+00 0. -1.
         22    1    3    3    0    0 -0.33353017024E+02 -0.98522924679E+01  0.99990173601E+02  0.10586560456E+03  0.00000000000E+00 0. -1.
         22    1    3    3    0    0  0.49312210276E+02 -0.35167540783E+02 -0.10117872580E+01  0.60576181132E+02  0.00000000000E+00 0. -1.
</event>
<event>
 7    1  0.6597701E-006  0.1391886E+03  0.7818608E-02  0.1257122E+00
          2   -1    0    0  502    0  0.00000000000E+00  0.00000000000E+00  0.76620216337E+03  0.76620216337E+03  0.00000000000E+00 0. -1.
          1   -1    0    0  501    0 -0.00000000000E+00 -0.00000000000E+00 -0.73382587287E+03  0.73382587287E+03  0.00000000000E+00 0. -1.
         25    2    1    2    0    0 -0.21044149431E+02  0.21392656493E+03 -0.18953505952E+03  0.31266629109E+03  0.12501695642E+03 0.  0.
          2    1    1    2  501    0 -0.74491833217E+01 -0.12862536730E+03 -0.47117084838E+03  0.48846897937E+03  0.00000000000E+00 0. -1.
          1    1    1    2  502    0  0.28493332753E+02 -0.85301197626E+02  0.69308219839E+03  0.69889276578E+03  0.00000000000E+00 0. -1.
         22    1    3    3    0    0 -0.36677208091E+02  0.34187860677E+01 -0.37193467893E+02  0.52347490345E+02  0.00000000000E+00 0.  1.
         22    1    3    3    0    0  0.15633058660E+02  0.21050777886E+03 -0.15234159163E+03  0.26031880075E+03  0.00000000000E+00 0.  1.
</event>
<event>
 7    1  0.6597701E-006  0.3838026E+02  0.7818608E-02  0.1524269E+00
          2   -1    0    0  502    0  0.00000000000E+00  0.00000000000E+00  0.62873825673E+03  0.62873825673E+03  0.00000000000E+00 0. -1.
          1   -1    0    0  501    0 -0.00000000000E+00 -0.00000000000E+00 -0.51345850456E+03  0.51345850456E+03  0.00000000000E+00 0. -1.
         25    2    1    2    0    0  0.50486479867E+02 -0.19510172674E+01  0.18561832448E+03  0.22941744947E+03  0.12500205047E+03 0.  0.
          2    1    1    2  501    0 -0.24880490908E+02  0.29242923611E+02 -0.48997520950E+03  0.49147725617E+03  0.00000000000E+00 0. -1.
          1    1    1    2  502    0 -0.25605988959E+02 -0.27291906344E+02  0.41963663719E+03  0.42130205565E+03  0.00000000000E+00 0. -1.
         22    1    3    3    0    0  0.46804333379E+02 -0.50561907903E+02  0.49513668419E+02  0.84845480223E+02  0.00000000000E+00 0.  1.
         22    1    3    3    0    0  0.36821464880E+01  0.48610890636E+02  0.13610465606E+03  0.14457196925E+03  0.00000000000E+00 0.  1.
</event>
<event>
 7    1  0.6597701E-006  0.6774944E+02  0.7818608E-02  0.1379248E+00
          2   -1    0    0  502    0  0.00000000000E+00  0.00000000000E+00  0.13415450067E+04  0.13415450067E+04  0.00000000000E+00 0. -1.
          1   -1    0    0  501    0 -0.00000000000E+00 -0.00000000000E+00 -0.13898252453E+04  0.13898252453E+04  0.00000000000E+00 0. -1.
         25    2    1    2    0    0 -0.22075264591E+02 -0.40847340226E+02 -0.24087744305E+02  0.13550207788E+03  0.12499908469E+03 0.  0.
          2    1    1    2  501    0  0.68478735528E+02  0.15981012889E+00 -0.13083938953E+04  0.13101847000E+04  0.00000000000E+00 0. -1.
          1    1    1    2  502    0 -0.46403470937E+02  0.40687530097E+02  0.12842014010E+04  0.12856834741E+04  0.00000000000E+00 0. -1.
         22    1    3    3    0    0  0.45038004972E+01 -0.66474553095E+02 -0.55741434065E+02  0.86869199949E+02  0.00000000000E+00 0. -1.
         22    1    3    3    0    0 -0.26579065088E+02  0.25627212869E+02  0.31653689760E+02  0.48632877931E+02  0.00000000000E+00 0. -1.
</event>
<event>
 7    1  0.6597701E-006  0.5218147E+02  0.7818608E-02  0.1492380E+00
          2   -1    0    0  502    0  0.00000000000E+00  0.00000000000E+00  0.28481261013E+04  0.28481261013E+04  0.00000000000E+00 0. -1.
          1   -1    0    0  501    0 -0.00000000000E+00 -0.00000000000E+00 -0.95713955410E+02  0.95713955410E+02  0.00000000000E+00 0. -1.
         25    2    1    2    0    0 -0.23858118149E+02  0.81507807186E+02  0.62890918605E+03  0.64681078913E+03  0.12499880081E+03 0.  0.
          2    1    1    2  501    0  0.58439603350E+01 -0.33681318220E+02 -0.83088589342E+02  0.89845961224E+02  0.00000000000E+00 0. -1.
          1    1    1    2  502    0  0.18014157814E+02 -0.47826488966E+02  0.22065915492E+04  0.22071833064E+04  0.00000000000E+00 0. -1.
         22    1    3    3    0    0 -0.39869268213E+02 -0.15031283655E+02  0.31861841744E+03  0.32145480860E+03  0.00000000000E+00 0.  1.
         22    1    3    3    0    0  0.16011150064E+02  0.96539090841E+02  0.31029076861E+03  0.32535598053E+03  0.00000000000E+00 0.  1.
</event>
<event>
 7    1  0.6597701E-006  0.9931672E+02  0.7818608E-02  0.1352086E+00
          2   -1    0    0  502    0  0.00000000000E+00  0.00000000000E+00  0.27357854005E+03  0.27357854005E+03  0.00000000000E+00 0. -1.
          1   -1    0    0  501    0 -0.00000000000E+00 -0.00000000000E+00 -0.79559933964E+03  0.79559933964E+03  0.00000000000E+00 0. -1.
         25    2    1    2    0    0  0.27460850861E+02 -0.13699386848E+03 -0.36569922003E+03  0.41096809526E+03  0.12504973992E+03 0.  0.
          2    1    1    2  501    0 -0.32770725985E+02  0.84469718316E+02 -0.39935744737E+03  0.40950631810E+03  0.00000000000E+00 0. -1.
          1    1    1    2  502    0  0.53098751237E+01  0.52524150166E+02  0.24303586781E+03  0.24870346634E+03  0.00000000000E+00 0. -1.
         22    1    3    3    0    0  0.12780153514E+02 -0.13788069452E+03 -0.37047276995E+03  0.39550536219E+03  0.00000000000E+00 0. -1.
         22    1    3    3    0    0  0.14680697348E+02  0.88682604097E+00  0.47735499195E+01  0.15462733066E+02  0.00000000000E+00 0. -1.
</event>
<event>
 7    1  0.6597701E-006  0.6067929E+02  0.7818608E-02  0.1475509E+00
          2   -1    0    0  502    0  0.00000000000E+00  0.00000000000E+00  0.25176858463E+04  0.25176858463E+04  0.00000000000E+00 0. -1.
          1   -1    0    0  501    0 -0.00000000000E+00 -0.00000000000E+00 -0.83882446397E+02  0.83882446397E+02  0.00000000000E+00 0. -1.
         25    2    1    2    0    0  0.72723003619E+02 -0.53854778641E+02  0.26345881027E+03  0.30532737059E+03  0.12500114434E+03 0.  0.
          2    1    1    2  501    0 -0.31533535743E+02  0.10049380458E+02 -0.58164217175E+02  0.66921073540E+02  0.00000000000E+00 0. -1.
          1    1    1    2  502    0 -0.41189467876E+02  0.43805398183E+02  0.22285088068E+04  0.22293198485E+04  0.00000000000E+00 0. -1.
         22    1    3    3    0    0  0.34108502872E+02  0.12891616299E+02  0.20589731778E+03  0.20910114588E+03  0.00000000000E+00 0.  1.
         22    1    3    3    0    0  0.38614500747E+02 -0.66746394940E+02  0.57561492495E+02  0.96226224719E+02  0.00000000000E+00 0.  1.
</event>
<event>
 7    1  0.6597701E-006  0.5237496E+02  0.7818608E-02  0.1436601E+00
          2   -1    0    0  502    0  0.00000000000E+00  0.00000000000E+00  0.39285132054E+03  0.39285132054E+03  0.00000000000E+00 0. -1.
          1   -1    0    0  501    0 -0.00000000000E+00 -0.00000000000E+00 -0.85704090672E+02  0.85704090672E+02  0.00000000000E+00 0. -1.
         25    2    1    2    0    0  0.55186988114E+01 -0.10447476726E+01 -0.24150074304E+02  0.12743576630E+03  0.12500040364E+03 0.  0.
          2    1    1    2  501    0 -0.81767894173E+01 -0.51732740932E+02  0.90238460664E+02  0.10433655233E+03  0.00000000000E+00 0. -1.
          1    1    1    2  502    0  0.26580906059E+01  0.52777488605E+02  0.24105884351E+03  0.24678309258E+03  0.00000000000E+00 0. -1.
         22    1    3    3    0    0  0.44619301507E+02 -0.33289586575E+02  0.21060331144E+02  0.59519880622E+02  0.00000000000E+00 0.  1.
         22    1    3    3    0    0 -0.39100602696E+02  0.32244838903E+02 -0.45210405448E+02  0.67915885681E+02  0.00000000000E+00 0.  1.
</event>
<event>
 7    1  0.8021174E-006  0.1290953E+03  0.7818608E-02  0.1367961E+00
          2   -1    0    0  502    0  0.00000000000E+00  0.00000000000E+00  0.22661039837E+04  0.22661039837E+04  0.00000000000E+00 0. -1.
          1   -1    0    0  501    0 -0.00000000000E+00 -0.00000000000E+00 -0.66543183465E+03  0.66543183465E+03  0.00000000000E+00 0. -1.
         25    2    1    2    0    0 -0.12041703447E+03  0.75143515602E+02 -0.39660715259E+03  0.43939698894E+03  0.12500268107E+03 0.  0.
          2    1    1    2  501    0 -0.23881053517E+01 -0.35461971737E+02 -0.24428767830E+03  0.24685972587E+03  0.00000000000E+00 0. -1.
          1    1    1    2  502    0  0.12280513983E+03 -0.39681543865E+02  0.22415669800E+04  0.22452791036E+04  0.00000000000E+00 0. -1.
         22    1    3    3    0    0 -0.23570034845E+02 -0.25698852287E+01 -0.23199397339E+03  0.23320238966E+03  0.00000000000E+00 0.  1.
         22    1    3    3    0    0 -0.96846999629E+02  0.77713400831E+02 -0.16461317919E+03  0.20619459927E+03  0.00000000000E+00 0.  1.
</event>
<event>
 7    1  0.6597701E-006  0.2453596E+03  0.7818608E-02  0.1303576E+00
          2   -1    0    0  502    0  0.00000000000E+00  0.00000000000E+00  0.38022228012E+03  0.38022228012E+03  0.00000000000E+00 0. -1.
          1   -1    0    0  501    0 -0.00000000000E+00 -0.00000000000E+00 -0.79018081069E+03  0.79018081069E+03  0.00000000000E+00 0. -1.
         25    2    1    2    0    0 -0.16065611249E+03  0.17390850574E+03  0.19717293168E+03  0.33250072817E+03  0.12500005759E+03 0.  0.
          2    1    1    2  501    0 -0.31611251574E+02  0.87289047143E+01 -0.56905312254E+03  0.56999729936E+03  0.00000000000E+00 0. -1.
          1    1    1    2  502    0  0.19226736406E+03 -0.18263741045E+03 -0.38078339709E+02  0.26790506329E+03  0.00000000000E+00 0. -1.
         22    1    3    3    0    0 -0.28148011575E+02  0.14865520568E+02 -0.15765858879E+02  0.35522620449E+02  0.00000000000E+00 0.  1.
         22    1    3    3    0    0 -0.13250810091E+03  0.15904298517E+03  0.21293879056E+03  0.29697810772E+03  0.00000000000E+00 0.  1.
</event>
<event>
 7    1  0.6597701E-006  0.1338371E+03  0.7818608E-02  0.1247820E+00
          2   -1    0    0  502    0  0.00000000000E+00  0.00000000000E+00  0.16416178739E+04  0.16416178739E+04  0.00000000000E+00 0. -1.
          1   -1    0    0  501    0 -0.00000000000E+00 -0.00000000000E+00 -0.11712410537E+04  0.11712410537E+04  0.00000000000E+00 0. -1.
         25    2    1    2    0    0  0.14674560059E+03 -0.13324192240E+03  0.11180531278E+04  0.11423469547E+04  0.12500434876E+03 0.  0.
          2    1    1    2  501    0 -0.12979883348E+03  0.32052143775E+02 -0.11500363794E+04  0.11577818236E+04  0.00000000000E+00 0. -1.
          1    1    1    2  502    0 -0.16946767111E+02  0.10118977862E+03  0.50236007178E+03  0.51273014924E+03  0.00000000000E+00 0. -1.
         22    1    3    3    0    0  0.12914042072E+02  0.24285162893E+02  0.11953427143E+03  0.12265799470E+03  0.00000000000E+00 0. -1.
         22    1    3    3    0    0  0.13383155852E+03 -0.15752708529E+03  0.99851885637E+03  0.10196889600E+04  0.00000000000E+00 0. -1.
</event>
<event>
 7    1  0.6597701E-006  0.2944903E+03  0.7818608E-02  0.1239090E+00
          2   -1    0    0  502    0  0.00000000000E+00  0.00000000000E+00  0.11908411714E+04  0.11908411714E+04  0.00000000000E+00 0. -1.
          1   -1    0    0  501    0 -0.00000000000E+00 -0.00000000000E+00 -0.27861145893E+03  0.27861145893E+03  0.00000000000E+00 0. -1.
         25    2    1    2    0    0 -0.30359254240E+03  0.12931398743E+03  0.42168783965E+03  0.54985074246E+03  0.12499866291E+03 0.  0.
          2    1    1    2  501    0  0.45947453456E+02 -0.21959061208E+02 -0.18329854103E+03  0.19024122579E+03  0.00000000000E+00 0. -1.
          1    1    1    2  502    0  0.25764508895E+03 -0.10735492623E+03  0.67384041387E+03  0.72936066209E+03  0.00000000000E+00 0. -1.
         22    1    3    3    0    0 -0.30787283200E+03  0.13335140209E+03  0.37658404920E+03  0.50436477200E+03  0.00000000000E+00 0.  1.
         22    1    3    3    0    0  0.42802895937E+01 -0.40374146578E+01  0.45103790444E+02  0.45485970458E+02  0.00000000000E+00 0.  1.
</event>
<event>
 7    1  0.6597701E-006  0.1709665E+03  0.7818608E-02  0.1207630E+00
          2   -1    0    0  502    0  0.00000000000E+00  0.00000000000E+00  0.20730477452E+04  0.20730477452E+04  0.00000000000E+00 0. -1.
          1   -1    0    0  501    0 -0.00000000000E+00 -0.00000000000E+00 -0.14624684368E+04  0.14624684368E+04  0.00000000000E+00 0. -1.
         25    2    1    2    0    0 -0.14461784790E+03  0.11113156306E+02  0.31706151868E+03  0.37039355682E+03  0.12500222451E+03 0.  0.
          2    1    1    2  501    0  0.11375189950E+03 -0.12896640622E+03 -0.14284936092E+04  0.14388070823E+04  0.00000000000E+00 0. -1.
          1    1    1    2  502    0  0.30865948393E+02  0.11785324991E+03  0.17220113990E+04  0.17263155429E+04  0.00000000000E+00 0. -1.
         22    1    3    3    0    0 -0.12913500443E+03 -0.31403376901E+02  0.16568672951E+03  0.21240083283E+03  0.00000000000E+00 0.  1.
         22    1    3    3    0    0 -0.15482843463E+02  0.42516533207E+02  0.15137478917E+03  0.15799272399E+03  0.00000000000E+00 0.  1.
</event>
<event>
 7    1  0.6597701E-006  0.1088895E+03  0.7818608E-02  0.1263112E+00
          2   -1    0    0  502    0  0.00000000000E+00  0.00000000000E+00  0.12743248858E+04  0.12743248858E+04  0.00000000000E+00 0. -1.
          1   -1    0    0  501    0 -0.00000000000E+00 -0.00000000000E+00 -0.15513709349E+03  0.15513709349E+03  0.00000000000E+00 0. -1.
         25    2    1    2    0    0  0.45114553940E+02 -0.61067687430E+01  0.42623536144E+03  0.44651325913E+03  0.12499956655E+03 0.  0.
          2    1    1    2  501    0 -0.21228336944E+02  0.11182976283E+03 -0.11848621845E+03  0.16430314089E+03  0.00000000000E+00 0. -1.
          1    1    1    2  502    0 -0.23886216996E+02 -0.10572299409E+03  0.81143864933E+03  0.81864557927E+03  0.00000000000E+00 0. -1.
         22    1    3    3    0    0 -0.12718255909E+02 -0.50551322808E+02  0.10660974906E+03  0.11867109532E+03  0.00000000000E+00 0.  1.
         22    1    3    3    0    0  0.57832809849E+02  0.44444554065E+02  0.31962561238E+03  0.32784216381E+03  0.00000000000E+00 0.  1.
</event>
<event>
 7    1  0.6597701E-006  0.2050588E+03  0.7818608E-02  0.1376887E+00
          2   -1    0    0  502    0  0.00000000000E+00  0.00000000000E+00  0.13477107317E+04  0.13477107317E+04  0.00000000000E+00 0. -1.
          1   -1    0    0  501    0 -0.00000000000E+00 -0.00000000000E+00 -0.43479110421E+03  0.43479110421E+03  0.00000000000E+00 0. -1.
         25    2    1    2    0    0 -0.17387038762E+03  0.13034922767E+03  0.31684730958E+02  0.25268809640E+03  0.12500207614E+03 0.  0.
          2    1    1    2  501    0  0.15317850231E+03 -0.13234207314E+03 -0.29259776036E+03  0.35579703098E+03  0.00000000000E+00 0. -1.
          1    1    1    2  502    0  0.20691885307E+02  0.19928454641E+01  0.11738326569E+04  0.11740167085E+04  0.00000000000E+00 0. -1.
         22    1    3    3    0    0 -0.92925675386E+02  0.42588997992E+02  0.73811766551E+02  0.12608402269E+03  0.00000000000E+00 0. -1.
         22    1    3    3    0    0 -0.80944712230E+02  0.87760229681E+02 -0.42127035592E+02  0.12660407371E+03  0.00000000000E+00 0. -1.
</event>
<event>
 7    1  0.6597701E-006  0.2950913E+02  0.7818608E-02  0.1605295E+00
          2   -1    0    0  502    0  0.00000000000E+00  0.00000000000E+00  0.41255678175E+03  0.41255678175E+03  0.00000000000E+00 0. -1.
          1   -1    0    0  501    0 -0.00000000000E+00 -0.00000000000E+00 -0.19536616400E+04  0.19536616400E+04  0.00000000000E+00 0. -1.
         25    2    1    2    0    0  0.54101805787E+02 -0.16750376090E+01 -0.21404633173E+03  0.25371871144E+03  0.12501016466E+03 0.  0.
          2    1    1    2  501    0 -0.26796702193E+02  0.12044148546E+02 -0.17191103724E+04  0.17193613923E+04  0.00000000000E+00 0. -1.
          1    1    1    2  502    0 -0.27305103593E+02 -0.10369110937E+02  0.39205184595E+03  0.39313831797E+03  0.00000000000E+00 0. -1.
         22    1    3    3    0    0  0.41171932273E+02  0.43666305225E+02 -0.19294461781E+03  0.20206310836E+03  0.00000000000E+00 0. -1.
         22    1    3    3    0    0  0.12929873513E+02 -0.45341342834E+02 -0.21101713921E+02  0.51655603079E+02  0.00000000000E+00 0. -1.
</event>
<event>
 7    1  0.6597701E-006  0.8463265E+02  0.7818608E-02  0.1380333E+00
          2   -1    0    0  502    0  0.00000000000E+00  0.00000000000E+00  0.14408765107E+03  0.14408765107E+03  0.00000000000E+00 0. -1.
          1   -1    0    0  501    0 -0.00000000000E+00 -0.00000000000E+00 -0.15172007602E+04  0.15172007602E+04  0.00000000000E+00 0. -1.
         25    2    1    2    0    0  0.33449074097E+02  0.60957308394E+02 -0.34081893143E+02  0.14703450440E+03  0.12499174388E+03 0.  0.
          2    1    1    2  501    0  0.93551722191E+01 -0.84741186857E+02 -0.14184187953E+04  0.14209787004E+04  0.00000000000E+00 0. -1.
          1    1    1    2  502    0 -0.42804246316E+02  0.23783878463E+02  0.79387579384E+02  0.93275206448E+02  0.00000000000E+00 0. -1.
         22    1    3    3    0    0  0.32130041157E+02  0.86463455178E+02 -0.60482765152E+02  0.11030155714E+03  0.00000000000E+00 0.  1.
         22    1    3    3    0    0  0.13190329399E+01 -0.25506146784E+02  0.26400872009E+02  0.36732947262E+02  0.00000000000E+00 0.  1.
</event>
<event>
 7    1  0.6597701E-006  0.5310929E+02  0.7818608E-02  0.1440592E+00
          2   -1    0    0  502    0  0.00000000000E+00  0.00000000000E+00  0.76626734191E+03  0.76626734191E+03  0.00000000000E+00 0. -1.
          1   -1    0    0  501    0 -0.00000000000E+00 -0.00000000000E+00 -0.48766691832E+02  0.48766691832E+02  0.00000000000E+00 0. -1.
         25    2    1    2    0    0 -0.56724805247E+02 -0.14075212374E+02  0.27467074411E+03  0.30738422966E+03  0.12500092736E+03 0.  0.
          2    1    1    2  501    0  0.22942042816E+02  0.49244468579E+02 -0.73632433612E+01  0.54823100669E+02  0.00000000000E+00 0. -1.
          1    1    1    2  502    0  0.33782762431E+02 -0.35169256206E+02  0.45019314934E+03  0.45282670342E+03  0.00000000000E+00 0. -1.
         22    1    3    3    0    0 -0.27192667440E+02 -0.60218588745E+02  0.73255949993E+02  0.98651679167E+02  0.00000000000E+00 0. -1.
         22    1    3    3    0    0 -0.29532137806E+02  0.46143376372E+02  0.20141479411E+03  0.20873255049E+03  0.00000000000E+00 0. -1.
</event>
<event>
 7    1  0.6597701E-006  0.6471816E+02  0.7818608E-02  0.1393784E+00
          2   -1    0    0  502    0  0.00000000000E+00  0.00000000000E+00  0.18181346560E+03  0.18181346560E+03  0.00000000000E+00 0. -1.
          1   -1    0    0  501    0 -0.00000000000E+00 -0.00000000000E+00 -0.28882891436E+03  0.28882891436E+03  0.00000000000E+00 0. -1.
         25    2    1    2    0    0 -0.14262405005E+02  0.27040467551E+02 -0.37636293666E+02  0.13407376244E+03  0.12499872036E+03 0.  0.
          2    1    1    2  501    0 -0.54829550390E+02 -0.17149056218E+02 -0.18929436748E+03  0.19781993652E+03  0.00000000000E+00 0. -1.
          1    1    1    2  502    0  0.69091955395E+02 -0.98914113323E+01  0.11991521238E+03  0.13874868100E+03  0.00000000000E+00 0. -1.
         22    1    3    3    0    0 -0.25665754535E+02 -0.15924942455E+02  0.36656246596E+02  0.47497527963E+02  0.00000000000E+00 0. -1.
         22    1    3    3    0    0  0.11403349530E+02  0.42965410006E+02 -0.74292540263E+02  0.86576234476E+02  0.00000000000E+00 0. -1.
</event>
<event>
 7    1  0.6597701E-006  0.1412045E+03  0.7818608E-02  0.1345699E+00
          2   -1    0    0  502    0  0.00000000000E+00  0.00000000000E+00  0.24024500493E+03  0.24024500493E+03  0.00000000000E+00 0. -1.
          1   -1    0    0  501    0 -0.00000000000E+00 -0.00000000000E+00 -0.14959785290E+04  0.14959785290E+04  0.00000000000E+00 0. -1.
         25    2    1    2    0    0  0.10417098050E+03 -0.87436780659E+02 -0.45681215543E+03  0.49274639408E+03  0.12499951897E+03 0.  0.
          2    1    1    2  501    0  0.25331509000E+02  0.29934991342E+02 -0.99819371696E+03  0.99896370587E+03  0.00000000000E+00 0. -1.
          1    1    1    2  502    0 -0.12950248950E+03  0.57501789317E+02  0.19927234835E+03  0.24451343395E+03  0.00000000000E+00 0. -1.
         22    1    3    3    0    0  0.12041517590E+03 -0.97232338562E+02 -0.44306625780E+03  0.46932041405E+03  0.00000000000E+00 0. -1.
         22    1    3    3    0    0 -0.16244195395E+02  0.97955579031E+01 -0.13745897634E+02  0.23425980032E+02  0.00000000000E+00 0. -1.
</event>
<event>
 7    1  0.6597701E-006  0.8895867E+02  0.7818608E-02  0.1456851E+00
          2   -1    0    0  502    0  0.00000000000E+00  0.00000000000E+00  0.87945609898E+02  0.87945609898E+02  0.00000000000E+00 0. -1.
          1   -1    0    0  501    0 -0.00000000000E+00 -0.00000000000E+00 -0.18829480249E+04  0.18829480249E+04  0.00000000000E+00 0. -1.
         25    2    1    2    0    0  0.76332734383E+01  0.75477355035E+02 -0.16086504540E+03  0.21738875280E+03  0.12500083610E+03 0.  0.
          2    1    1    2  501    0 -0.32123449109E+02 -0.83661818117E+02 -0.16897842061E+04  0.16921589403E+04  0.00000000000E+00 0. -1.
          1    1    1    2  502    0  0.24490175671E+02  0.81844630822E+01  0.55646836583E+02  0.61345941692E+02  0.00000000000E+00 0. -1.
         22    1    3    3    0    0  0.11852208182E+02 -0.33765731118E+02 -0.51841737701E+02  0.62993374291E+02  0.00000000000E+00 0.  1.
         22    1    3    3    0    0 -0.42189347436E+01  0.10924308615E+03 -0.10902330770E+03  0.15439537851E+03  0.00000000000E+00 0.  1.
</event>
<event>
 7    1  0.6597701E-006  0.2169256E+03  0.7818608E-02  0.1171960E+00
          2   -1    0    0  502    0  0.00000000000E+00  0.00000000000E+00  0.77843877317E+03  0.77843877317E+03  0.00000000000E+00 0. -1.
          1   -1    0    0  501    0 -0.00000000000E+00 -0.00000000000E+00 -0.46419617848E+03  0.46419617848E+03  0.00000000000E+00 0. -1.
         25    2    1    2    0    0 -0.16502198583E+03 -0.15553878403E+03 -0.30768004336E+03  0.40214569049E+03  0.12501831127E+03 0.  0.
          2    1    1    2  501    0  0.38453139081E+02  0.22084370632E+03  0.23549531764E+02  0.22540001547E+03  0.00000000000E+00 0. -1.
          1    1    1    2  502    0  0.12656884675E+03 -0.65304922295E+02  0.59837310628E+03  0.61508924569E+03  0.00000000000E+00 0. -1.
         22    1    3    3    0    0 -0.12393616702E+03 -0.16331505589E+03 -0.29345434553E+03  0.35797686222E+03  0.00000000000E+00 0. -1.
         22    1    3    3    0    0 -0.41085818811E+02  0.77762718659E+01 -0.14225697826E+02  0.44168828263E+02  0.00000000000E+00 0. -1.
</event>
<event>
 7    1  0.8612249E-006  0.9879711E+02  0.7818608E-02  0.1398060E+00
          2   -1    0    0  502    0  0.00000000000E+00  0.00000000000E+00  0.18585174929E+04  0.18585174929E+04  0.00000000000E+00 0. -1.
          1   -1    0    0  501    0 -0.00000000000E+00 -0.00000000000E+00 -0.93611875794E+03  0.93611875794E+03  0.00000000000E+00 0. -1.
         25    2    1    2    0    0 -0.91500110297E+02 -0.55465386417E+02 -0.13856337199E+03  0.21511458960E+03  0.12500319727E+03 0.  0.
          2    1    1    2  501    0  0.61965919750E+02  0.76694386487E+02 -0.75589599587E+03  0.76229952165E+03  0.00000000000E+00 0. -1.
          1    1    1    2  502    0  0.29534190547E+02 -0.21229000071E+02  0.18168581028E+04  0.18172221396E+04  0.00000000000E+00 0. -1.
         22    1    3    3    0    0 -0.93635903552E+02 -0.78584194324E+02 -0.65987396493E+02  0.13891542221E+03  0.00000000000E+00 0. -1.
         22    1    3    3    0    0  0.21357932545E+01  0.23118807907E+02 -0.72575975499E+02  0.76199167394E+02  0.00000000000E+00 0. -1.
</event>
<event>
 7    1  0.6597701E-006  0.1027672E+03  0.7818608E-02  0.1281007E+00
          2   -1    0    0  502    0  0.00000000000E+00  0.00000000000E+00  0.43472180511E+03  0.43472180511E+03  0.00000000000E+00 0. -1.
          1   -1    0    0  501    0 -0.00000000000E+00 -0.00000000000E+00 -0.66563425741E+03  0.66563425741E+03  0.00000000000E+00 0. -1.
         25    2    1    2    0    0 -0.52905513196E+02 -0.86507018010E+02 -0.26227005741E+03  0.30772097731E+03  0.12499663744E+03 0.  0.
          2    1    1    2  501    0  0.11464575404E+03  0.12144394794E+02 -0.36598115659E+03  0.38370997149E+03  0.00000000000E+00 0. -1.
          1    1    1    2  502    0 -0.61740240843E+02  0.74362623216E+02  0.39733876170E+03  0.40892511371E+03  0.00000000000E+00 0. -1.
         22    1    3    3    0    0 -0.40844581938E+02 -0.10443382036E+03 -0.12164399435E+03  0.16544474628E+03  0.00000000000E+00 0.  1.
         22    1    3    3    0    0 -0.12060931259E+02  0.17926802351E+02 -0.14062606306E+03  0.14227623104E+03  0.00000000000E+00 0.  1.
</event>
<event>
 7    1  0.6597701E-006  0.4329114E+02  0.7818608E-02  0.1563284E+00
          2   -1    0    0  502    0  0.00000000000E+00  0.00000000000E+00  0.75290301303E+03  0.75290301303E+03  0.00000000000E+00 0. -1.
          1   -1    0    0  501    0 -0.00000000000E+00 -0.00000000000E+00 -0.94584429470E+02  0.94584429470E+02  0.00000000000E+00 0. -1.
         25    2    1    2    0    0  0.40557330226E+02 -0.50254827644E+02  0.28333947975E+01  0.14073863932E+03  0.12501556597E+03 0.  0.
          2    1    1    2  501    0 -0.25570830120E+02  0.29291688432E+02 -0.10491824143E+02  0.40273424712E+02  0.00000000000E+00 0. -1.
          1    1    1    2  502    0 -0.14986500106E+02  0.20963139211E+02  0.66597701291E+03  0.66647537847E+03  0.00000000000E+00 0. -1.
         22    1    3    3    0    0 -0.23286172118E+02 -0.25518480727E+02  0.47688032880E+02  0.58886222077E+02  0.00000000000E+00 0.  1.
         22    1    3    3    0    0  0.63843502344E+02 -0.24736346916E+02 -0.44854638083E+02  0.81852417239E+02  0.00000000000E+00 0.  1.
</event>
<event>
 7    1  0.6597701E-006  0.8269605E+02  0.7818608E-02  0.1424795E+00
          2   -1    0    0  502    0  0.00000000000E+00  0.00000000000E+00  0.15506066842E+04  0.15506066842E+04  0.00000000000E+00 0. -1.
          1   -1    0    0  501    0 -0.00000000000E+00 -0.00000000000E+00 -0.19350678453E+04  0.19350678453E+04  0.00000000000E+00 0. -1.
         25    2    1    2    0    0 -0.15870647165E+02 -0.81259414988E+02  0.21406510383E+03  0.26134704598E+03  0.12499375905E+03 0.  0.
          2    1    1    2  501    0  0.48237281684E+02  0.67204250337E+02 -0.19102944587E+04  0.19120847694E+04  0.00000000000E+00 0. -1.
          1    1    1    2  502    0 -0.32366634519E+02  0.14055164651E+02  0.13117681937E+04  0.13122427141E+04  0.00000000000E+00 0. -1.
         22    1    3    3    0    0 -0.60466320623E+01  0.20737456058E+02  0.12103471558E+03  0.12294716840E+03  0.00000000000E+00 0. -1.
         22    1    3    3    0    0 -0.98240151031E+01 -0.10199687105E+03  0.93030388251E+02  0.13839987758E+03  0.00000000000E+00 0. -1.
</event>
<event>
 7    1  0.6597701E-006  0.7349503E+02  0.7818608E-02  0.1455241E+00
          2   -1    0    0  502    0  0.00000000000E+00  0.00000000000E+00  0.21612914886E+04  0.21612914886E+04  0.00000000000E+00 0. -1.
          1   -1    0    0  501    0 -0.00000000000E+00 -0.00000000000E+00 -0.28635743138E+02  0.28635743138E+02  0.00000000000E+00 0. -1.
         25    2    1    2    0    0 -0.30068301652E+02  0.32621779951E+02  0.41927166524E+03  0.43974944165E+03  0.12499023509E+03 0.  0.
          2    1    1    2  501    0 -0.18815517623E+02  0.25417920213E+02 -0.33194079821E+01  0.31798000578E+02  0.00000000000E+00 0. -1.
          1    1    1    2  502    0  0.48883819275E+02 -0.58039700164E+02  0.17167034882E+04  0.17183797895E+04  0.00000000000E+00 0. -1.
         22    1    3    3    0    0 -0.16069076260E+02 -0.10721017478E+02  0.13621844138E+01  0.19365200076E+02  0.00000000000E+00 0.  1.
         22    1    3    3    0    0 -0.13999225393E+02  0.43342797429E+02  0.41790948083E+03  0.42038424158E+03  0.00000000000E+00 0.  1.
</event>
<event>
 7    1  0.6597701E-006  0.6756983E+02  0.7818608E-02  0.1398064E+00
          2   -1    0    0  502    0  0.00000000000E+00  0.00000000000E+00  0.29666619345E+04  0.29666619345E+04  0.00000000000E+00 0. -1.
          1   -1    0    0  501    0 -0.00000000000E+00 -0.00000000000E+00 -0.16873207095E+04  0.16873207095E+04  0.00000000000E+00 0. -1.
         25    2    1    2    0    0 -0.55655910626E+02 -0.21114954226E+02  0.20078005390E+04  0.20125684208E+04  0.12500088864E+03 0.  0.
          2    1    1    2  501    0  0.23402493988E+02  0.63397975695E+02 -0.16835191215E+04  0.16848749546E+04  0.00000000000E+00 0. -1.
          1    1    1    2  502    0  0.32253416638E+02 -0.42283021469E+02  0.95505980745E+03  0.95653926871E+03  0.00000000000E+00 0. -1.
         22    1    3    3    0    0  0.22743678355E+01 -0.14704286333E+02  0.16488239503E+04  0.16488910842E+04  0.00000000000E+00 0. -1.
         22    1    3    3    0    0 -0.57930278462E+02 -0.64106678931E+01  0.35897658876E+03  0.36367733653E+03  0.00000000000E+00 0. -1.
</event>
<event>
 7    1  0.6597701E-006  0.1046006E+03  0.7818608E-02  0.1298132E+00
          2   -1    0    0  502    0  0.00000000000E+00  0.00000000000E+00  0.44774879759E+03  0.44774879759E+03  0.00000000000E+00 0. -1.
          1   -1    0    0  501    0 -0.00000000000E+00 -0.00000000000E+00 -0.35130196509E+03  0.35130196509E+03  0.00000000000E+00 0. -1.
         25    2    1    2    0    0  0.10202378616E+03  0.26825698336E+02 -0.19743320251E+03  0.25638502389E+03  0.12499975996E+03 0.  0.
          2    1    1    2  501    0 -0.48981157604E+02  0.64358712151E+02 -0.10359678435E+03  0.13142865501E+03  0.00000000000E+00 0. -1.
          1    1    1    2  502    0 -0.53042628557E+02 -0.91184410487E+02  0.39747681935E+03  0.41123708378E+03  0.00000000000E+00 0. -1.
         22    1    3    3    0    0  0.11872649223E+03  0.18764584800E+02 -0.20394303879E+03  0.23672949261E+03  0.00000000000E+00 0.  1.
         22    1    3    3    0    0 -0.16702706071E+02  0.80611135365E+01  0.65098362823E+01  0.19655531282E+02  0.00000000000E+00 0.  1.
</event>
<event>
 7    1  0.6597701E-006  0.4437750E+02  0.7818608E-02  0.1526427E+00
          2   -1    0    0  502    0  0.00000000000E+00  0.00000000000E+00  0.11586093351E+04  0.11586093351E+04  0.00000000000E+00 0. -1.
          1   -1    0    0  501    0 -0.00000000000E+00 -0.00000000000E+00 -0.82342677519E+03  0.82342677519E+03  0.00000000000E+00 0. -1.
         25    2    1    2    0    0  0.68947856164E+02 -0.21643436717E+02 -0.62074678080E+01  0.14453119018E+03  0.12501394745E+03 0.  0.
          2    1    1    2  501    0 -0.44109045468E+02  0.16183926225E+01 -0.74717241002E+03  0.74847500786E+03  0.00000000000E+00 0. -1.
          1    1    1    2  502    0 -0.24838810697E+02  0.20025044095E+02  0.10885624377E+04  0.10890299122E+04  0.00000000000E+00 0. -1.
         22    1    3    3    0    0  0.45451199543E+02  0.37143645234E+02  0.35612797173E+02  0.68656632918E+02  0.00000000000E+00 0. -1.
         22    1    3    3    0    0  0.23496656621E+02 -0.58787081951E+02 -0.41820264981E+02  0.75874557262E+02  0.00000000000E+00 0. -1.
</event>
<event>
 7    1  0.6597701E-006  0.8616038E+02  0.7818608E-02  0.1420693E+00
          2   -1    0    0  502    0  0.00000000000E+00  0.00000000000E+00  0.57635129607E+03  0.57635129607E+03  0.00000000000E+00 0. -1.
          1   -1    0    0  501    0 -0.00000000000E+00 -0.00000000000E+00 -0.16572326319E+03  0.16572326319E+03  0.00000000000E+00 0. -1.
         25    2    1    2    0    0  0.67610023443E+02  0.58464056077E+02  0.64526227710E+02  0.16666664230E+03  0.12499989789E+03 0.  0.
          2    1    1    2  501    0 -0.29323698540E+02  0.19014441793E+02 -0.10781465344E+03  0.11333767154E+03  0.00000000000E+00 0. -1.
          1    1    1    2  502    0 -0.38286324903E+02 -0.77478497870E+02  0.45391645861E+03  0.46207024542E+03  0.00000000000E+00 0. -1.
         22    1    3    3    0    0  0.62128325272E+01 -0.34233284568E+02  0.39613739432E+02  0.52723480653E+02  0.00000000000E+00 0.  1.
         22    1    3    3    0    0  0.61397190916E+02  0.92697340644E+02  0.24912488278E+02  0.11394316165E+03  0.00000000000E+00 0.  1.
</event>
<event>
 7    1  0.6597701E-006  0.9337653E+02  0.7818608E-02  0.1485547E+00
          2   -1    0    0  502    0  0.00000000000E+00  0.00000000000E+00  0.13881706669E+04  0.13881706669E+04  0.00000000000E+00 0. -1.
          1   -1    0    0  501    0 -0.00000000000E+00 -0.00000000000E+00 -0.52148785021E+03  0.52148785021E+03  0.00000000000E+00 0. -1.
         25    2    1    2    0    0  0.56431079378E+02 -0.56200165099E+02  0.35411849069E+03  0.38388590876E+03  0.12500224086E+03 0.  0.
          2    1    1    2  501    0  0.12139154070E+01 -0.19999181617E+02 -0.50416532461E+03  0.50456329176E+03  0.00000000000E+00 0. -1.
          1    1    1    2  502    0 -0.57644994785E+02  0.76199346716E+02  0.10167296506E+04  0.10212093166E+04  0.00000000000E+00 0. -1.
         22    1    3    3    0    0  0.96602433883E+02 -0.40134648775E+02  0.26208378893E+03  0.28218917890E+03  0.00000000000E+00 0. -1.
         22    1    3    3    0    0 -0.40171354506E+02 -0.16065516324E+02  0.92034701754E+02  0.10169672986E+03  0.00000000000E+00 0. -1.
</event>
<event>
 7    1  0.6597701E-006  0.8113711E+02  0.7818608E-02  0.1369682E+00
          2   -1    0    0  502    0  0.00000000000E+00  0.00000000000E+00  0.71855647771E+03  0.71855647771E+03  0.00000000000E+00 0. -1.
          1   -1    0    0  501    0 -0.00000000000E+00 -0.00000000000E+00 -0.17483481126E+03  0.17483481126E+03  0.00000000000E+00 0. -1.
         25    2    1    2    0    0  0.51938844291E+02  0.81894348372E+02  0.18912638144E+03  0.24657128094E+03  0.12499712231E+03 0.  0.
          2    1    1    2  501    0 -0.55742269459E+02 -0.87158074592E+00 -0.13734990523E+03  0.14823277884E+03  0.00000000000E+00 0. -1.
          1    1    1    2  502    0  0.38034251673E+01 -0.81022767626E+02  0.49194519024E+03  0.49858722919E+03  0.00000000000E+00 0. -1.
         22    1    3    3    0    0 -0.37096097309E+02  0.74178357916E+00  0.54281086877E+02  0.65750338942E+02  0.00000000000E+00 0.  1.
         22    1    3    3    0    0  0.89034941601E+02  0.81152564793E+02  0.13484529456E+03  0.18082094200E+03  0.00000000000E+00 0.  1.
</event>
<event>
 7    1  0.6597701E-006  0.2012031E+03  0.7818608E-02  0.1222335E+00
          2   -1    0    0  502    0  0.00000000000E+00  0.00000000000E+00  0.66499185616E+03  0.66499185616E+03  0.00000000000E+00 0. -1.
          1   -1    0    0  501    0 -0.00000000000E+00 -0.00000000000E+00 -0.12378308331E+04  0.12378308331E+04  0.00000000000E+00 0. -1.
         25    2    1    2    0    0 -0.10185791243E+03  0.81751804652E+02 -0.10126881709E+03  0.20721721017E+03  0.12500082795E+03 0.  0.
          2    1    1    2  501    0  0.18602517775E+03 -0.10940849739E+03 -0.10695459854E+04  0.10911022871E+04  0.00000000000E+00 0. -1.
          1    1    1    2  502    0 -0.84167265314E+02  0.27656692742E+02  0.59797582553E+03  0.60450319199E+03  0.00000000000E+00 0. -1.
         22    1    3    3    0    0 -0.47241798833E+02  0.10257815455E+03 -0.33659125332E+02  0.11784312481E+03  0.00000000000E+00 0. -1.
         22    1    3    3    0    0 -0.54616113599E+02 -0.20826349896E+02 -0.67609691756E+02  0.89374085360E+02  0.00000000000E+00 0. -1.
</event>
<event>
 7    1  0.6597701E-006  0.5845346E+02  0.7818608E-02  0.1482205E+00
          2   -1    0    0  502    0  0.00000000000E+00  0.00000000000E+00  0.14517815390E+04  0.14517815390E+04  0.00000000000E+00 0. -1.
          1   -1    0    0  501    0 -0.00000000000E+00 -0.00000000000E+00 -0.48392536683E+02  0.48392536683E+02  0.00000000000E+00 0. -1.
         25    2    1    2    0    0 -0.17557282908E+02 -0.22201030101E+02  0.12809363253E+04  0.12873325175E+04  0.12500398973E+03 0.  0.
          2    1    1    2  501    0  0.48101254956E+02  0.34063833353E+02 -0.23353276045E+02  0.63399140160E+02  0.00000000000E+00 0. -1.
          1    1    1    2  502    0 -0.30543972048E+02 -0.11862803252E+02  0.14580595308E+03  0.14944241795E+03  0.00000000000E+00 0. -1.
         22    1    3    3    0    0  0.42854547727E+01  0.50609214005E+02  0.60751126859E+03  0.60963070717E+03  0.00000000000E+00 0.  1.
         22    1    3    3    0    0 -0.21842737681E+02 -0.72810244106E+02  0.67342505666E+03  0.67770181037E+03  0.00000000000E+00 0.  1.
</event>
<event>
 7    1  0.6597701E-006  0.7322628E+02  0.7818608E-02  0.1370127E+00
          2   -1    0    0  502    0  0.00000000000E+00  0.00000000000E+00  0.87346203526E+03  0.87346203526E+03  0.00000000000E+00 0. -1.
          1   -1    0    0  501    0 -0.00000000000E+00 -0.00000000000E+00 -0.65804749907E+03  0.65804749907E+03  0.00000000000E+00 0. -1.
         25    2    1    2    0    0 -0.78543967484E+02  0.40590307842E+01 -0.22257551327E+02  0.14935137262E+03  0.12499921341E+03 0.  0.
          2    1    1    2  501    0  0.26115181375E+02 -0.55729067092E+02 -0.56890739440E+03  0.57222666403E+03  0.00000000000E+00 0. -1.
          1    1    1    2  502    0  0.52428786109E+02  0.51670036308E+02  0.80657948193E+03  0.80993149768E+03  0.00000000000E+00 0. -1.
         22    1    3    3    0    0 -0.10449455189E+03  0.18609720272E+02  0.86006706977E+01  0.10648664047E+03  0.00000000000E+00 0.  1.
         22    1    3    3    0    0  0.25950584405E+02 -0.14550689488E+02 -0.30858222025E+02  0.42864732148E+02  0.00000000000E+00 0.  1.
</event>
<event>
 7    1  0.6597701E-006  0.4029749E+02  0.7818608E-02  0.1526700E+00
          2   -1    0    0  502    0  0.00000000000E+00  0.00000000000E+00  0.25924352766E+03  0.25924352766E+03  0.00000000000E+00 0. -1.
          1   -1    0    0  501    0 -0.00000000000E+00 -0.00000000000E+00 -0.12192269511E+03  0.12192269511E+03  0.00000000000E+00 0. -1.
         25    2    1    2    0    0  0.11582298576E+02  0.67101626103E+02  0.64281818848E+02  0.15618572234E+03  0.12500019905E+03 0.  0.
          2    1    1    2  501    0 -0.19730333804E+02 -0.28996338016E+02 -0.69156994045E+02  0.77542011295E+02  0.00000000000E+00 0. -1.
          1    1    1    2  502    0  0.81480352272E+01 -0.38105288086E+02  0.14219600775E+03  0.14743848913E+03  0.00000000000E+00 0. -1.
         22    1    3    3    0    0 -0.74001793862E+01  0.51918167919E+02  0.10003726356E+03  0.11295004611E+03  0.00000000000E+00 0.  1.
         22    1    3    3    0    0  0.18982477963E+02  0.15183458183E+02 -0.35755444716E+02  0.43235676227E+02  0.00000000000E+00 0.  1.
</event>
<event>
 7    1  0.6597701E-006  0.1078306E+03  0.7818608E-02  0.1370255E+00
          2   -1    0    0  502    0  0.00000000000E+00  0.00000000000E+00  0.12541029686E+03  0.12541029686E+03  0.00000000000E+00 0. -1.
          1   -1    0    0  501    0 -0.00000000000E+00 -0.00000000000E+00 -0.44848097154E+03  0.44848097154E+03  0.00000000000E+00 0. -1.
         25    2    1    2    0    0 -0.80201736168E+02  0.96571773935E+02 -0.21373021815E+02  0.17842962919E+03  0.12498760141E+03 0.  0.
          2    1    1    2  501    0  0.38543594877E+02 -0.99336899991E+02 -0.32883495617E+03  0.34566726314E+03  0.00000000000E+00 0. -1.
          1    1    1    2  502    0  0.41658141291E+02  0.27651260555E+01  0.27137303306E+02  0.49794376074E+02  0.00000000000E+00 0. -1.
         22    1    3    3    0    0 -0.89576325937E+02  0.99821881497E+02  0.20249727057E+02  0.13564061943E+03  0.00000000000E+00 0. -1.
         22    1    3    3    0    0  0.93745897690E+01 -0.32501075620E+01 -0.41622748873E+02  0.42789009760E+02  0.00000000000E+00 0. -1.
</event>
<event>
 7    1  0.6597701E-006  0.1047015E+03  0.7818608E-02  0.1280764E+00
          2   -1    0    0  502    0  0.00000000000E+00  0.00000000000E+00  0.52657142081E+03  0.52657142081E+03  0.00000000000E+00 0. -1.
          1   -1    0    0  501    0 -0.00000000000E+00 -0.00000000000E+00 -0.78692974231E+03  0.78692974231E+03  0.00000000000E+00 0. -1.
         25    2    1    2    0    0  0.10123214603E+03 -0.12537104136E+03  0.59429658644E+02  0.21242117001E+03  0.12500009496E+03 0.  0.
          2    1    1    2  501    0 -0.39977338434E+01  0.95001806655E+02 -0.70052623208E+03  0.70695001731E+03  0.00000000000E+00 0. -1.
          1    1    1    2  502    0 -0.97234412187E+02  0.30369234702E+02  0.38073825194E+03  0.39412997579E+03  0.00000000000E+00 0. -1.
         22    1    3    3    0    0  0.59231065656E+02 -0.14551854994E+03  0.41437943068E+02  0.16248406273E+03  0.00000000000E+00 0.  1.
         22    1    3    3    0    0  0.42001080374E+02  0.20147508579E+02  0.17991715576E+02  0.49937107284E+02  0.00000000000E+00 0.  1.
</event>
<event>
 7    1  0.6597701E-006  0.1083266E+03  0.7818608E-02  0.1356582E+00
          2   -1    0    0  502    0  0.00000000000E+00  0.00000000000E+00  0.15561412379E+04  0.15561412379E+04  0.00000000000E+00 0. -1.
          1   -1    0    0  501    0 -0.00000000000E+00 -0.00000000000E+00 -0.42395765683E+03  0.42395765683E+03  0.00000000000E+00 0. -1.
         25    2    1    2    0    0  0.36326094946E+02  0.93762904310E+02 -0.95354105433E+02  0.18663249499E+03  0.12501286080E+03 0.  0.
          2    1    1    2  501    0 -0.80242651894E+02 -0.78203182243E+02 -0.27149615843E+03  0.29370867358E+03  0.00000000000E+00 0. -1.
          1    1    1    2  502    0  0.43916556948E+02 -0.15559722067E+02  0.14990338449E+04  0.14997577261E+04  0.00000000000E+00 0. -1.
         22    1    3    3    0    0 -0.12704581566E+02 -0.43325617677E+01  0.22152068114E+02  0.25901575357E+02  0.00000000000E+00 0.  1.
         22    1    3    3    0    0  0.49030676512E+02  0.98095466078E+02 -0.11750617355E+03  0.16073091963E+03  0.00000000000E+00 0.  1.
</event>
<event>
 7    1  0.6597701E-006  0.1109662E+03  0.7818608E-02  0.1305092E+00
          2   -1    0    0  502    0  0.00000000000E+00  0.00000000000E+00  0.33547957135E+04  0.33547957135E+04  0.00000000000E+00 0. -1.
          1   -1    0    0  501    0 -0.00000000000E+00 -0.00000000000E+00 -0.10970450705E+03  0.10970450705E+03  0.00000000000E+00 0. -1.
         25    2    1    2    0    0  0.11782035365E+03  0.11979469783E+03  0.31003868744E+03  0.37414027115E+03  0.12499819766E+03 0.  0.
          2    1    1    2  501    0 -0.52039467025E+02 -0.91742063057E+02 -0.41209874526E+02  0.11323853593E+03  0.00000000000E+00 0. -1.
          1    1    1    2  502    0 -0.65780886630E+02 -0.28052634778E+02  0.29762623935E+04  0.29771214134E+04  0.00000000000E+00 0. -1.
         22    1    3    3    0    0  0.12598148352E+03  0.11863021874E+03  0.31840830440E+03  0.36239248240E+03  0.00000000000E+00 0.  1.
         22    1    3    3    0    0 -0.81611298683E+01  0.11644790954E+01 -0.83696169618E+01  0.11747788744E+02  0.00000000000E+00 0.  1.
</event>
<event>
 7    1  0.6597701E-006  0.1181684E+03  0.7818608E-02  0.1328370E+00
          2   -1    0    0  502    0  0.00000000000E+00  0.00000000000E+00  0.41743243726E+03  0.41743243726E+03  0.00000000000E+00 0. -1.
          1   -1    0    0  501    0 -0.00000000000E+00 -0.00000000000E+00 -0.36387782430E+03  0.36387782430E+03  0.00000000000E+00 0. -1.
         25    2    1    2    0    0 -0.49678226845E+02 -0.46643250974E+02  0.17791967734E+03  0.22785591062E+03  0.12497753932E+03 0.  0.
          2    1    1    2  501    0  0.74743616844E+02  0.95021993797E+02 -0.32436649911E+03  0.34616385327E+03  0.00000000000E+00 0. -1.
          1    1    1    2  502    0 -0.25065389999E+02 -0.48378742823E+02  0.20000143473E+03  0.20729049768E+03  0.00000000000E+00 0. -1.
         22    1    3    3    0    0 -0.27130759820E+02 -0.47838713634E+02  0.69872345161E+01  0.55438633612E+02  0.00000000000E+00 0. -1.
         22    1    3    3    0    0 -0.22547467025E+02  0.11954626601E+01  0.17093244283E+03  0.17241727701E+03  0.00000000000E+00 0. -1.
</event>
<event>
 7    1  0.6597701E-006  0.1204295E+03  0.7818608E-02  0.1291551E+00
          2   -1    0    0  502    0  0.00000000000E+00  0.00000000000E+00  0.22013634723E+03  0.22013634723E+03  0.00000000000E+00 0. -1.
          1   -1    0    0  501    0 -0.00000000000E+00 -0.00000000000E+00 -0.75307921117E+03  0.75307921117E+03  0.00000000000E+00 0. -1.
         25    2    1    2    0    0  0.37189459045E+02  0.80122886828E+02 -0.63383148635E+02  0.16566351093E+03  0.12499696982E+03 0.  0.
          2    1    1    2  501    0 -0.10974911965E+03 -0.62462975519E+02 -0.62365696488E+03  0.63631321094E+03  0.00000000000E+00 0. -1.
          1    1    1    2  502    0  0.72559660602E+02 -0.17659911309E+02  0.15409724957E+03  0.17123883654E+03  0.00000000000E+00 0. -1.
         22    1    3    3    0    0 -0.33860717748E+02  0.68198564238E+02 -0.53240194677E+02  0.92909152939E+02  0.00000000000E+00 0.  1.
         22    1    3    3    0    0  0.71050176793E+02  0.11924322590E+02 -0.10142953958E+02  0.72754357989E+02  0.00000000000E+00 0.  1.
</event>
<event>
 7    1  0.6597701E-006  0.1894171E+03  0.7818608E-02  0.1329886E+00
          2   -1    0    0  502    0  0.00000000000E+00  0.00000000000E+00  0.28374503939E+03  0.28374503939E+03  0.00000000000E+00 0. -1.
          1   -1    0    0  501    0 -0.00000000000E+00 -0.00000000000E+00 -0.37325124362E+03  0.37325124362E+03  0.00000000000E+00 0. -1.
         25    2    1    2    0    0  0.12505861557E+03  0.13200547476E+03 -0.17824208588E+03  0.28365638989E+03  0.12500241457E+03 0.  0.
          2    1    1    2  501    0 -0.19466070971E+02  0.27313610462E+02 -0.99545935129E+02  0.10504453549E+03  0.00000000000E+00 0. -1.
          1    1    1    2  502    0 -0.10559254460E+03 -0.15931908523E+03  0.18828181679E+03  0.26829535763E+03  0.00000000000E+00 0. -1.
         22    1    3    3    0    0  0.10861018900E+03  0.13486512152E+03 -0.19445832439E+03  0.26038205408E+03  0.00000000000E+00 0.  1.
         22    1    3    3    0    0  0.16448426565E+02 -0.28596467610E+01  0.16216238509E+02  0.23274335811E+02  0.00000000000E+00 0.  1.
</event>
<event>
 7    1  0.6597701E-006  0.7445901E+02  0.7818608E-02  0.1404260E+00
          2   -1    0    0  502    0  0.00000000000E+00  0.00000000000E+00  0.12909443356E+04  0.12909443356E+04  0.00000000000E+00 0. -1.
          1   -1    0    0  501    0 -0.00000000000E+00 -0.00000000000E+00 -0.49007151395E+02  0.49007151395E+02  0.00000000000E+00 0. -1.
         25    2    1    2    0    0 -0.41288330997E+02 -0.37110908468E+02  0.72991023148E+03  0.74261442678E+03  0.12500118011E+03 0.  0.
          2    1    1    2  501    0 -0.43461873500E+02  0.14924497575E+02 -0.25611237085E+02  0.52608084369E+02  0.00000000000E+00 0. -1.
          1    1    1    2  502    0  0.84750204497E+02  0.22186410893E+02  0.53763818977E+03  0.54472897581E+03  0.00000000000E+00 0. -1.
         22    1    3    3    0    0  0.28701463003E+01  0.38942096751E+02  0.11502705747E+03  0.12147406550E+03  0.00000000000E+00 0.  1.
         22    1    3    3    0    0 -0.44158477297E+02 -0.76053005219E+02  0.61488317402E+03  0.62114036128E+03  0.00000000000E+00 0.  1.
</event>
<event>
 7    1  0.6597701E-006  0.1133608E+03  0.7818608E-02  0.1256625E+00
          2   -1    0    0  502    0  0.00000000000E+00  0.00000000000E+00  0.18194656058E+04  0.18194656058E+04  0.00000000000E+00 0. -1.
          1   -1    0    0  501    0 -0.00000000000E+00 -0.00000000000E+00 -0.36943078055E+02  0.36943078055E+02  0.00000000000E+00 0. -1.
         25    2    1    2    0    0 -0.24087870826E+02  0.14431508040E+02  0.51261037248E+03  0.52837688979E+03  0.12499699894E+03 0.  0.
          2    1    1    2  501    0  0.11811189253E+03 -0.77757239455E+02  0.16493934403E+03  0.21725927979E+03  0.00000000000E+00 0. -1.
          1    1    1    2  502    0 -0.94024021701E+02  0.63325731416E+02  0.11049728113E+04  0.11107725143E+04  0.00000000000E+00 0. -1.
         22    1    3    3    0    0 -0.48264427082E+02 -0.40334987221E+02  0.18661434378E+03  0.19692963063E+03  0.00000000000E+00 0.  1.
         22    1    3    3    0    0  0.24176556256E+02  0.54766495260E+02  0.32599602870E+03  0.33144725916E+03  0.00000000000E+00 0.  1.
</event>
<event>
 7    1  0.6597701E-006  0.3383354E+02  0.7818608E-02  0.1619514E+00
          2   -1    0    0  502    0  0.00000000000E+00  0.00000000000E+00  0.63239522526E+03  0.63239522526E+03  0.00000000000E+00 0. -1.
          1   -1    0    0  501    0 -0.00000000000E+00 -0.00000000000E+00 -0.96613662194E+03  0.96613662194E+03  0.00000000000E+00 0. -1.
         25    2    1    2    0    0  0.33514622574E+02 -0.35286008371E+02  0.43243625015E+03  0.45276309060E+03  0.12499989383E+03 0.  0.
          2    1    1    2  501    0 -0.35652941318E+01  0.23144434182E+02 -0.95445288075E+03  0.95474011004E+03  0.00000000000E+00 0. -1.
          1    1    1    2  502    0 -0.29949328442E+02  0.12141574189E+02  0.18827523391E+03  0.19102864655E+03  0.00000000000E+00 0. -1.
         22    1    3    3    0    0  0.41836088613E+02 -0.78303373453E+02  0.32014319507E+03  0.33222483645E+03  0.00000000000E+00 0.  1.
         22    1    3    3    0    0 -0.83214660394E+01  0.43017365081E+02  0.11229305508E+03  0.12053825416E+03  0.00000000000E+00 0.  1.
</event>
<event>
 7    1  0.6597701E-006  0.9946840E+02  0.7818608E-02  0.1406445E+00
          2   -1    0    0  502    0  0.00000000000E+00  0.00000000000E+00  0.16683471892E+03  0.16683471892E+03  0.00000000000E+00 0. -1.
          1   -1    0    0  501    0 -0.00000000000E+00 -0.00000000000E+00 -0.12561354228E+04  0.12561354228E+04  0.00000000000E+00 0. -1.
         25    2    1    2    0    0 -0.10952523122E+03  0.22232958238E+02 -0.96403176869E+02  0.19341387622E+03  0.12500109718E+03 0.  0.
          2    1    1    2  501    0  0.23110184420E+02  0.24683525262E+02 -0.10904919490E+04  0.10910160622E+04  0.00000000000E+00 0. -1.
          1    1    1    2  502    0  0.86415046803E+02 -0.46916483500E+02  0.97594421991E+02  0.13854020334E+03  0.00000000000E+00 0. -1.
         22    1    3    3    0    0 -0.10154462354E+03  0.53471464459E+02 -0.10949263269E+03  0.15861634435E+03  0.00000000000E+00 0.  1.
         22    1    3    3    0    0 -0.79806076783E+01 -0.31238506221E+02  0.13089455826E+02  0.34797531861E+02  0.00000000000E+00 0.  1.
</event>
<event>
 7    1  0.6597701E-006  0.6244085E+02  0.7818608E-02  0.1416534E+00
          2   -1    0    0  502    0  0.00000000000E+00  0.00000000000E+00  0.15946587122E+03  0.15946587122E+03  0.00000000000E+00 0. -1.
          1   -1    0    0  501    0 -0.00000000000E+00 -0.00000000000E+00 -0.14291640668E+04  0.14291640668E+04  0.00000000000E+00 0. -1.
         25    2    1    2    0    0 -0.66648774543E+02 -0.48929395780E+02  0.23370036772E+02  0.15168081108E+03  0.12499905964E+03 0.  0.
          2    1    1    2  501    0  0.62405692642E+02 -0.68534834602E+00 -0.13555869457E+04  0.13570228102E+04  0.00000000000E+00 0. -1.
          1    1    1    2  502    0  0.42430819013E+01  0.49614744126E+02  0.62518713355E+02  0.79926316681E+02  0.00000000000E+00 0. -1.
         22    1    3    3    0    0 -0.28505636669E+02 -0.89398609400E+02  0.20173552159E+02  0.95977366557E+02  0.00000000000E+00 0. -1.
         22    1    3    3    0    0 -0.38143137874E+02  0.40469213620E+02  0.31964846136E+01  0.55703444523E+02  0.00000000000E+00 0. -1.
</event>
<event>
 7    1  0.6597701E-006  0.6041023E+02  0.7818608E-02  0.1401854E+00
          2   -1    0    0  502    0  0.00000000000E+00  0.00000000000E+00  0.62465148037E+03  0.62465148037E+03  0.00000000000E+00 0. -1.
          1   -1    0    0  501    0 -0.00000000000E+00 -0.00000000000E+00 -0.58485195165E+02  0.58485195165E+02  0.00000000000E+00 0. -1.
         25    2    1    2    0    0  0.64743481368E+02  0.44257235347E+02  0.30419460454E+03  0.33809749481E+03  0.12500054922E+03 0.  0.
          2    1    1    2  501    0 -0.59325976932E+02  0.13212165330E+02 -0.14599560328E+02  0.62508239564E+02  0.00000000000E+00 0. -1.
          1    1    1    2  502    0 -0.54175044364E+01 -0.57469400677E+02  0.27657124099E+03  0.28253094116E+03  0.00000000000E+00 0. -1.
         22    1    3    3    0    0  0.90741123114E+02 -0.59318987512E+01  0.18125680874E+03  0.20278848479E+03  0.00000000000E+00 0. -1.
         22    1    3    3    0    0 -0.25997641746E+02  0.50189134098E+02  0.12293779580E+03  0.13530901002E+03  0.00000000000E+00 0. -1.
</event>
<event>
 7    1  0.6597701E-006  0.1096626E+03  0.7818608E-02  0.1429566E+00
          2   -1    0    0  502    0  0.00000000000E+00  0.00000000000E+00  0.45173323725E+03  0.45173323725E+03  0.00000000000E+00 0. -1.
          1   -1    0    0  501    0 -0.00000000000E+00 -0.00000000000E+00 -0.29610445196E+03  0.29610445196E+03  0.00000000000E+00 0. -1.
         25    2    1    2    0    0 -0.57570532747E+02 -0.68330747962E+02  0.88612752564E+02  0.17736493701E+03  0.12499057406E+03 0.  0.
          2    1    1    2  501    0 -0.11203451349E+02 -0.23085718936E+02 -0.24076018740E+03  0.24212380217E+03  0.00000000000E+00 0. -1.
          1    1    1    2  502    0  0.68773984096E+02  0.91416466898E+02  0.30777622013E+03  0.32834895003E+03  0.00000000000E+00 0. -1.
         22    1    3    3    0    0 -0.47881189116E+02 -0.10215988003E+03  0.45348119948E+02  0.12159646928E+03  0.00000000000E+00 0. -1.
         22    1    3    3    0    0 -0.96893436303E+01  0.33829132071E+02  0.43264632616E+02  0.55768467722E+02  0.00000000000E+00 0. -1.
</event>
<event>
 7    1  0.6597701E-006  0.7185628E+02  0.7818608E-02  0.1453901E+00
          2   -1    0    0  502    0  0.00000000000E+00  0.00000000000E+00  0.24081182890E+04  0.24081182890E+04  0.00000000000E+00 0. -1.
          1   -1    0    0  501    0 -0.00000000000E+00 -0.00000000000E+00 -0.63280472349E+03  0.63280472349E+03  0.00000000000E+00 0. -1.
         25    2    1    2    0    0  0.75632482109E+02 -0.49230869813E+02 -0.14826252297E+02  0.15488428125E+03  0.12500148770E+03 0.  0.
          2    1    1    2  501    0 -0.59322807143E+01  0.32121249614E+02 -0.54691129730E+03  0.54788587657E+03  0.00000000000E+00 0. -1.
          1    1    1    2  502    0 -0.69700201394E+02  0.17109620198E+02  0.23370511151E+04  0.23381528546E+04  0.00000000000E+00 0. -1.
         22    1    3    3    0    0 -0.19239513785E+02 -0.30128309385E+02 -0.41231829844E+02  0.54570483865E+02  0.00000000000E+00 0.  1.
         22    1    3    3    0    0  0.94871995893E+02 -0.19102560428E+02  0.26405577546E+02  0.10031379738E+03  0.00000000000E+00 0.  1.
</event>
<event>
 7    1  0.6597701E-006  0.1675180E+03  0.7818608E-02  0.1227038E+00
          2   -1    0    0  502    0  0.00000000000E+00  0.00000000000E+00  0.10719144922E+04  0.10719144922E+04  0.00000000000E+00 0. -1.
          1   -1    0    0  501    0 -0.00000000000E+00 -0.00000000000E+00 -0.52882030486E+03  0.52882030486E+03  0.00000000000E+00 0. -1.
         25    2    1    2    0    0  0.56351988583E+02 -0.67203449666E+02  0.11509945361E+03  0.19121977303E+03  0.12500106845E+03 0.  0.
          2    1    1    2  501    0  0.80280697848E+02 -0.61816086426E+02 -0.47575985391E+03  0.48642949909E+03  0.00000000000E+00 0. -1.
          1    1    1    2  502    0 -0.13663268643E+03  0.12901953609E+03  0.90375458760E+03  0.92308552492E+03  0.00000000000E+00 0. -1.
         22    1    3    3    0    0  0.81544655983E+02 -0.40530932036E+02  0.12363486404E+03  0.15355086120E+03  0.00000000000E+00 0. -1.
         22    1    3    3    0    0 -0.25192667400E+02 -0.26672517630E+02 -0.85354104211E+01  0.37668911831E+02  0.00000000000E+00 0. -1.
</event>
<event>
 7    1  0.6597701E-006  0.8895217E+02  0.7818608E-02  0.1322262E+00
          2   -1    0    0  502    0  0.00000000000E+00  0.00000000000E+00  0.30035952295E+04  0.30035952295E+04  0.00000000000E+00 0. -1.
          1   -1    0    0  501    0 -0.00000000000E+00 -0.00000000000E+00 -0.41389596030E+02  0.41389596030E+02  0.00000000000E+00 0. -1.
         25    2    1    2    0    0  0.40704532852E+01  0.31331652954E+02  0.43841278107E+03  0.45697844356E+03  0.12500116081E+03 0.  0.
          2    1    1    2  501    0  0.46400730550E+02 -0.88697180626E+02  0.47964264735E+02  0.11099904656E+03  0.00000000000E+00 0. -1.
          1    1    1    2  502    0 -0.50471183835E+02  0.57365527672E+02  0.24758285876E+04  0.24770073354E+04  0.00000000000E+00 0. -1.
         22    1    3    3    0    0  0.46321772049E+02 -0.28387378770E+02  0.15375510021E+03  0.16307109088E+03  0.00000000000E+00 0. -1.
         22    1    3    3    0    0 -0.42251318764E+02  0.59719031724E+02  0.28465768086E+03  0.29390735268E+03  0.00000000000E+00 0. -1.
</event>
<event>
 7    1  0.6597701E-006  0.9711825E+02  0.7818608E-02  0.1405996E+00
          2   -1    0    0  502    0  0.00000000000E+00  0.00000000000E+00  0.68818883728E+03  0.68818883728E+03  0.00000000000E+00 0. -1.
          1   -1    0    0  501    0 -0.00000000000E+00 -0.00000000000E+00 -0.54580965277E+02  0.54580965277E+02  0.00000000000E+00 0. -1.
         25    2    1    2    0    0  0.74420649133E+02  0.21553326843E+02  0.13486407851E+03  0.19954917511E+03  0.12501429798E+03 0.  0.
          2    1    1    2  501    0  0.99535611056E+01  0.33298311314E+02  0.33755098500E+00  0.34755788808E+02  0.00000000000E+00 0. -1.
          1    1    1    2  502    0 -0.84374210239E+02 -0.54851638157E+02  0.49840624250E+03  0.50846483864E+03  0.00000000000E+00 0. -1.
         22    1    3    3    0    0  0.91202402293E+02 -0.24361498115E+02  0.66358901906E+02  0.11539005432E+03  0.00000000000E+00 0. -1.
         22    1    3    3    0    0 -0.16781753160E+02  0.45914824958E+02  0.68505176605E+02  0.84159120788E+02  0.00000000000E+00 0. -1.
</event>
<event>
 7    1  0.6597701E-006  0.9045888E+02  0.7818608E-02  0.1412974E+00
          2   -1    0    0  502    0  0.00000000000E+00  0.00000000000E+00  0.69937400755E+03  0.69937400755E+03  0.00000000000E+00 0. -1.
          1   -1    0    0  501    0 -0.00000000000E+00 -0.00000000000E+00 -0.12465797982E+03  0.12465797982E+03  0.00000000000E+00 0. -1.
         25    2    1    2    0    0 -0.44114281193E+02  0.85976651777E+02  0.18760018535E+03  0.24527186438E+03  0.12500561370E+03 0.  0.
          2    1    1    2  501    0  0.67853835863E+02 -0.59805719734E+02 -0.73650115371E+02  0.11664135908E+03  0.00000000000E+00 0. -1.
          1    1    1    2  502    0 -0.23739554670E+02 -0.26170932043E+02  0.46076595774E+03  0.46211876391E+03  0.00000000000E+00 0. -1.
         22    1    3    3    0    0 -0.58566416834E+02  0.11227255066E+03  0.13793607413E+03  0.18724719320E+03  0.00000000000E+00 0. -1.
         22    1    3    3    0    0  0.14452135641E+02 -0.26295898887E+02  0.49664111221E+02  0.58024671186E+02  0.00000000000E+00 0. -1.
</event>
<event>
 7    1  0.6597701E-006  0.1933167E+03  0.7818608E-02  0.1202652E+00
          2   -1    0    0  502    0  0.00000000000E+00  0.00000000000E+00  0.94154860010E+03  0.94154860010E+03  0.00000000000E+00 0. -1.
          1   -1    0    0  501    0 -0.00000000000E+00 -0.00000000000E+00 -0.41685139452E+03  0.41685139452E+03  0.00000000000E+00 0. -1.
         25    2    1    2    0    0 -0.80760253489E+02 -0.79273722089E+02  0.14617631031E+03  0.22315467193E+03  0.12499580934E+03 0.  0.
          2    1    1    2  501    0  0.75765796621E+02  0.19283899175E+03 -0.34522538828E+03  0.40262625522E+03  0.00000000000E+00 0. -1.
          1    1    1    2  502    0  0.49944568678E+01 -0.11356526966E+03  0.72374628355E+03  0.73261906747E+03  0.00000000000E+00 0. -1.
         22    1    3    3    0    0 -0.58451045635E+02  0.70883225626E+01  0.90500959828E+01  0.59570741895E+02  0.00000000000E+00 0.  1.
         22    1    3    3    0    0 -0.22309207854E+02 -0.86362044652E+02  0.13712621432E+03  0.16358393004E+03  0.00000000000E+00 0.  1.
</event>
<event>
 7    1  0.6597701E-006  0.7829552E+02  0.7818608E-02  0.1448013E+00
          2   -1    0    0  502    0  0.00000000000E+00  0.00000000000E+00  0.49457589338E+03  0.49457589338E+03  0.00000000000E+00 0. -1.
          1   -1    0    0  501    0 -0.00000000000E+00 -0.00000000000E+00 -0.25461436397E+03  0.25461436397E+03  0.00000000000E+00 0. -1.
         25    2    1    2    0    0 -0.55018801311E+02  0.92878729625E+02 -0.46868038578E+01  0.16523006267E+03  0.12500192224E+03 0.  0.
          2    1    1    2  501    0  0.12181361982E+02 -0.28837994271E+02 -0.16458567806E+03  0.16753644653E+03  0.00000000000E+00 0. -1.
          1    1    1    2  502    0  0.42837439329E+02 -0.64040735354E+02  0.40923401133E+03  0.41642374815E+03  0.00000000000E+00 0. -1.
         22    1    3    3    0    0 -0.57285246454E+02  0.12232886863E+03  0.13401465892E+01  0.13508422393E+03  0.00000000000E+00 0.  1.
         22    1    3    3    0    0  0.22664451428E+01 -0.29450139009E+02 -0.60269504470E+01  0.30145838733E+02  0.00000000000E+00 0.  1.
</event>
<event>
 7    1  0.6597701E-006  0.1709749E+03  0.7818608E-02  0.1319390E+00
          2   -1    0    0  502    0  0.00000000000E+00  0.00000000000E+00  0.97722032622E+03  0.97722032622E+03  0.00000000000E+00 0. -1.
          1   -1    0    0  501    0 -0.00000000000E+00 -0.00000000000E+00 -0.34609831879E+03  0.34609831879E+03  0.00000000000E+00 0. -1.
         25    2    1    2    0    0  0.11577615018E+03  0.86027421523E+02 -0.14340630922E+03  0.23873853760E+03  0.12500354237E+03 0.  0.
          2    1    1    2  501    0  0.72551762278E+00  0.40777333591E+02 -0.14419848770E+03  0.14985500047E+03  0.00000000000E+00 0. -1.
          1    1    1    2  502    0 -0.11650166780E+03 -0.12680475511E+03  0.91872680435E+03  0.93472510695E+03  0.00000000000E+00 0. -1.
         22    1    3    3    0    0  0.92508448802E+02  0.75932889467E+02 -0.16608556623E+03  0.20471451368E+03  0.00000000000E+00 0. -1.
         22    1    3    3    0    0  0.23267701378E+02  0.10094532056E+02  0.22679257009E+02  0.34024023915E+02  0.00000000000E+00 0. -1.
</event>
<event>
 7    1  0.6597701E-006  0.8282625E+02  0.7818608E-02  0.1394976E+00
          2   -1    0    0  502    0  0.00000000000E+00  0.00000000000E+00  0.26156697191E+04  0.26156697191E+04  0.00000000000E+00 0. -1.
          1   -1    0    0  501    0 -0.00000000000E+00 -0.00000000000E+00 -0.62064965688E+02  0.62064965688E+02  0.00000000000E+00 0. -1.
         25    2    1    2    0    0  0.10884495381E+02 -0.11313897417E+03  0.42606847230E+03  0.45834287743E+03  0.12499980196E+03 0.  0.
          2    1    1    2  501    0 -0.32123315230E+02  0.74075510508E+02 -0.10031469345E+02  0.81361655683E+02  0.00000000000E+00 0. -1.
          1    1    1    2  502    0  0.21238819849E+02  0.39063463662E+02  0.21375677505E+04  0.21380301517E+04  0.00000000000E+00 0. -1.
         22    1    3    3    0    0  0.58348286046E+02 -0.40600951510E+02  0.11303732577E+03  0.13353050874E+03  0.00000000000E+00 0. -1.
         22    1    3    3    0    0 -0.47463790665E+02 -0.72538022660E+02  0.31303114653E+03  0.32481236869E+03  0.00000000000E+00 0. -1.
</event>
<event>
 7    1  0.6597701E-006  0.7231753E+02  0.7818608E-02  0.1436433E+00
          2   -1    0    0  502    0  0.00000000000E+00  0.00000000000E+00  0.24060142198E+04  0.24060142198E+04  0.00000000000E+00 0. -1.
          1   -1    0    0  501    0 -0.00000000000E+00 -0.00000000000E+00 -0.13603819857E+03  0.13603819857E+03  0.00000000000E+00 0. -1.
         25    2    1    2    0    0 -0.73970191420E+02  0.14400605318E+02  0.48853653867E+02  0.15390718520E+03  0.12498710136E+03 0.  0.
          2    1    1    2  501    0  0.18430664869E+02  0.32020902834E+02 -0.78827638120E+02  0.87056442366E+02  0.00000000000E+00 0. -1.
          1    1    1    2  502    0  0.55539526551E+02 -0.46421508152E+02  0.22999500055E+04  0.23010887908E+04  0.00000000000E+00 0. -1.
         22    1    3    3    0    0 -0.76959004445E+02  0.16838467544E+02 -0.22907445568E+02  0.82042509815E+02  0.00000000000E+00 0.  1.
         22    1    3    3    0    0  0.29888130248E+01 -0.24378622265E+01  0.71761099435E+02  0.71864675382E+02  0.00000000000E+00 0.  1.
</event>
<event>
 7    1  0.6597701E-006  0.9851311E+02  0.7818608E-02  0.1403958E+00
          2   -1    0    0  502    0  0.00000000000E+00  0.00000000000E+00  0.75174192571E+03  0.75174192571E+03  0.00000000000E+00 0. -1.
          1   -1    0    0  501    0 -0.00000000000E+00 -0.00000000000E+00 -0.20929000654E+03  0.20929000654E+03  0.00000000000E+00 0. -1.
         25    2    1    2    0    0  0.12139602592E+03 -0.24057286886E+02  0.19603774992E+03  0.26338534592E+03  0.12500117157E+03 0.  0.
          2    1    1    2  501    0 -0.25929404867E+02  0.23233038515E+02 -0.16946676562E+03  0.17300604835E+03  0.00000000000E+00 0. -1.
          1    1    1    2  502    0 -0.95466621056E+02  0.82424837024E+00  0.51588093487E+03  0.52464053797E+03  0.00000000000E+00 0. -1.
         22    1    3    3    0    0  0.79885989851E+02  0.14615517520E+02  0.27798548776E+02  0.85837893969E+02  0.00000000000E+00 0.  1.
         22    1    3    3    0    0  0.41510036071E+02 -0.38672804405E+02  0.16823920114E+03  0.17754745195E+03  0.00000000000E+00 0.  1.
</event>
<event>
 7    1  0.6597701E-006  0.7758255E+02  0.7818608E-02  0.1444893E+00
          2   -1    0    0  502    0  0.00000000000E+00  0.00000000000E+00  0.10523882412E+04  0.10523882412E+04  0.00000000000E+00 0. -1.
          1   -1    0    0  501    0 -0.00000000000E+00 -0.00000000000E+00 -0.14934266220E+04  0.14934266220E+04  0.00000000000E+00 0. -1.
         25    2    1    2    0    0 -0.77711688821E+02 -0.76032716969E+02  0.11475952603E+03  0.20153313306E+03  0.12500309707E+03 0.  0.
          2    1    1    2  501    0  0.22396778843E+02  0.23317148704E+02 -0.14482267698E+04  0.14485876162E+04  0.00000000000E+00 0. -1.
          1    1    1    2  502    0  0.55314909978E+02  0.52715568265E+02  0.89242886287E+03  0.89569411391E+03  0.00000000000E+00 0. -1.
         22    1    3    3    0    0 -0.26194657634E+02  0.26803461289E+02  0.67454232961E+02  0.77166438106E+02  0.00000000000E+00 0. -1.
         22    1    3    3    0    0 -0.51517031187E+02 -0.10283617826E+03  0.47305293072E+02  0.12436669495E+03  0.00000000000E+00 0. -1.
</event>
<event>
 7    1  0.6597701E-006  0.3930289E+02  0.7818608E-02  0.1552449E+00
          2   -1    0    0  502    0  0.00000000000E+00  0.00000000000E+00  0.18167105006E+04  0.18167105006E+04  0.00000000000E+00 0. -1.
          1   -1    0    0  501    0 -0.00000000000E+00 -0.00000000000E+00 -0.13114357508E+03  0.13114357508E+03  0.00000000000E+00 0. -1.
         25    2    1    2    0    0  0.38516322294E+02  0.56482171560E+02  0.73688136321E+03  0.75052899406E+03  0.12500353869E+03 0.  0.
          2    1    1    2  501    0 -0.27109633960E+02 -0.28294877624E+02 -0.12101046106E+03  0.12719694980E+03  0.00000000000E+00 0. -1.
          1    1    1    2  502    0 -0.11406688334E+02 -0.28187293936E+02  0.10696960233E+04  0.10701281318E+04  0.00000000000E+00 0. -1.
         22    1    3    3    0    0 -0.18122207052E+02 -0.32039066650E+02  0.22220746162E+03  0.22523559261E+03  0.00000000000E+00 0.  1.
         22    1    3    3    0    0  0.56638529345E+02  0.88521238210E+02  0.51467390160E+03  0.52529340145E+03  0.00000000000E+00 0.  1.
</event>
<event>
 7    1  0.6597701E-006  0.1030581E+03  0.7818608E-02  0.1381322E+00
          2   -1    0    0  502    0  0.00000000000E+00  0.00000000000E+00  0.99583093047E+03  0.99583093047E+03  0.00000000000E+00 0. -1.
          1   -1    0    0  501    0 -0.00000000000E+00 -0.00000000000E+00 -0.94590114386E+02  0.94590114386E+02  0.00000000000E+00 0. -1.
         25    2    1    2    0    0  0.88072005962E+02  0.51413006581E+02  0.70275703452E+02  0.17595831873E+03  0.12499071948E+03 0.  0.
          2    1    1    2  501    0 -0.10524182341E+03 -0.15406474006E+02  0.27303929077E+02  0.10981213675E+03  0.00000000000E+00 0. -1.
          1    1    1    2  502    0  0.17169817446E+02 -0.36006532575E+02  0.80366118356E+03  0.80465058937E+03  0.00000000000E+00 0. -1.
         22    1    3    3    0    0  0.35048365866E+02  0.54155071270E+01 -0.34738937321E+02  0.49643825734E+02  0.00000000000E+00 0.  1.
         22    1    3    3    0    0  0.53023640095E+02  0.45997499454E+02  0.10501464077E+03  0.12631449300E+03  0.00000000000E+00 0.  1.
</event>
<event>
 7    1  0.6597701E-006  0.1971514E+03  0.7818608E-02  0.1178338E+00
          2   -1    0    0  502    0  0.00000000000E+00  0.00000000000E+00  0.93999080002E+03  0.93999080002E+03  0.00000000000E+00 0. -1.
          1   -1    0    0  501    0 -0.00000000000E+00 -0.00000000000E+00 -0.73129407976E+03  0.73129407976E+03  0.00000000000E+00 0. -1.
         25    2    1    2    0    0 -0.17962911907E+03 -0.26499821369E+03  0.26915074543E+03  0.43653068113E+03  0.12500495244E+03 0.  0.
          2    1    1    2  501    0  0.99270125389E+02  0.10675812768E+03 -0.62561866800E+03  0.64237883944E+03  0.00000000000E+00 0. -1.
          1    1    1    2  502    0  0.80358993677E+02  0.15824008601E+03  0.56516464283E+03  0.59237535920E+03  0.00000000000E+00 0. -1.
         22    1    3    3    0    0 -0.93409161051E+02 -0.19485435630E+03  0.11017528371E+03  0.24255326152E+03  0.00000000000E+00 0.  1.
         22    1    3    3    0    0 -0.86219958015E+02 -0.70143857390E+02  0.15897546172E+03  0.19397741961E+03  0.00000000000E+00 0.  1.
</event>
<event>
 7    1  0.6597701E-006  0.7852636E+02  0.7818608E-02  0.1439278E+00
          2   -1    0    0  502    0  0.00000000000E+00  0.00000000000E+00  0.29953884419E+03  0.29953884419E+03  0.00000000000E+00 0. -1.
          1   -1    0    0  501    0 -0.00000000000E+00 -0.00000000000E+00 -0.93706467894E+03  0.93706467894E+03  0.00000000000E+00 0. -1.
         25    2    1    2    0    0 -0.62515096783E+02 -0.75079138098E+02 -0.42390324358E+03  0.45262026219E+03  0.12500451003E+03 0.  0.
          2    1    1    2  501    0  0.33219627997E+02  0.24149720371E+01 -0.49284913037E+03  0.49397332021E+03  0.00000000000E+00 0. -1.
          1    1    1    2  502    0  0.29295468786E+02  0.72664166061E+02  0.27922653920E+03  0.29000994072E+03  0.00000000000E+00 0. -1.
         22    1    3    3    0    0 -0.51432919845E+02 -0.99762256821E+02 -0.40325729337E+03  0.41858606974E+03  0.00000000000E+00 0.  1.
         22    1    3    3    0    0 -0.11082176938E+02  0.24683118723E+02 -0.20645950213E+02  0.34034192451E+02  0.00000000000E+00 0.  1.
</event>
<event>
 7    1  0.6597701E-006  0.7329470E+02  0.7818608E-02  0.1454202E+00
          2   -1    0    0  502    0  0.00000000000E+00  0.00000000000E+00  0.17137960604E+04  0.17137960604E+04  0.00000000000E+00 0. -1.
          1   -1    0    0  501    0 -0.00000000000E+00 -0.00000000000E+00 -0.12176439172E+04  0.12176439172E+04  0.00000000000E+00 0. -1.
         25    2    1    2    0    0  0.24397040260E+02 -0.10036724220E+03  0.65052394920E+03  0.67042820803E+03  0.12499509892E+03 0.  0.
          2    1    1    2  501    0 -0.26048849435E+02  0.68457116372E+02 -0.12063384105E+04  0.12085600027E+04  0.00000000000E+00 0. -1.
          1    1    1    2  502    0  0.16518091749E+01  0.31910125829E+02  0.10519666046E+04  0.10524517669E+04  0.00000000000E+00 0. -1.
         22    1    3    3    0    0  0.15764522462E+02 -0.10565311324E+03  0.27876453739E+03  0.29853101650E+03  0.00000000000E+00 0. -1.
         22    1    3    3    0    0  0.86325177987E+01  0.52858710410E+01  0.37175941181E+03  0.37189719153E+03  0.00000000000E+00 0. -1.
</event>
<event>
 7    1  0.6597701E-006  0.1560517E+03  0.7818608E-02  0.1220190E+00
          2   -1    0    0  502    0  0.00000000000E+00  0.00000000000E+00  0.19826339617E+04  0.19826339617E+04  0.00000000000E+00 0. -1.
          1   -1    0    0  501    0 -0.00000000000E+00 -0.00000000000E+00 -0.19846625491E+04  0.19846625491E+04  0.00000000000E+00 0. -1.
         25    2    1    2    0    0  0.58195224774E+02  0.25701797078E+03 -0.15587518124E+02  0.29208492451E+03  0.12500284363E+03 0.  0.
          2    1    1    2  501    0 -0.38367247074E+01 -0.15361015637E+03 -0.18257458130E+04  0.18322004732E+04  0.00000000000E+00 0. -1.
          1    1    1    2  502    0 -0.54358500067E+02 -0.10340781441E+03  0.18393047437E+04  0.18430111130E+04  0.00000000000E+00 0. -1.
         22    1    3    3    0    0  0.27883267947E+01  0.22976523954E+03 -0.85836188146E+01  0.22994242449E+03  0.00000000000E+00 0. -1.
         22    1    3    3    0    0  0.55406897980E+02  0.27252731240E+02 -0.70038993098E+01  0.62142500024E+02  0.00000000000E+00 0. -1.
</event>
<event>
 7    1  0.6597701E-006  0.8831692E+02  0.7818608E-02  0.1387892E+00
          2   -1    0    0  502    0  0.00000000000E+00  0.00000000000E+00  0.25876979601E+04  0.25876979601E+04  0.00000000000E+00 0. -1.
          1   -1    0    0  501    0 -0.00000000000E+00 -0.00000000000E+00 -0.28503791519E+02  0.28503791519E+02  0.00000000000E+00 0. -1.
         25    2    1    2    0    0  0.59697027091E+02 -0.10686178659E+03  0.32069240557E+03  0.36531059237E+03  0.12500013372E+03 0.  0.
          2    1    1    2  501    0  0.75852580873E+00  0.44130136970E+02  0.86344293328E+02  0.96971033514E+02  0.00000000000E+00 0. -1.
          1    1    1    2  502    0 -0.60455552900E+02  0.62731649623E+02  0.21521574697E+04  0.21539201257E+04  0.00000000000E+00 0. -1.
         22    1    3    3    0    0 -0.37339024192E+02 -0.49272525182E+02  0.12374606779E+03  0.13832958381E+03  0.00000000000E+00 0.  1.
         22    1    3    3    0    0  0.97036051283E+02 -0.57589261412E+02  0.19694633778E+03  0.22698100855E+03  0.00000000000E+00 0.  1.
</event>
<event>
 7    1  0.6597701E-006  0.5818342E+02  0.7818608E-02  0.1429560E+00
          2   -1    0    0  502    0  0.00000000000E+00  0.00000000000E+00  0.43850205206E+03  0.43850205206E+03  0.00000000000E+00 0. -1.
          1   -1    0    0  501    0 -0.00000000000E+00 -0.00000000000E+00 -0.81378039274E+03  0.81378039274E+03  0.00000000000E+00 0. -1.
         25    2    1    2    0    0  0.93651456720E+01 -0.26385704557E+02  0.18699513749E+02  0.12943966413E+03  0.12498417290E+03 0.  0.
          2    1    1    2  501    0  0.47721980926E+02  0.78699134542E+01 -0.75516059746E+03  0.75670790333E+03  0.00000000000E+00 0. -1.
          1    1    1    2  502    0 -0.57087126598E+02  0.18515791103E+02  0.36118274303E+03  0.36613487735E+03  0.00000000000E+00 0. -1.
         22    1    3    3    0    0  0.49249682673E+02  0.18655770315E+02  0.39447364393E+02  0.65800179080E+02  0.00000000000E+00 0. -1.
         22    1    3    3    0    0 -0.39884537001E+02 -0.45041474872E+02 -0.20747850644E+02  0.63639485045E+02  0.00000000000E+00 0. -1.
</event>
<event>
 7    1  0.6597701E-006  0.6611411E+02  0.7818608E-02  0.1446749E+00
          2   -1    0    0  502    0  0.00000000000E+00  0.00000000000E+00  0.13338566813E+04  0.13338566813E+04  0.00000000000E+00 0. -1.
          1   -1    0    0  501    0 -0.00000000000E+00 -0.00000000000E+00 -0.10361252245E+03  0.10361252245E+03  0.00000000000E+00 0. -1.
         25    2    1    2    0    0  0.13994287380E+02  0.72755440395E+02  0.27019906979E+02  0.14779948035E+03  0.12500166732E+03 0.  0.
          2    1    1    2  501    0  0.29546120894E+02 -0.22964467641E+02 -0.34070860599E+02  0.50607939850E+02  0.00000000000E+00 0. -1.
          1    1    1    2  502    0 -0.43540408275E+02 -0.49790972754E+02  0.12372951124E+04  0.12390617835E+04  0.00000000000E+00 0. -1.
         22    1    3    3    0    0 -0.49171992123E+01 -0.14233085751E+02  0.52973954532E+02  0.55072674140E+02  0.00000000000E+00 0.  1.
         22    1    3    3    0    0  0.18911486593E+02  0.86988526146E+02 -0.25954047553E+02  0.92726806214E+02  0.00000000000E+00 0.  1.
</event>
<event>
 7    1  0.6597701E-006  0.4601630E+02  0.7818608E-02  0.1554014E+00
          2   -1    0    0  502    0  0.00000000000E+00  0.00000000000E+00  0.18146928502E+04  0.18146928502E+04  0.00000000000E+00 0. -1.
          1   -1    0    0  501    0 -0.00000000000E+00 -0.00000000000E+00 -0.25368499895E+02  0.25368499895E+02  0.00000000000E+00 0. -1.
         25    2    1    2    0    0 -0.51921060092E+02  0.13455475506E+02  0.23170425405E+03  0.26868001756E+03  0.12500097677E+03 0.  0.
          2    1    1    2  501    0  0.33000110164E+02 -0.30866741883E+02  0.68632076796E+02  0.82171314889E+02  0.00000000000E+00 0. -1.
          1    1    1    2  502    0  0.18920949928E+02  0.17411266377E+02  0.14889880195E+04  0.14892100177E+04  0.00000000000E+00 0. -1.
         22    1    3    3    0    0 -0.39489374407E+02  0.63146925333E+02  0.83579124124E+02  0.11194826868E+03  0.00000000000E+00 0.  1.
         22    1    3    3    0    0 -0.12431685684E+02 -0.49691449828E+02  0.14812512992E+03  0.15673174889E+03  0.00000000000E+00 0.  1.
</event>
<event>
 7    1  0.6597701E-006  0.1627297E+03  0.7818608E-02  0.1350786E+00
          2   -1    0    0  502    0  0.00000000000E+00  0.00000000000E+00  0.15476887510E+04  0.15476887510E+04  0.00000000000E+00 0. -1.
          1   -1    0    0  501    0 -0.00000000000E+00 -0.00000000000E+00 -0.68759504213E+03  0.68759504213E+03  0.00000000000E+00 0. -1.
         25    2    1    2    0    0  0.81925988246E+02  0.10672987474E+03  0.38475650001E+02  0.18763976952E+03  0.12500069500E+03 0.  0.
          2    1    1    2  501    0  0.67540499115E+01  0.31870668422E+02 -0.60785736187E+03  0.60872976687E+03  0.00000000000E+00 0. -1.
          1    1    1    2  502    0 -0.88680038157E+02 -0.13860054316E+03  0.14294754208E+04  0.14389142568E+04  0.00000000000E+00 0. -1.
         22    1    3    3    0    0 -0.60973494943E+01  0.12609208740E+02  0.55874428967E+02  0.57603139049E+02  0.00000000000E+00 0.  1.
         22    1    3    3    0    0  0.88023337740E+02  0.94120665999E+02 -0.17398778966E+02  0.13003663047E+03  0.00000000000E+00 0.  1.
</event>
<event>
 7    1  0.6597701E-006  0.2108437E+03  0.7818608E-02  0.1283940E+00
          2   -1    0    0  502    0  0.00000000000E+00  0.00000000000E+00  0.20718373840E+04  0.20718373840E+04  0.00000000000E+00 0. -1.
          1   -1    0    0  501    0 -0.00000000000E+00 -0.00000000000E+00 -0.53975771747E+03  0.53975771747E+03  0.00000000000E+00 0. -1.
         25    2    1    2    0    0  0.22999381877E+03  0.62825447907E+01 -0.13985285919E+03  0.29686178620E+03  0.12502588069E+03 0.  0.
          2    1    1    2  501    0 -0.19978144571E+03 -0.40727546580E+02 -0.28876970381E+03  0.35349582875E+03  0.00000000000E+00 0. -1.
          1    1    1    2  502    0 -0.30212373059E+02  0.34445001789E+02  0.19607022295E+04  0.19612374865E+04  0.00000000000E+00 0. -1.
         22    1    3    3    0    0  0.25696996096E+02  0.45904326834E+02 -0.17431858686E+02  0.55420325943E+02  0.00000000000E+00 0. -1.
         22    1    3    3    0    0  0.20429682268E+03 -0.39621782043E+02 -0.12242100051E+03  0.24144146026E+03  0.00000000000E+00 0. -1.
</event>
<event>
 7    1  0.6597701E-006  0.8842184E+02  0.7818608E-02  0.1460328E+00
          2   -1    0    0  502    0  0.00000000000E+00  0.00000000000E+00  0.47586646066E+04  0.47586646066E+04  0.00000000000E+00 0. -1.
          1   -1    0    0  501    0 -0.00000000000E+00 -0.00000000000E+00 -0.47345731481E+02  0.47345731481E+02  0.00000000000E+00 0. -1.
         25    2    1    2    0    0  0.54515174880E+02  0.58545038190E+02  0.41378171153E+03  0.43959013485E+03  0.12499902428E+03 0.  0.
          2    1    1    2  501    0 -0.14507078509E+02  0.20763177689E+02 -0.29266284283E+02  0.38705041924E+02  0.00000000000E+00 0. -1.
          1    1    1    2  502    0 -0.40008096371E+02 -0.79308215879E+02  0.43268034479E+04  0.43277151613E+04  0.00000000000E+00 0. -1.
         22    1    3    3    0    0 -0.27779349265E+02  0.19830634033E+02  0.30851752438E+02  0.46008444010E+02  0.00000000000E+00 0. -1.
         22    1    3    3    0    0  0.82294524146E+02  0.38714404157E+02  0.38292995909E+03  0.39358169084E+03  0.00000000000E+00 0. -1.
</event>
<event>
 7    1  0.6597701E-006  0.1042481E+03  0.7818608E-02  0.1374335E+00
          2   -1    0    0  502    0  0.00000000000E+00  0.00000000000E+00  0.25309268486E+04  0.25309268486E+04  0.00000000000E+00 0. -1.
          1   -1    0    0  501    0 -0.00000000000E+00 -0.00000000000E+00 -0.46637892833E+02  0.46637892833E+02  0.00000000000E+00 0. -1.
         25    2    1    2    0    0  0.38981364990E+02  0.13648511352E+03  0.75656975105E+03  0.77985305401E+03  0.12500105846E+03 0.  0.
          2    1    1    2  501    0 -0.32817235818E+02 -0.95187115190E+02  0.38218374457E+02  0.10769494887E+03  0.00000000000E+00 0. -1.
          1    1    1    2  502    0 -0.61641291723E+01 -0.41297998331E+02  0.16895008302E+04  0.16900167385E+04  0.00000000000E+00 0. -1.
         22    1    3    3    0    0  0.33035290780E+02  0.75674408277E+02  0.15894503074E+03  0.17911300707E+03  0.00000000000E+00 0.  1.
         22    1    3    3    0    0  0.59460742101E+01  0.60810705245E+02  0.59762472031E+03  0.60074004694E+03  0.00000000000E+00 0.  1.
</event>
<event>
 7    1  0.6597701E-006  0.5199783E+02  0.7818608E-02  0.1526024E+00
          2   -1    0    0  502    0  0.00000000000E+00  0.00000000000E+00  0.12935856711E+04  0.12935856711E+04  0.00000000000E+00 0. -1.
          1   -1    0    0  501    0 -0.00000000000E+00 -0.00000000000E+00 -0.85591157117E+02  0.85591157117E+02  0.00000000000E+00 0. -1.
         25    2    1    2    0    0  0.59588033244E+02  0.47876219046E+02  0.42185296665E+03  0.44657257663E+03  0.12499709863E+03 0.  0.
          2    1    1    2  501    0 -0.16129354153E+02 -0.22028977026E+02 -0.69914365869E+02  0.75056315185E+02  0.00000000000E+00 0. -1.
          1    1    1    2  502    0 -0.43458679091E+02 -0.25847242020E+02  0.85605591315E+03  0.85754793636E+03  0.00000000000E+00 0. -1.
         22    1    3    3    0    0 -0.22389174502E+02 -0.27203363394E+02  0.93926204721E+02  0.10031664891E+03  0.00000000000E+00 0.  1.
         22    1    3    3    0    0  0.81977207745E+02  0.75079582440E+02  0.32792676193E+03  0.34625592772E+03  0.00000000000E+00 0.  1.
</event>
<event>
 7    1  0.6597701E-006  0.5754328E+02  0.7818608E-02  0.1440042E+00
          2   -1    0    0  502    0  0.00000000000E+00  0.00000000000E+00  0.35236756096E+03  0.35236756096E+03  0.00000000000E+00 0. -1.
          1   -1    0    0  501    0 -0.00000000000E+00 -0.00000000000E+00 -0.35829860632E+03  0.35829860632E+03  0.00000000000E+00 0. -1.
         25    2    1    2    0    0  0.50563041712E+02  0.40447617149E+01  0.28236197414E+02  0.13783040486E+03  0.12500782525E+03 0.  0.
          2    1    1    2  501    0 -0.35178454912E+02 -0.46539305653E+02 -0.29876430013E+03  0.30440686209E+03  0.00000000000E+00 0. -1.
          1    1    1    2  502    0 -0.15384586800E+02  0.42494543938E+02  0.26459705735E+03  0.26842890033E+03  0.00000000000E+00 0. -1.
         22    1    3    3    0    0  0.66058745361E+02 -0.31917213622E+02 -0.19670060740E+02  0.75956419436E+02  0.00000000000E+00 0. -1.
         22    1    3    3    0    0 -0.15495703649E+02  0.35961975337E+02  0.47906258155E+02  0.61873985423E+02  0.00000000000E+00 0. -1.
</event>
<event>
 7    1  0.6597701E-006  0.9598196E+02  0.7818608E-02  0.1417840E+00
          2   -1    0    0  502    0  0.00000000000E+00  0.00000000000E+00  0.39483986077E+04  0.39483986077E+04  0.00000000000E+00 0. -1.
          1   -1    0    0  501    0 -0.00000000000E+00 -0.00000000000E+00 -0.15476305730E+03  0.15476305730E+03  0.00000000000E+00 0. -1.
         25    2    1    2    0    0 -0.40212698121E+02 -0.88458513431E+02  0.40082150172E+03  0.43095779844E+03  0.12499911241E+03 0.  0.
          2    1    1    2  501    0  0.31233596710E+02 -0.72742712217E+01 -0.13719105933E+03  0.14088945789E+03  0.00000000000E+00 0. -1.
          1    1    1    2  502    0  0.89791014112E+01  0.95732784653E+02  0.35300051080E+04  0.35313144087E+04  0.00000000000E+00 0. -1.
         22    1    3    3    0    0  0.22441607736E+02 -0.65256354442E+02  0.92072183048E+02  0.11506217643E+03  0.00000000000E+00 0. -1.
         22    1    3    3    0    0 -0.62654305857E+02 -0.23202158989E+02  0.30874931867E+03  0.31589562201E+03  0.00000000000E+00 0. -1.
</event>
<event>
 7    1  0.6597701E-006  0.4890142E+02  0.7818608E-02  0.1533640E+00
          2   -1    0    0  502    0  0.00000000000E+00  0.00000000000E+00  0.23248722796E+04  0.23248722796E+04  0.00000000000E+00 0. -1.
          1   -1    0    0  501    0 -0.00000000000E+00 -0.00000000000E+00 -0.70621803590E+03  0.70621803590E+03  0.00000000000E+00 0. -1.
         25    2    1    2    0    0 -0.21972036691E+02  0.54474177818E+02 -0.45762218212E+03  0.47800937004E+03  0.12499875932E+03 0.  0.
          2    1    1    2  501    0 -0.15387227039E+02 -0.22923111710E+02 -0.23734372338E+03  0.23894409144E+03  0.00000000000E+00 0. -1.
          1    1    1    2  502    0  0.37359263730E+02 -0.31551066109E+02  0.23136201492E+04  0.23141368540E+04  0.00000000000E+00 0. -1.
         22    1    3    3    0    0 -0.43119555711E+02 -0.27831331882E+02 -0.21120317983E+03  0.21734917136E+03  0.00000000000E+00 0. -1.
         22    1    3    3    0    0  0.21147519019E+02  0.82305509700E+02 -0.24641900228E+03  0.26066019868E+03  0.00000000000E+00 0. -1.
</event>
<event>
 7    1  0.6597701E-006  0.4971982E+02  0.7818608E-02  0.1548679E+00
          2   -1    0    0  502    0  0.00000000000E+00  0.00000000000E+00  0.88772307415E+03  0.88772307415E+03  0.00000000000E+00 0. -1.
          1   -1    0    0  501    0 -0.00000000000E+00 -0.00000000000E+00 -0.10138878505E+03  0.10138878505E+03  0.00000000000E+00 0. -1.
         25    2    1    2    0    0 -0.23336363246E+02 -0.15297739440E+02  0.24379738761E+03  0.27539238007E+03  0.12500076045E+03 0.  0.
          2    1    1    2  501    0  0.47961818886E+02  0.15397752052E+02 -0.77914363345E+02  0.92779711439E+02  0.00000000000E+00 0. -1.
          1    1    1    2  502    0 -0.24625455641E+02 -0.10001261225E+00  0.62045126483E+03  0.62093976769E+03  0.00000000000E+00 0. -1.
         22    1    3    3    0    0 -0.19744624086E+02 -0.67921112026E+02  0.10219903524E+03  0.12428906003E+03  0.00000000000E+00 0. -1.
         22    1    3    3    0    0 -0.35917391595E+01  0.52623372586E+02  0.14159835237E+03  0.15110332003E+03  0.00000000000E+00 0. -1.
</event>
<event>
 7    1  0.6597701E-006  0.9725305E+02  0.7818608E-02  0.1304488E+00
          2   -1    0    0  502    0  0.00000000000E+00  0.00000000000E+00  0.27053404865E+03  0.27053404865E+03  0.00000000000E+00 0. -1.
          1   -1    0    0  501    0 -0.00000000000E+00 -0.00000000000E+00 -0.48663307986E+03  0.48663307986E+03  0.00000000000E+00 0. -1.
         25    2    1    2    0    0  0.87328723672E+00 -0.29304903415E+02 -0.18762286972E+03  0.22734737510E+03  0.12499979091E+03 0.  0.
          2    1    1    2  501    0  0.70089484184E+02 -0.42654328503E+02 -0.26243702406E+03  0.27496385059E+03  0.00000000000E+00 0. -1.
          1    1    1    2  502    0 -0.70962771420E+02  0.71959231918E+02  0.23396086258E+03  0.25485590282E+03  0.00000000000E+00 0. -1.
         22    1    3    3    0    0  0.16307657872E+02 -0.26048469053E+02 -0.20300309027E+03  0.20531613942E+03  0.00000000000E+00 0.  1.
         22    1    3    3    0    0 -0.15434370635E+02 -0.32564343625E+01  0.15380220549E+02  0.22031235685E+02  0.00000000000E+00 0.  1.
</event>
<event>
 7    1  0.6617045E-006  0.8396628E+02  0.7818608E-02  0.1409669E+00
          2   -1    0    0  502    0  0.00000000000E+00  0.00000000000E+00  0.73193784021E+03  0.73193784021E+03  0.00000000000E+00 0. -1.
          1   -1    0    0  501    0 -0.00000000000E+00 -0.00000000000E+00 -0.29507006156E+04  0.29507006156E+04  0.00000000000E+00 0. -1.
         25    2    1    2    0    0  0.54520109014E+02 -0.24152826120E+02 -0.45519143350E+03  0.47579438149E+03  0.12500100409E+03 0.  0.
          2    1    1    2  501    0  0.10019430873E+01 -0.39045597479E+02 -0.24826019411E+04  0.24829091728E+04  0.00000000000E+00 0. -1.
          1    1    1    2  502    0 -0.55522052102E+02  0.63198423600E+02  0.71903059920E+03  0.72393490150E+03  0.00000000000E+00 0. -1.
         22    1    3    3    0    0  0.58336059291E+02  0.32786501797E+02 -0.13634826869E+03  0.15188449852E+03  0.00000000000E+00 0.  1.
         22    1    3    3    0    0 -0.38159502770E+01 -0.56939327918E+02 -0.31884316481E+03  0.32390988297E+03  0.00000000000E+00 0.  1.
</event>
<event>
 7    1  0.6597701E-006  0.3912239E+03  0.7818608E-02  0.1169908E+00
          2   -1    0    0  502    0  0.00000000000E+00  0.00000000000E+00  0.83163692162E+03  0.83163692162E+03  0.00000000000E+00 0. -1.
          1   -1    0    0  501    0 -0.00000000000E+00 -0.00000000000E+00 -0.10630993484E+04  0.10630993484E+04  0.00000000000E+00 0. -1.
         25    2    1    2    0    0  0.29517855648E+02  0.38792141555E+03 -0.51422540427E+02  0.41185453523E+03  0.12500220829E+03 0.  0.
          2    1    1    2  501    0 -0.80812677732E+02  0.22076707252E+01 -0.76972940632E+03  0.77396312680E+03  0.00000000000E+00 0. -1.
          1    1    1    2  502    0  0.51294822084E+02 -0.39012908628E+03  0.58968951999E+03  0.70891860796E+03  0.00000000000E+00 0. -1.
         22    1    3    3    0    0 -0.36323106382E+02  0.27813962821E+03 -0.30705559718E+02  0.28217698743E+03  0.00000000000E+00 0.  1.
         22    1    3    3    0    0  0.65840962030E+02  0.10978178734E+03 -0.20716980709E+02  0.12967754780E+03  0.00000000000E+00 0.  1.
</event>
<event>
 7    1  0.6597701E-006  0.5719308E+02  0.7818608E-02  0.1524854E+00
          2   -1    0    0  502    0  0.00000000000E+00  0.00000000000E+00  0.53963617896E+03  0.53963617896E+03  0.00000000000E+00 0. -1.
          1   -1    0    0  501    0 -0.00000000000E+00 -0.00000000000E+00 -0.13165102770E+03  0.13165102770E+03  0.00000000000E+00 0. -1.
         25    2    1    2    0    0 -0.46625597449E+01  0.69785383925E+02  0.18319500977E+03  0.23254434807E+03  0.12499889176E+03 0.  0.
          2    1    1    2  501    0 -0.15338334043E+02 -0.54759871037E+02 -0.98901968059E+02  0.11408552605E+03  0.00000000000E+00 0. -1.
          1    1    1    2  502    0  0.20000893788E+02 -0.15025512888E+02  0.32369210955E+03  0.32465733254E+03  0.00000000000E+00 0. -1.
         22    1    3    3    0    0  0.48197315787E+02  0.71128700053E+02  0.14001958079E+03  0.16427950640E+03  0.00000000000E+00 0.  1.
         22    1    3    3    0    0 -0.52859875532E+02 -0.13433161273E+01  0.43175428987E+02  0.68264841666E+02  0.00000000000E+00 0.  1.
</event>
<event>
 7    1  0.6597701E-006  0.4942730E+02  0.7818608E-02  0.1553494E+00
          2   -1    0    0  502    0  0.00000000000E+00  0.00000000000E+00  0.22174169451E+03  0.22174169451E+03  0.00000000000E+00 0. -1.
          1   -1    0    0  501    0 -0.00000000000E+00 -0.00000000000E+00 -0.66573201308E+03  0.66573201308E+03  0.00000000000E+00 0. -1.
         25    2    1    2    0    0  0.14539205562E+02 -0.21476858162E+02  0.15206581828E+03  0.19854770266E+03  0.12499813281E+03 0.  0.
          2    1    1    2  501    0 -0.32542813506E+02  0.37374661490E+02 -0.63835932645E+03  0.64028004006E+03  0.00000000000E+00 0. -1.
          1    1    1    2  502    0  0.18003607944E+02 -0.15897803328E+02  0.42303189599E+02  0.48645964888E+02  0.00000000000E+00 0. -1.
         22    1    3    3    0    0  0.43223071952E+02 -0.61765730451E+02  0.11144191706E+03  0.13454568104E+03  0.00000000000E+00 0. -1.
         22    1    3    3    0    0 -0.28683866389E+02  0.40288872289E+02  0.40623901213E+02  0.64002021617E+02  0.00000000000E+00 0. -1.
</event>
<event>
 7    1  0.6597701E-006  0.1355334E+03  0.7818608E-02  0.1375299E+00
          2   -1    0    0  502    0  0.00000000000E+00  0.00000000000E+00  0.31958436604E+04  0.31958436604E+04  0.00000000000E+00 0. -1.
          1   -1    0    0  501    0 -0.00000000000E+00 -0.00000000000E+00 -0.31647211866E+02  0.31647211866E+02  0.00000000000E+00 0. -1.
         25    2    1    2    0    0  0.10310227213E+03  0.60671677624E+02  0.11090432702E+04  0.11224583307E+04  0.12499839135E+03 0.  0.
          2    1    1    2  501    0 -0.10325487475E+03 -0.92534716496E+02  0.16894760449E+03  0.21855785499E+03  0.00000000000E+00 0. -1.
          1    1    1    2  502    0  0.15260261952E+00  0.31863038872E+02  0.18862055738E+04  0.18864746866E+04  0.00000000000E+00 0. -1.
         22    1    3    3    0    0  0.10257002174E+03  0.35586183869E+02  0.10733589355E+04  0.10788356642E+04  0.00000000000E+00 0.  1.
         22    1    3    3    0    0  0.53225038870E+00  0.25085493755E+02  0.35684334720E+02  0.43622666491E+02  0.00000000000E+00 0.  1.
</event>
<event>
 7    1  0.6597701E-006  0.1400462E+03  0.7818608E-02  0.1333860E+00
          2   -1    0    0  502    0  0.00000000000E+00  0.00000000000E+00  0.38379678357E+03  0.38379678357E+03  0.00000000000E+00 0. -1.
          1   -1    0    0  501    0 -0.00000000000E+00 -0.00000000000E+00 -0.11011954004E+04  0.11011954004E+04  0.00000000000E+00 0. -1.
         25    2    1    2    0    0 -0.23383913325E+02 -0.13751287192E+03 -0.32133956371E+03  0.37193779888E+03  0.12498805416E+03 0.  0.
          2    1    1    2  501    0  0.65526676819E+02  0.12553935777E+03 -0.74653662224E+03  0.75984919824E+03  0.00000000000E+00 0. -1.
          1    1    1    2  502    0 -0.42142763494E+02  0.11973514143E+02  0.35047756913E+03  0.35320518685E+03  0.00000000000E+00 0. -1.
         22    1    3    3    0    0 -0.34083808145E+02 -0.89713887565E+01 -0.16755336428E+03  0.17122009717E+03  0.00000000000E+00 0.  1.
         22    1    3    3    0    0  0.10699894820E+02 -0.12854148316E+03 -0.15378619943E+03  0.20071770170E+03  0.00000000000E+00 0.  1.
</event>
<event>
 7    1  0.6597701E-006  0.8440004E+02  0.7818608E-02  0.1421023E+00
          2   -1    0    0  502    0  0.00000000000E+00  0.00000000000E+00  0.28962573965E+04  0.28962573965E+04  0.00000000000E+00 0. -1.
          1   -1    0    0  501    0 -0.00000000000E+00 -0.00000000000E+00 -0.41895128296E+02  0.41895128296E+02  0.00000000000E+00 0. -1.
         25    2    1    2    0    0 -0.37184635569E+02  0.44753581458E+02  0.38627378520E+03  0.41014555035E+03  0.12500542054E+03 0.  0.
          2    1    1    2  501    0  0.71920183866E+02 -0.52494414105E+02  0.36617769528E+02  0.96275840192E+02  0.00000000000E+00 0. -1.
          1    1    1    2  502    0 -0.34735548297E+02  0.77408326466E+01  0.24314707135E+04  0.24317311343E+04  0.00000000000E+00 0. -1.
         22    1    3    3    0    0 -0.74814289991E+02  0.52564078562E+00  0.27005102923E+03  0.28022314800E+03  0.00000000000E+00 0. -1.
         22    1    3    3    0    0  0.37629654423E+02  0.44227940673E+02  0.11622275597E+03  0.12992240235E+03  0.00000000000E+00 0. -1.
</event>
<event>
 7    1  0.6597701E-006  0.9339117E+02  0.7818608E-02  0.1394043E+00
          2   -1    0    0  502    0  0.00000000000E+00  0.00000000000E+00  0.10723423006E+04  0.10723423006E+04  0.00000000000E+00 0. -1.
          1   -1    0    0  501    0 -0.00000000000E+00 -0.00000000000E+00 -0.24144934453E+03  0.24144934453E+03  0.00000000000E+00 0. -1.
         25    2    1    2    0    0 -0.10769478904E+02 -0.78349281995E+02 -0.14452233555E+03  0.20679778200E+03  0.12499610196E+03 0.  0.
          2    1    1    2  501    0  0.68054559881E+01  0.11787964513E+03 -0.12086780015E+02  0.11869294511E+03  0.00000000000E+00 0. -1.
          1    1    1    2  502    0  0.39640229162E+01 -0.39530363135E+02  0.98750207167E+03  0.98830091806E+03  0.00000000000E+00 0. -1.
         22    1    3    3    0    0  0.28699441745E+02 -0.99039088729E+02 -0.95438562996E+02  0.14050237848E+03  0.00000000000E+00 0.  1.
         22    1    3    3    0    0 -0.39468920649E+02  0.20689806734E+02 -0.49083772551E+02  0.66295403519E+02  0.00000000000E+00 0.  1.
</event>
<event>
 7    1  0.6597701E-006  0.4356825E+02  0.7818608E-02  0.1510235E+00
          2   -1    0    0  502    0  0.00000000000E+00  0.00000000000E+00  0.46853717468E+02  0.46853717468E+02  0.00000000000E+00 0. -1.
          1   -1    0    0  501    0 -0.00000000000E+00 -0.00000000000E+00 -0.20323393489E+04  0.20323393489E+04  0.00000000000E+00 0. -1.
         25    2    1    2    0    0 -0.20510470067E+02  0.59447559322E+02 -0.23640395457E+03  0.27471310962E+03  0.12500308463E+03 0.  0.
          2    1    1    2  501    0  0.31475368598E+02 -0.17928157449E+02 -0.17598377633E+04  0.17602105189E+04  0.00000000000E+00 0. -1.
          1    1    1    2  502    0 -0.10964898532E+02 -0.41519401872E+02  0.10756086457E+02  0.44269437850E+02  0.00000000000E+00 0. -1.
         22    1    3    3    0    0  0.42757811915E+02  0.28667439415E+02 -0.37379352734E+02  0.63618146572E+02  0.00000000000E+00 0.  1.
         22    1    3    3    0    0 -0.63268281982E+02  0.30780119907E+02 -0.19902460184E+03  0.21109496304E+03  0.00000000000E+00 0.  1.
</event>
<event>
 7    1  0.6597701E-006  0.2304157E+03  0.7818608E-02  0.1287305E+00
          2   -1    0    0  502    0  0.00000000000E+00  0.00000000000E+00  0.16506439759E+03  0.16506439759E+03  0.00000000000E+00 0. -1.
          1   -1    0    0  501    0 -0.00000000000E+00 -0.00000000000E+00 -0.10133528203E+04  0.10133528203E+04  0.00000000000E+00 0. -1.
         25    2    1    2    0    0 -0.20368045325E+03 -0.13357438901E+03 -0.52382037357E+03  0.59105035475E+03  0.12499957456E+03 0.  0.
          2    1    1    2  501    0  0.35004057386E+02 -0.20600836678E+02 -0.35455517287E+03  0.35687399613E+03  0.00000000000E+00 0. -1.
          1    1    1    2  502    0  0.16867639587E+03  0.15417522569E+03  0.30087123719E+02  0.23049286703E+03  0.00000000000E+00 0. -1.
         22    1    3    3    0    0 -0.49317632655E+02  0.55138660945E+01 -0.37495775715E+02  0.62197787794E+02  0.00000000000E+00 0. -1.
         22    1    3    3    0    0 -0.15436282060E+03 -0.13908825511E+03 -0.48632459786E+03  0.52885256695E+03  0.00000000000E+00 0. -1.
</event>
<event>
 7    1  0.6597701E-006  0.3478983E+02  0.7818608E-02  0.1581433E+00
          2   -1    0    0  502    0  0.00000000000E+00  0.00000000000E+00  0.23683285958E+03  0.23683285958E+03  0.00000000000E+00 0. -1.
          1   -1    0    0  501    0 -0.00000000000E+00 -0.00000000000E+00 -0.29655147638E+03  0.29655147638E+03  0.00000000000E+00 0. -1.
         25    2    1    2    0    0 -0.33560616964E+02  0.47558890032E+02 -0.62320343657E+02  0.15131636407E+03  0.12499861508E+03 0.  0.
          2    1    1    2  501    0  0.24885294110E+02 -0.14165501309E+02 -0.18708771531E+03  0.18926635335E+03  0.00000000000E+00 0. -1.
          1    1    1    2  502    0  0.86753228535E+01 -0.33393388723E+02  0.18968944217E+03  0.19280161853E+03  0.00000000000E+00 0. -1.
         22    1    3    3    0    0 -0.42924808316E+02  0.85978645867E+02 -0.56131111463E+02  0.11129046854E+03  0.00000000000E+00 0. -1.
         22    1    3    3    0    0  0.93641913527E+01 -0.38419755835E+02 -0.61892321940E+01  0.40025895533E+02  0.00000000000E+00 0. -1.
</event>
<event>
 7    1  0.6597701E-006  0.1062675E+03  0.7818608E-02  0.1439006E+00
          2   -1    0    0  502    0  0.00000000000E+00  0.00000000000E+00  0.28589357640E+03  0.28589357640E+03  0.00000000000E+00 0. -1.
          1   -1    0    0  501    0 -0.00000000000E+00 -0.00000000000E+00 -0.72950310829E+03  0.72950310829E+03  0.00000000000E+00 0. -1.
         25    2    1    2    0    0 -0.17739648222E+02 -0.98867821940E+02 -0.92243184310E+02  0.18499682341E+03  0.12500191312E+03 0.  0.
          2    1    1    2  501    0  0.23340571112E+02 -0.79662489200E+01 -0.57866151639E+03  0.57918683853E+03  0.00000000000E+00 0. -1.
          1    1    1    2  502    0 -0.56009228896E+01  0.10683407086E+03  0.22729516881E+03  0.25121302275E+03  0.00000000000E+00 0. -1.
         22    1    3    3    0    0  0.29248247971E+02  0.17836711107E+02 -0.15254008957E+02  0.37500574152E+02  0.00000000000E+00 0.  1.
         22    1    3    3    0    0 -0.46987896193E+02 -0.11670453305E+03 -0.76989175353E+02  0.14749624925E+03  0.00000000000E+00 0.  1.
</event>
<event>
 7    1  0.7260305E-006  0.7494261E+02  0.7818608E-02  0.1347342E+00
          2   -1    0    0  502    0  0.00000000000E+00  0.00000000000E+00  0.17268529227E+04  0.17268529227E+04  0.00000000000E+00 0. -1.
          1   -1    0    0  501    0 -0.00000000000E+00 -0.00000000000E+00 -0.19599584643E+04  0.19599584643E+04  0.00000000000E+00 0. -1.
         25    2    1    2    0    0 -0.15482054884E+02 -0.21791600692E+02 -0.71201812535E+02  0.14631973440E+03  0.12500079472E+03 0.  0.
          2    1    1    2  501    0 -0.55639478050E+02  0.47029614345E+02 -0.18496373940E+04  0.18510715884E+04  0.00000000000E+00 0. -1.
          1    1    1    2  502    0  0.71121532934E+02 -0.25238013653E+02  0.16877336649E+04  0.16894200642E+04  0.00000000000E+00 0. -1.
         22    1    3    3    0    0  0.11625665337E+02  0.48169688043E+02 -0.12634463926E+02  0.51138093623E+02  0.00000000000E+00 0.  1.
         22    1    3    3    0    0 -0.27107720221E+02 -0.69961288735E+02 -0.58567348609E+02  0.95181640773E+02  0.00000000000E+00 0.  1.
</event>
<event>
 7    1  0.6597701E-006  0.1145915E+03  0.7818608E-02  0.1432537E+00
          2   -1    0    0  502    0  0.00000000000E+00  0.00000000000E+00  0.77927948870E+03  0.77927948870E+03  0.00000000000E+00 0. -1.
          1   -1    0    0  501    0 -0.00000000000E+00 -0.00000000000E+00 -0.74832882597E+02  0.74832882597E+02  0.00000000000E+00 0. -1.
         25    2    1    2    0    0 -0.73382983405E+01 -0.13543391306E+03  0.39346611297E+03  0.43455339316E+03  0.12499949609E+03 0.  0.
          2    1    1    2  501    0  0.49984035583E+01  0.11153743698E+03  0.40833743721E+01  0.11172402531E+03  0.00000000000E+00 0. -1.
          1    1    1    2  502    0  0.23398947822E+01  0.23896476077E+02  0.30689711877E+03  0.30783495283E+03  0.00000000000E+00 0. -1.
         22    1    3    3    0    0 -0.36524475642E+02 -0.71900297016E+02  0.33137116241E+03  0.34104330708E+03  0.00000000000E+00 0. -1.
         22    1    3    3    0    0  0.29186177301E+02 -0.63533616040E+02  0.62094950563E+02  0.93510086076E+02  0.00000000000E+00 0. -1.
</event>
<event>
 7    1  0.6597701E-006  0.1717381E+03  0.7818608E-02  0.1197168E+00
          2   -1    0    0  502    0  0.00000000000E+00  0.00000000000E+00  0.50863940370E+03  0.50863940370E+03  0.00000000000E+00 0. -1.
          1   -1    0    0  501    0 -0.00000000000E+00 -0.00000000000E+00 -0.70643036725E+03  0.70643036725E+03  0.00000000000E+00 0. -1.
         25    2    1    2    0    0 -0.22521455043E+03 -0.72455281399E+02  0.16050202504E+02  0.26805576170E+03  0.12499968341E+03 0.  0.
          2    1    1    2  501    0  0.10393633567E+03  0.13358054085E+03 -0.55477853509E+03  0.58002219420E+03  0.00000000000E+00 0. -1.
          1    1    1    2  502    0  0.12127821476E+03 -0.61125259453E+02  0.34093736903E+03  0.36699181506E+03  0.00000000000E+00 0. -1.
         22    1    3    3    0    0 -0.10718808394E+03 -0.30943924613E+02  0.70106265572E+02  0.13176380490E+03  0.00000000000E+00 0.  1.
         22    1    3    3    0    0 -0.11802646649E+03 -0.41511356786E+02 -0.54056063069E+02  0.13629195680E+03  0.00000000000E+00 0.  1.
</event>
<event>
 7    1  0.6597701E-006  0.5130664E+02  0.7818608E-02  0.1464048E+00
          2   -1    0    0  502    0  0.00000000000E+00  0.00000000000E+00  0.41640556971E+03  0.41640556971E+03  0.00000000000E+00 0. -1.
          1   -1    0    0  501    0 -0.00000000000E+00 -0.00000000000E+00 -0.14883321814E+03  0.14883321814E+03  0.00000000000E+00 0. -1.
         25    2    1    2    0    0  0.26613206777E+02  0.18767083698E+02 -0.27667862964E+02  0.13210324430E+03  0.12500116122E+03 0.  0.
          2    1    1    2  501    0 -0.56809419958E+02  0.11128768757E+02 -0.55283079705E+02  0.80046102914E+02  0.00000000000E+00 0. -1.
          1    1    1    2  502    0  0.30196213181E+02 -0.29895852454E+02  0.35052329424E+03  0.35308944063E+03  0.00000000000E+00 0. -1.
         22    1    3    3    0    0 -0.10964245646E+01 -0.49847562079E+02 -0.29777105225E+02  0.58074586418E+02  0.00000000000E+00 0.  1.
         22    1    3    3    0    0  0.27709631341E+02  0.68614645777E+02  0.21092422603E+01  0.74028657877E+02  0.00000000000E+00 0.  1.
</event>
<event>
 7    1  0.6597701E-006  0.1239160E+03  0.7818608E-02  0.1272236E+00
          2   -1    0    0  502    0  0.00000000000E+00  0.00000000000E+00  0.21914869521E+02  0.21914869521E+02  0.00000000000E+00 0. -1.
          1   -1    0    0  501    0 -0.00000000000E+00 -0.00000000000E+00 -0.20359145226E+04  0.20359145226E+04  0.00000000000E+00 0. -1.
         25    2    1    2    0    0  0.20019315913E+02  0.79326250796E+02 -0.63775286494E+03  0.65501673964E+03  0.12499914155E+03 0.  0.
          2    1    1    2  501    0  0.45810469032E+02  0.74165408710E+02 -0.73586926817E+03  0.74101463329E+03  0.00000000000E+00 0. -1.
          1    1    1    2  502    0 -0.65829784944E+02 -0.15349165951E+03 -0.64037752002E+03  0.66179801924E+03  0.00000000000E+00 0. -1.
         22    1    3    3    0    0  0.37253683901E+02  0.41410738053E+02 -0.58574581562E+03  0.58838834685E+03  0.00000000000E+00 0. -1.
         22    1    3    3    0    0 -0.17234367989E+02  0.37915512742E+02 -0.52007049322E+02  0.66628392789E+02  0.00000000000E+00 0. -1.
</event>
<event>
 7    1  0.6597701E-006  0.1259750E+03  0.7818608E-02  0.1405709E+00
          2   -1    0    0  502    0  0.00000000000E+00  0.00000000000E+00  0.14771892791E+03  0.14771892791E+03  0.00000000000E+00 0. -1.
          1   -1    0    0  501    0 -0.00000000000E+00 -0.00000000000E+00 -0.98522434452E+03  0.98522434452E+03  0.00000000000E+00 0. -1.
         25    2    1    2    0    0  0.32137691987E+02 -0.14698337407E+03 -0.31550674804E+03  0.37122226179E+03  0.12499806434E+03 0.  0.
          2    1    1    2  501    0 -0.37373830474E+01  0.26592034657E+02 -0.60957206320E+03  0.61016326059E+03  0.00000000000E+00 0. -1.
          1    1    1    2  502    0 -0.28400308940E+02  0.12039133942E+03  0.87573394634E+02  0.15155775006E+03  0.00000000000E+00 0. -1.
         22    1    3    3    0    0  0.55550206186E+02 -0.15326014198E+03 -0.30270693116E+03  0.34381096943E+03  0.00000000000E+00 0. -1.
         22    1    3    3    0    0 -0.23412514199E+02  0.62767679116E+01 -0.12799816879E+02  0.27411292357E+02  0.00000000000E+00 0. -1.
</event>
<event>
 7    1  0.6597701E-006  0.9486420E+02  0.7818608E-02  0.1413178E+00
          2   -1    0    0  502    0  0.00000000000E+00  0.00000000000E+00  0.70457469203E+02  0.70457469203E+02  0.00000000000E+00 0. -1.
          1   -1    0    0  501    0 -0.00000000000E+00 -0.00000000000E+00 -0.18394376542E+04  0.18394376542E+04  0.00000000000E+00 0. -1.
         25    2    1    2    0    0  0.39066517342E+02  0.11280336389E+03 -0.20241071768E+03  0.26616979983E+03  0.12500188809E+03 0.  0.
          2    1    1    2  501    0  0.27493799106E+01 -0.33526973381E+02 -0.15526591820E+04  0.15530235519E+04  0.00000000000E+00 0. -1.
          1    1    1    2  502    0 -0.41815897253E+02 -0.79276390513E+02 -0.13910285269E+02  0.90701771714E+02  0.00000000000E+00 0. -1.
         22    1    3    3    0    0  0.11118807041E+02  0.12757804049E+03 -0.11108622295E+03  0.16952856165E+03  0.00000000000E+00 0. -1.
         22    1    3    3    0    0  0.27947710301E+02 -0.14774676596E+02 -0.91324494726E+02  0.96641238177E+02  0.00000000000E+00 0. -1.
</event>
<event>
 7    1  0.6597701E-006  0.7281925E+02  0.7818608E-02  0.1366762E+00
          2   -1    0    0  502    0  0.00000000000E+00  0.00000000000E+00  0.18867261713E+03  0.18867261713E+03  0.00000000000E+00 0. -1.
          1   -1    0    0  501    0 -0.00000000000E+00 -0.00000000000E+00 -0.21674148385E+04  0.21674148385E+04  0.00000000000E+00 0. -1.
         25    2    1    2    0    0  0.13047905924E+03  0.50215343705E+01  0.46623348624E+02  0.18667697118E+03  0.12499821688E+03 0.  0.
          2    1    1    2  501    0 -0.70613298364E+02  0.16571914320E+02 -0.20825735945E+04  0.20838362802E+04  0.00000000000E+00 0. -1.
          1    1    1    2  502    0 -0.59865760874E+02 -0.21593448691E+02  0.57208024549E+02  0.85574204198E+02  0.00000000000E+00 0. -1.
         22    1    3    3    0    0  0.72481088632E+02 -0.23694860294E+02  0.82775154859E+02  0.11254634990E+03  0.00000000000E+00 0.  1.
         22    1    3    3    0    0  0.57997970606E+02  0.28716394664E+02 -0.36151806235E+02  0.74130621277E+02  0.00000000000E+00 0.  1.
</event>
<event>
 7    1  0.6597701E-006  0.5370316E+02  0.7818608E-02  0.1473783E+00
          2   -1    0    0  502    0  0.00000000000E+00  0.00000000000E+00  0.20184162325E+03  0.20184162325E+03  0.00000000000E+00 0. -1.
          1   -1    0    0  501    0 -0.00000000000E+00 -0.00000000000E+00 -0.97486211773E+03  0.97486211773E+03  0.00000000000E+00 0. -1.
         25    2    1    2    0    0  0.41003703982E+02 -0.75893290475E+02 -0.85256871130E+01  0.15211406023E+03  0.12499961880E+03 0.  0.
          2    1    1    2  501    0 -0.37259087332E+02  0.38221212768E+02 -0.89097133416E+03  0.89256877550E+03  0.00000000000E+00 0. -1.
          1    1    1    2  502    0 -0.37446166500E+01  0.37672077707E+02  0.12647652679E+03  0.13202090525E+03  0.00000000000E+00 0. -1.
         22    1    3    3    0    0  0.11422093142E+02 -0.83882025703E+02  0.40855203002E+02  0.93998968399E+02  0.00000000000E+00 0. -1.
         22    1    3    3    0    0  0.29581610840E+02  0.79887352286E+01 -0.49380890115E+02  0.58115091835E+02  0.00000000000E+00 0. -1.
</event>
<event>
 7    1  0.6597701E-006  0.7528634E+02  0.7818608E-02  0.1389797E+00
          2   -1    0    0  502    0  0.00000000000E+00  0.00000000000E+00  0.78067614179E+03  0.78067614179E+03  0.00000000000E+00 0. -1.
          1   -1    0    0  501    0 -0.00000000000E+00 -0.00000000000E+00 -0.25743543068E+04  0.25743543068E+04  0.00000000000E+00 0. -1.
         25    2    1    2    0    0 -0.89698130511E+02  0.12087881385E+02 -0.12578183410E+03  0.19908259490E+03  0.12498375218E+03 0.  0.
          2    1    1    2  501    0  0.55985984065E+02 -0.50340464676E+02 -0.24104600809E+04  0.24116356264E+04  0.00000000000E+00 0. -1.
          1    1    1    2  502    0  0.33712146446E+02  0.38252583291E+02  0.74256374998E+03  0.74431222732E+03  0.00000000000E+00 0. -1.
         22    1    3    3    0    0  0.12777683712E+02 -0.13216055489E+02  0.14578468306E+02  0.23461991857E+02  0.00000000000E+00 0. -1.
         22    1    3    3    0    0 -0.10247581422E+03  0.25303936874E+02 -0.14036030241E+03  0.17562060304E+03  0.00000000000E+00 0. -1.
</event>
<event>
 7    1  0.6597701E-006  0.3986862E+02  0.7818608E-02  0.1575683E+00
          2   -1    0    0  502    0  0.00000000000E+00  0.00000000000E+00  0.12669072854E+04  0.12669072854E+04  0.00000000000E+00 0. -1.
          1   -1    0    0  501    0 -0.00000000000E+00 -0.00000000000E+00 -0.10235476510E+04  0.10235476510E+04  0.00000000000E+00 0. -1.
         25    2    1    2    0    0  0.43977429762E+01 -0.13484411717E+02  0.35398460921E+02  0.13068272487E+03  0.12499501607E+03 0.  0.
          2    1    1    2  501    0  0.62433715688E+01 -0.25127500214E+02 -0.97539493531E+03  0.97573851558E+03  0.00000000000E+00 0. -1.
          1    1    1    2  502    0 -0.10641114545E+02  0.38611911930E+02  0.11833561088E+04  0.11840336960E+04  0.00000000000E+00 0. -1.
         22    1    3    3    0    0 -0.52419077892E+02  0.64874253003E+01  0.45380301716E+02  0.69636328148E+02  0.00000000000E+00 0. -1.
         22    1    3    3    0    0  0.56816820869E+02 -0.19971837017E+02 -0.99818407948E+01  0.61046396725E+02  0.00000000000E+00 0. -1.
</event>
<event>
 7    1  0.6597701E-006  0.1109365E+03  0.7818608E-02  0.1456934E+00
          2   -1    0    0  502    0  0.00000000000E+00  0.00000000000E+00  0.27066019146E+02  0.27066019146E+02  0.00000000000E+00 0. -1.
          1   -1    0    0  501    0 -0.00000000000E+00 -0.00000000000E+00 -0.23988854888E+04  0.23988854888E+04  0.00000000000E+00 0. -1.
         25    2    1    2    0    0 -0.10961474138E+03 -0.69579850539E+01 -0.12746303996E+04  0.12854460934E+04  0.12500079277E+03 0.  0.
          2    1    1    2  501    0  0.18313288570E+01 -0.20612245570E+02 -0.97513769840E+03  0.97535724187E+03  0.00000000000E+00 0. -1.
          1    1    1    2  502    0  0.10778341252E+03  0.27570230624E+02 -0.12205137159E+03  0.16514817268E+03  0.00000000000E+00 0. -1.
         22    1    3    3    0    0 -0.31637939579E+02  0.41451556837E+02 -0.19273752204E+03  0.19966708088E+03  0.00000000000E+00 0. -1.
         22    1    3    3    0    0 -0.77976801803E+02 -0.48409541890E+02 -0.10818928776E+04  0.10857790125E+04  0.00000000000E+00 0. -1.
</event>
<event>
 7    1  0.6597701E-006  0.3370187E+02  0.7818608E-02  0.1572760E+00
          2   -1    0    0  502    0  0.00000000000E+00  0.00000000000E+00  0.18180450218E+04  0.18180450218E+04  0.00000000000E+00 0. -1.
          1   -1    0    0  501    0 -0.00000000000E+00 -0.00000000000E+00 -0.24088814671E+02  0.24088814671E+02  0.00000000000E+00 0. -1.
         25    2    1    2    0    0  0.18246038558E+02  0.78388763566E+00  0.21166777138E+03  0.24650053026E+03  0.12500293426E+03 0.  0.
          2    1    1    2  501    0 -0.28240368640E+01 -0.31063135351E+02  0.31011218154E+02  0.43983965413E+02  0.00000000000E+00 0. -1.
          1    1    1    2  502    0 -0.15422001694E+02  0.30279247715E+02  0.15512772176E+04  0.15516493408E+04  0.00000000000E+00 0. -1.
         22    1    3    3    0    0  0.68903310997E+02 -0.13513913207E+02  0.91715750652E+02  0.11550788300E+03  0.00000000000E+00 0.  1.
         22    1    3    3    0    0 -0.50657272439E+02  0.14297800842E+02  0.11995202073E+03  0.13099264726E+03  0.00000000000E+00 0.  1.
</event>
<event>
 7    1  0.6597701E-006  0.1376769E+03  0.7818608E-02  0.1304962E+00
          2   -1    0    0  502    0  0.00000000000E+00  0.00000000000E+00  0.14346191612E+04  0.14346191612E+04  0.00000000000E+00 0. -1.
          1   -1    0    0  501    0 -0.00000000000E+00 -0.00000000000E+00 -0.43789225737E+03  0.43789225737E+03  0.00000000000E+00 0. -1.
         25    2    1    2    0    0  0.23883584281E+02 -0.83108280711E+02 -0.45408533497E+02  0.15863244408E+03  0.12499962192E+03 0.  0.
          2    1    1    2  501    0  0.41421177882E+02 -0.40179315640E+02 -0.32982897425E+03  0.33483913098E+03  0.00000000000E+00 0. -1.
          1    1    1    2  502    0 -0.65304762164E+02  0.12328759635E+03  0.13719644116E+04  0.13790398435E+04  0.00000000000E+00 0. -1.
         22    1    3    3    0    0  0.32680663482E+02 -0.10554521159E+03 -0.38071139958E+01  0.11055456378E+03  0.00000000000E+00 0. -1.
         22    1    3    3    0    0 -0.87970792004E+01  0.22436930880E+02 -0.41601419501E+02  0.48077880301E+02  0.00000000000E+00 0. -1.
</event>
<event>
 7    1  0.6597701E-006  0.7420252E+02  0.7818608E-02  0.1364788E+00
          2   -1    0    0  502    0  0.00000000000E+00  0.00000000000E+00  0.25373490493E+03  0.25373490493E+03  0.00000000000E+00 0. -1.
          1   -1    0    0  501    0 -0.00000000000E+00 -0.00000000000E+00 -0.12650237633E+04  0.12650237633E+04  0.00000000000E+00 0. -1.
         25    2    1    2    0    0  0.67300439785E+02  0.51137034337E+02 -0.19437857657E+03  0.24607355695E+03  0.12499927571E+03 0.  0.
          2    1    1    2  501    0 -0.82703519992E+01 -0.74512966348E+02 -0.10389985597E+04  0.10416998550E+04  0.00000000000E+00 0. -1.
          1    1    1    2  502    0 -0.59030087786E+02  0.23375932010E+02  0.22208827786E+03  0.23098525629E+03  0.00000000000E+00 0. -1.
         22    1    3    3    0    0  0.52950096658E+02  0.91840649486E+02 -0.12034929283E+03  0.16038195010E+03  0.00000000000E+00 0. -1.
         22    1    3    3    0    0  0.14350343127E+02 -0.40703615148E+02 -0.74029283735E+02  0.85691606849E+02  0.00000000000E+00 0. -1.
</event>
<event>
 7    1  0.6597701E-006  0.9379320E+02  0.7818608E-02  0.1319608E+00
          2   -1    0    0  502    0  0.00000000000E+00  0.00000000000E+00  0.31213078714E+03  0.31213078714E+03  0.00000000000E+00 0. -1.
          1   -1    0    0  501    0 -0.00000000000E+00 -0.00000000000E+00 -0.14240708301E+04  0.14240708301E+04  0.00000000000E+00 0. -1.
         25    2    1    2    0    0 -0.14969848456E+02  0.93346783985E+02 -0.70655878204E+02  0.17191131380E+03  0.12499411284E+03 0.  0.
          2    1    1    2  501    0 -0.63443166688E+02 -0.38478677019E+02 -0.12929315642E+04  0.12950589460E+04  0.00000000000E+00 0. -1.
          1    1    1    2  502    0  0.78413015144E+02 -0.54868106966E+02  0.25164739951E+03  0.26923135736E+03  0.00000000000E+00 0. -1.
         22    1    3    3    0    0  0.36467382541E+02  0.17232928085E+02  0.18068489947E+02  0.44196313520E+02  0.00000000000E+00 0.  1.
         22    1    3    3    0    0 -0.51437230997E+02  0.76113855900E+02 -0.88724368151E+02  0.12771500028E+03  0.00000000000E+00 0.  1.
</event>
<event>
 7    1  0.6597701E-006  0.7580968E+02  0.7818608E-02  0.1381431E+00
          2   -1    0    0  502    0  0.00000000000E+00  0.00000000000E+00  0.12476845169E+04  0.12476845169E+04  0.00000000000E+00 0. -1.
          1   -1    0    0  501    0 -0.00000000000E+00 -0.00000000000E+00 -0.23261310501E+04  0.23261310501E+04  0.00000000000E+00 0. -1.
         25    2    1    2    0    0  0.68506067672E+01 -0.27586810901E+02 -0.73672657478E+02  0.14785361744E+03  0.12500027513E+03 0.  0.
          2    1    1    2  501    0  0.47499131801E+02 -0.26065062150E+02 -0.22138316772E+04  0.22144945812E+04  0.00000000000E+00 0. -1.
          1    1    1    2  502    0 -0.54349738568E+02  0.53651873051E+02  0.12090578015E+04  0.12114673685E+04  0.00000000000E+00 0. -1.
         22    1    3    3    0    0  0.11389438037E+02  0.36084906882E+02  0.13177453809E+02  0.40068504993E+02  0.00000000000E+00 0. -1.
         22    1    3    3    0    0 -0.45388312696E+01 -0.63671717783E+02 -0.86850111287E+02  0.10778511245E+03  0.00000000000E+00 0. -1.
</event>
<event>
 7    1  0.6597701E-006  0.7221350E+02  0.7818608E-02  0.1484458E+00
          2   -1    0    0  502    0  0.00000000000E+00  0.00000000000E+00  0.20602892730E+04  0.20602892730E+04  0.00000000000E+00 0. -1.
          1   -1    0    0  501    0 -0.00000000000E+00 -0.00000000000E+00 -0.50079466475E+02  0.50079466475E+02  0.00000000000E+00 0. -1.
         25    2    1    2    0    0 -0.43100547810E+02  0.39070638277E+02  0.68630899044E+03  0.70002116405E+03  0.12500171103E+03 0.  0.
          2    1    1    2  501    0  0.55918761559E+01  0.25500553435E+02 -0.38163097098E+02  0.46238179944E+02  0.00000000000E+00 0. -1.
          1    1    1    2  502    0  0.37508671654E+02 -0.64571191713E+02  0.13620639132E+04  0.13641093955E+04  0.00000000000E+00 0. -1.
         22    1    3    3    0    0  0.15563595074E+02  0.62095824415E+02  0.20941668856E+03  0.21898279921E+03  0.00000000000E+00 0. -1.
         22    1    3    3    0    0 -0.58664142884E+02 -0.23025186138E+02  0.47689230188E+03  0.48103836484E+03  0.00000000000E+00 0. -1.
</event>
<event>
 7    1  0.6597701E-006  0.1554244E+03  0.7818608E-02  0.1207516E+00
          2   -1    0    0  502    0  0.00000000000E+00  0.00000000000E+00  0.83644077685E+03  0.83644077685E+03  0.00000000000E+00 0. -1.
          1   -1    0    0  501    0 -0.00000000000E+00 -0.00000000000E+00 -0.19925649367E+04  0.19925649367E+04  0.00000000000E+00 0. -1.
         25    2    1    2    0    0  0.87562258141E+02 -0.42437775504E+02  0.14275939363E+03  0.21324876632E+03  0.12500671193E+03 0.  0.
          2    1    1    2  501    0  0.28314689112E+02  0.15282347212E+03 -0.19444485936E+04  0.19506504219E+04  0.00000000000E+00 0. -1.
          1    1    1    2  502    0 -0.11587694725E+03 -0.11038569662E+03  0.64556504016E+03  0.66510652530E+03  0.00000000000E+00 0. -1.
         22    1    3    3    0    0 -0.23498868757E+02 -0.99251641360E+01  0.74838473298E+02  0.79066445485E+02  0.00000000000E+00 0. -1.
         22    1    3    3    0    0  0.11106112690E+03 -0.32512611368E+02  0.67920920332E+02  0.13418232083E+03  0.00000000000E+00 0. -1.
</event>
<event>
 7    1  0.6597701E-006  0.1768236E+03  0.7818608E-02  0.1287137E+00
          2   -1    0    0  502    0  0.00000000000E+00  0.00000000000E+00  0.16769331051E+04  0.16769331051E+04  0.00000000000E+00 0. -1.
          1   -1    0    0  501    0 -0.00000000000E+00 -0.00000000000E+00 -0.42808979539E+03  0.42808979539E+03  0.00000000000E+00 0. -1.
         25    2    1    2    0    0  0.11165232315E+03 -0.15097909416E+03  0.46544306334E+03  0.51722583758E+03  0.12499757483E+03 0.  0.
          2    1    1    2  501    0 -0.14081304405E+03  0.10671082077E+03 -0.38216384020E+03  0.42102816224E+03  0.00000000000E+00 0. -1.
          1    1    1    2  502    0  0.29160720897E+02  0.44268273384E+02  0.11655640866E+04  0.11667689007E+04  0.00000000000E+00 0. -1.
         22    1    3    3    0    0  0.89452163538E+02 -0.51949888668E+02  0.12647058652E+03  0.16338693261E+03  0.00000000000E+00 0. -1.
         22    1    3    3    0    0  0.22200159612E+02 -0.99029205488E+02  0.33897247682E+03  0.35383890497E+03  0.00000000000E+00 0. -1.
</event>
<event>
 7    1  0.6597701E-006  0.6702073E+02  0.7818608E-02  0.1443190E+00
          2   -1    0    0  502    0  0.00000000000E+00  0.00000000000E+00  0.68644814843E+03  0.68644814843E+03  0.00000000000E+00 0. -1.
          1   -1    0    0  501    0 -0.00000000000E+00 -0.00000000000E+00 -0.21799253605E+03  0.21799253605E+03  0.00000000000E+00 0. -1.
         25    2    1    2    0    0  0.79303889895E+02 -0.82877660760E+01  0.32868294910E+03  0.36057597759E+03  0.12499904228E+03 0.  0.
          2    1    1    2  501    0 -0.18196216254E+02  0.33249301612E+02 -0.19703606819E+03  0.20064852482E+03  0.00000000000E+00 0. -1.
          1    1    1    2  502    0 -0.61107673640E+02 -0.24961535536E+02  0.33680873148E+03  0.34321618207E+03  0.00000000000E+00 0. -1.
         22    1    3    3    0    0  0.35775892630E+02 -0.61023311095E+02  0.22913580122E+03  0.23980611833E+03  0.00000000000E+00 0. -1.
         22    1    3    3    0    0  0.43527997265E+02  0.52735545019E+02  0.99547147877E+02  0.12076985926E+03  0.00000000000E+00 0. -1.
</event>
<event>
 7    1  0.6597701E-006  0.1056974E+03  0.7818608E-02  0.1282640E+00
          2   -1    0    0  502    0  0.00000000000E+00  0.00000000000E+00  0.52197102308E+03  0.52197102308E+03  0.00000000000E+00 0. -1.
          1   -1    0    0  501    0 -0.00000000000E+00 -0.00000000000E+00 -0.17075959232E+03  0.17075959232E+03  0.00000000000E+00 0. -1.
         25    2    1    2    0    0  0.10793855282E+02  0.27803388894E+00  0.36721996142E+02  0.13072933150E+03  0.12500027399E+03 0.  0.
          2    1    1    2  501    0 -0.80288216696E+01  0.10539202131E+03 -0.93145900369E+02  0.14088328108E+03  0.00000000000E+00 0. -1.
          1    1    1    2  502    0 -0.27650336124E+01 -0.10567005520E+03  0.40763533498E+03  0.42111800283E+03  0.00000000000E+00 0. -1.
         22    1    3    3    0    0  0.12739913529E+02  0.21555429510E+02 -0.42143634478E+02  0.49020688134E+02  0.00000000000E+00 0.  1.
         22    1    3    3    0    0 -0.19460582466E+01 -0.21277395621E+02  0.78865630620E+02  0.81708643363E+02  0.00000000000E+00 0.  1.
</event>
<event>
 7    1  0.6597701E-006  0.2516096E+03  0.7818608E-02  0.1341609E+00
          2   -1    0    0  502    0  0.00000000000E+00  0.00000000000E+00  0.90121228564E+03  0.90121228564E+03  0.00000000000E+00 0. -1.
          1   -1    0    0  501    0 -0.00000000000E+00 -0.00000000000E+00 -0.24236058620E+03  0.24236058620E+03  0.00000000000E+00 0. -1.
         25    2    1    2    0    0 -0.10244419236E+03  0.21931213368E+03  0.17064477810E+02  0.27296118183E+03  0.12499594335E+03 0.  0.
          2    1    1    2  501    0  0.13946316282E+02  0.18032907200E+02 -0.91765602293E+02  0.94554805505E+02  0.00000000000E+00 0. -1.
          1    1    1    2  502    0  0.88497876078E+02 -0.23734504088E+03  0.73355282392E+03  0.77605688451E+03  0.00000000000E+00 0. -1.
         22    1    3    3    0    0 -0.78759583247E+00  0.14118755094E+03 -0.11336976822E+02  0.14164417352E+03  0.00000000000E+00 0.  1.
         22    1    3    3    0    0 -0.10165659653E+03  0.78124582739E+02  0.28401454632E+02  0.13131700831E+03  0.00000000000E+00 0.  1.
</event>
<event>
 7    1  0.6597701E-006  0.1368477E+03  0.7818608E-02  0.1260490E+00
          2   -1    0    0  502    0  0.00000000000E+00  0.00000000000E+00  0.38398833734E+03  0.38398833734E+03  0.00000000000E+00 0. -1.
          1   -1    0    0  501    0 -0.00000000000E+00 -0.00000000000E+00 -0.31265015402E+03  0.31265015402E+03  0.00000000000E+00 0. -1.
         25    2    1    2    0    0 -0.39251519490E+02  0.71756124645E+02  0.22462803930E+03  0.26976388324E+03  0.12500069383E+03 0.  0.
          2    1    1    2  501    0 -0.15656495197E+02 -0.14114929924E+03 -0.25511063123E+03  0.29197548644E+03  0.00000000000E+00 0. -1.
          1    1    1    2  502    0  0.54908014686E+02  0.69393174590E+02  0.10182077525E+03  0.13489912167E+03  0.00000000000E+00 0. -1.
         22    1    3    3    0    0  0.41463158033E+02  0.51312750145E+02  0.93386242642E+02  0.11433801693E+03  0.00000000000E+00 0.  1.
         22    1    3    3    0    0 -0.80714677523E+02  0.20443374500E+02  0.13124179665E+03  0.15542586631E+03  0.00000000000E+00 0.  1.
</event>
<event>
 7    1  0.6597701E-006  0.9936170E+02  0.7818608E-02  0.1421809E+00
          2   -1    0    0  502    0  0.00000000000E+00  0.00000000000E+00  0.19199529359E+04  0.19199529359E+04  0.00000000000E+00 0. -1.
          1   -1    0    0  501    0 -0.00000000000E+00 -0.00000000000E+00 -0.20672185177E+02  0.20672185177E+02  0.00000000000E+00 0. -1.
         25    2    1    2    0    0  0.80438466481E+02 -0.39629356899E+02  0.62423066477E+03  0.64290841308E+03  0.12500588767E+03 0.  0.
          2    1    1    2  501    0 -0.52596118848E+01 -0.29583130050E+02  0.15097047971E+02  0.33626566256E+02  0.00000000000E+00 0. -1.
          1    1    1    2  502    0 -0.75178854596E+02  0.69212486948E+02  0.12599530380E+04  0.12640901418E+04  0.00000000000E+00 0. -1.
         22    1    3    3    0    0  0.48035162426E+02  0.42728818122E+02  0.30033386817E+03  0.30713769078E+03  0.00000000000E+00 0. -1.
         22    1    3    3    0    0  0.32403304055E+02 -0.82358175021E+02  0.32389679660E+03  0.33577072230E+03  0.00000000000E+00 0. -1.
</event>
<event>
 7    1  0.6597701E-006  0.3252484E+02  0.7818608E-02  0.1578193E+00
          2   -1    0    0  502    0  0.00000000000E+00  0.00000000000E+00  0.37079104568E+02  0.37079104568E+02  0.00000000000E+00 0. -1.
          1   -1    0    0  501    0 -0.00000000000E+00 -0.00000000000E+00 -0.56747921400E+03  0.56747921400E+03  0.00000000000E+00 0. -1.
         25    2    1    2    0    0 -0.60931187451E+02 -0.15182784037E+02 -0.16666533509E+03  0.21758882392E+03  0.12499774333E+03 0.  0.
          2    1    1    2  501    0  0.31178097123E+02  0.56346334778E+01 -0.35225944191E+03  0.35368140643E+03  0.00000000000E+00 0. -1.
          1    1    1    2  502    0  0.29753090328E+02  0.95481505596E+01 -0.11475332429E+02  0.33288088222E+02  0.00000000000E+00 0. -1.
         22    1    3    3    0    0 -0.23177179208E+02  0.48322741409E+02 -0.11664528024E+03  0.12836818288E+03  0.00000000000E+00 0. -1.
         22    1    3    3    0    0 -0.37754008242E+02 -0.63505525447E+02 -0.50020054852E+02  0.89220641043E+02  0.00000000000E+00 0. -1.
</event>
<event>
 7    1  0.6597701E-006  0.1480213E+03  0.7818608E-02  0.1350755E+00
          2   -1    0    0  502    0  0.00000000000E+00  0.00000000000E+00  0.19216962262E+04  0.19216962262E+04  0.00000000000E+00 0. -1.
          1   -1    0    0  501    0 -0.00000000000E+00 -0.00000000000E+00 -0.23360788207E+03  0.23360788207E+03  0.00000000000E+00 0. -1.
         25    2    1    2    0    0  0.44170581746E+02  0.13215405867E+03  0.93921869069E+02  0.20943230931E+03  0.12499935671E+03 0.  0.
          2    1    1    2  501    0  0.35242173843E+02 -0.64366409773E+01 -0.17086873402E+03  0.17458397816E+03  0.00000000000E+00 0. -1.
          1    1    1    2  502    0 -0.79412755588E+02 -0.12571741770E+03  0.17650352091E+04  0.17712878208E+04  0.00000000000E+00 0. -1.
         22    1    3    3    0    0  0.80353162965E+02  0.57366228715E+02  0.75614100701E+02  0.12435838219E+03  0.00000000000E+00 0. -1.
         22    1    3    3    0    0 -0.36182581219E+02  0.74787829958E+02  0.18307768368E+02  0.85073927123E+02  0.00000000000E+00 0. -1.
</event>
<event>
 7    1  0.6597701E-006  0.3698570E+03  0.7818608E-02  0.1283760E+00
          2   -1    0    0  502    0  0.00000000000E+00  0.00000000000E+00  0.12556969665E+04  0.12556969665E+04  0.00000000000E+00 0. -1.
          1   -1    0    0  501    0 -0.00000000000E+00 -0.00000000000E+00 -0.56244842619E+03  0.56244842619E+03  0.00000000000E+00 0. -1.
         25    2    1    2    0    0 -0.21004821289E+03 -0.28019461087E+03  0.11929354852E+03  0.39049331435E+03  0.12499922455E+03 0.  0.
          2    1    1    2  501    0  0.22745690032E+03  0.29972576115E+03 -0.34370876020E+03  0.50961542877E+03  0.00000000000E+00 0. -1.
          1    1    1    2  502    0 -0.17408687429E+02 -0.19531150280E+02  0.91766375195E+03  0.91803664953E+03  0.00000000000E+00 0. -1.
         22    1    3    3    0    0 -0.57485858342E+02 -0.98237647944E+02 -0.19460451481E+02  0.11547280439E+03  0.00000000000E+00 0. -1.
         22    1    3    3    0    0 -0.15256235455E+03 -0.18195696292E+03  0.13875400000E+03  0.27502050996E+03  0.00000000000E+00 0. -1.
</event>
<event>
 7    1  0.6597701E-006  0.9322464E+02  0.7818608E-02  0.1377460E+00
          2   -1    0    0  502    0  0.00000000000E+00  0.00000000000E+00  0.13421089892E+03  0.13421089892E+03  0.00000000000E+00 0. -1.
          1   -1    0    0  501    0 -0.00000000000E+00 -0.00000000000E+00 -0.29458235828E+04  0.29458235828E+04  0.00000000000E+00 0. -1.
         25    2    1    2    0    0 -0.15828186353E+02 -0.48637822965E+02 -0.23330709354E+03  0.26957852935E+03  0.12499685710E+03 0.  0.
          2    1    1    2  501    0 -0.17194466231E+02 -0.42137636906E+02 -0.26740573665E+04  0.26744446208E+04  0.00000000000E+00 0. -1.
          1    1    1    2  502    0  0.33022652584E+02  0.90775459871E+02  0.95751776141E+02  0.13601133163E+03  0.00000000000E+00 0. -1.
         22    1    3    3    0    0 -0.17285861452E+02 -0.56368895561E+02 -0.24691679276E+03  0.25385853529E+03  0.00000000000E+00 0.  1.
         22    1    3    3    0    0  0.14576750997E+01  0.77310725959E+01  0.13609699223E+02  0.15719994056E+02  0.00000000000E+00 0.  1.
</event>
<event>
 7    1  0.6597701E-006  0.9784229E+02  0.7818608E-02  0.1412117E+00
          2   -1    0    0  502    0  0.00000000000E+00  0.00000000000E+00  0.12125669971E+04  0.12125669971E+04  0.00000000000E+00 0. -1.
          1   -1    0    0  501    0 -0.00000000000E+00 -0.00000000000E+00 -0.43530345288E+02  0.43530345288E+02  0.00000000000E+00 0. -1.
         25    2    1    2    0    0  0.70529533957E+02  0.63514278905E+02  0.31533373527E+03  0.35223578750E+03  0.12500482636E+03 0.  0.
          2    1    1    2  501    0 -0.48154904139E+02 -0.87615264449E+02  0.76306004451E+02  0.12576937494E+03  0.00000000000E+00 0. -1.
          1    1    1    2  502    0 -0.22374629818E+02  0.24100985544E+02  0.77739691209E+03  0.77809217994E+03  0.00000000000E+00 0. -1.
         22    1    3    3    0    0  0.10364533287E+03  0.62970243424E+02  0.21857135985E+03  0.24996208898E+03  0.00000000000E+00 0. -1.
         22    1    3    3    0    0 -0.33115798910E+02  0.54403548067E+00  0.96762375417E+02  0.10227369852E+03  0.00000000000E+00 0. -1.
</event>
<event>
 7    1  0.6597701E-006  0.3723811E+02  0.7818608E-02  0.1625015E+00
          2   -1    0    0  502    0  0.00000000000E+00  0.00000000000E+00  0.13534081667E+03  0.13534081667E+03  0.00000000000E+00 0. -1.
          1   -1    0    0  501    0 -0.00000000000E+00 -0.00000000000E+00 -0.73656200683E+03  0.73656200683E+03  0.00000000000E+00 0. -1.
         25    2    1    2    0    0  0.33876868555E+02  0.10852485730E+02 -0.17715480494E+03  0.21971685769E+03  0.12500501578E+03 0.  0.
          2    1    1    2  501    0 -0.10104426946E+02  0.17955014193E+02 -0.53486490777E+03  0.53526157302E+03  0.00000000000E+00 0. -1.
          1    1    1    2  502    0 -0.23772441609E+02 -0.28807499922E+02  0.11079852255E+03  0.11692439280E+03  0.00000000000E+00 0. -1.
         22    1    3    3    0    0 -0.33899471786E+02  0.22713036654E+02 -0.14838822571E+02  0.43419429714E+02  0.00000000000E+00 0. -1.
         22    1    3    3    0    0  0.67776340341E+02 -0.11860550924E+02 -0.16231598237E+03  0.17629742797E+03  0.00000000000E+00 0. -1.
</event>
<event>
 7    1  0.6597701E-006  0.2875198E+03  0.7818608E-02  0.1170501E+00
          2   -1    0    0  502    0  0.00000000000E+00  0.00000000000E+00  0.80483941988E+03  0.80483941988E+03  0.00000000000E+00 0. -1.
          1   -1    0    0  501    0 -0.00000000000E+00 -0.00000000000E+00 -0.95085784970E+03  0.95085784970E+03  0.00000000000E+00 0. -1.
         25    2    1    2    0    0 -0.23171404438E+03 -0.74300425007E+01  0.12856747979E+03  0.29308702524E+03  0.12499521437E+03 0.  0.
          2    1    1    2  501    0 -0.75741297827E+02 -0.78744847913E+02 -0.82181031337E+03  0.82904142624E+03  0.00000000000E+00 0. -1.
          1    1    1    2  502    0  0.30745534220E+03  0.86174890414E+02  0.54722440376E+03  0.63356881809E+03  0.00000000000E+00 0. -1.
         22    1    3    3    0    0 -0.20016178281E+03 -0.49726120592E+02  0.79522027994E+02  0.22104564981E+03  0.00000000000E+00 0. -1.
         22    1    3    3    0    0 -0.31552261569E+02  0.42296078091E+02  0.49045451796E+02  0.72041375431E+02  0.00000000000E+00 0. -1.
</event>
<event>
 7    1  0.6597701E-006  0.1120755E+03  0.7818608E-02  0.1297085E+00
          2   -1    0    0  502    0  0.00000000000E+00  0.00000000000E+00  0.19156885226E+04  0.19156885226E+04  0.00000000000E+00 0. -1.
          1   -1    0    0  501    0 -0.00000000000E+00 -0.00000000000E+00 -0.39595361587E+03  0.39595361587E+03  0.00000000000E+00 0. -1.
         25    2    1    2    0    0 -0.75086102404E+02 -0.12570471568E+03  0.10675642873E+03  0.22013675729E+03  0.12499463396E+03 0.  0.
          2    1    1    2  501    0  0.74905479003E+02  0.14085528174E+02 -0.33317814195E+03  0.34178488434E+03  0.00000000000E+00 0. -1.
          1    1    1    2  502    0  0.18062340164E+00  0.11161918750E+03  0.17461566200E+04  0.17497204969E+04  0.00000000000E+00 0. -1.
         22    1    3    3    0    0  0.34300377044E+02 -0.40189081813E+02  0.20470258146E+02  0.56663124083E+02  0.00000000000E+00 0.  1.
         22    1    3    3    0    0 -0.10938647945E+03 -0.85515633866E+02  0.86286170580E+02  0.16347363321E+03  0.00000000000E+00 0.  1.
</event>
<event>
 7    1  0.6597701E-006  0.7963467E+02  0.7818608E-02  0.1347963E+00
          2   -1    0    0  502    0  0.00000000000E+00  0.00000000000E+00  0.18912576020E+04  0.18912576020E+04  0.00000000000E+00 0. -1.
          1   -1    0    0  501    0 -0.00000000000E+00 -0.00000000000E+00 -0.30741559549E+02  0.30741559549E+02  0.00000000000E+00 0. -1.
         25    2    1    2    0    0  0.16052728390E+02  0.86359232968E+01  0.40779163753E+03  0.42690940156E+03  0.12500139296E+03 0.  0.
          2    1    1    2  501    0  0.25137325925E+02 -0.76790603774E+02  0.61384786245E+02  0.10147302087E+03  0.00000000000E+00 0. -1.
          1    1    1    2  502    0 -0.41190054315E+02  0.68154680477E+02  0.13913396187E+04  0.13936167391E+04  0.00000000000E+00 0. -1.
         22    1    3    3    0    0  0.59668586958E+02  0.28536092931E+02  0.32113417300E+03  0.32787468023E+03  0.00000000000E+00 0. -1.
         22    1    3    3    0    0 -0.43615858568E+02 -0.19900169634E+02  0.86657464534E+02  0.99034721333E+02  0.00000000000E+00 0. -1.
</event>
<event>
 7    1  0.6597701E-006  0.1022560E+03  0.7818608E-02  0.1277061E+00
          2   -1    0    0  502    0  0.00000000000E+00  0.00000000000E+00  0.29750434360E+04  0.29750434360E+04  0.00000000000E+00 0. -1.
          1   -1    0    0  501    0 -0.00000000000E+00 -0.00000000000E+00 -0.80009763520E+02  0.80009763520E+02  0.00000000000E+00 0. -1.
         25    2    1    2    0    0  0.10435437520E+02 -0.55415374962E+02  0.14967676497E+03  0.20299626988E+03  0.12499835788E+03 0.  0.
          2    1    1    2  501    0 -0.10205820682E+03  0.63567604237E+01 -0.24499247365E+01  0.10228532697E+03  0.00000000000E+00 0. -1.
          1    1    1    2  502    0  0.91622769301E+02  0.49058614538E+02  0.27478068322E+04  0.27497716026E+04  0.00000000000E+00 0. -1.
         22    1    3    3    0    0  0.24733432737E+02 -0.75365488762E+02  0.15823458979E+03  0.17700249998E+03  0.00000000000E+00 0. -1.
         22    1    3    3    0    0 -0.14297995217E+02  0.19950113800E+02 -0.85578248238E+01  0.25993769899E+02  0.00000000000E+00 0. -1.
</event>
<event>
 7    1  0.6597701E-006  0.1969530E+03  0.7818608E-02  0.1308818E+00
          2   -1    0    0  502    0  0.00000000000E+00  0.00000000000E+00  0.22683259712E+04  0.22683259712E+04  0.00000000000E+00 0. -1.
          1   -1    0    0  501    0 -0.00000000000E+00 -0.00000000000E+00 -0.36544420986E+03  0.36544420986E+03  0.00000000000E+00 0. -1.
         25    2    1    2    0    0  0.16666698924E+03  0.67430932325E+02  0.82178219994E+03  0.85045608298E+03  0.12499899604E+03 0.  0.
          2    1    1    2  501    0  0.34099913712E+02 -0.18813070282E+02 -0.34254965549E+03  0.34475643896E+03  0.00000000000E+00 0. -1.
          1    1    1    2  502    0 -0.20076690295E+03 -0.48617862043E+02  0.14236492169E+04  0.14385576591E+04  0.00000000000E+00 0. -1.
         22    1    3    3    0    0 -0.14619028088E+02  0.76458636586E+00  0.15338264191E+02  0.21202898928E+02  0.00000000000E+00 0. -1.
         22    1    3    3    0    0  0.18128601732E+03  0.66666345959E+02  0.80644393575E+03  0.82925318405E+03  0.00000000000E+00 0. -1.
</event>
<event>
 7    1  0.6597701E-006  0.4957452E+02  0.7818608E-02  0.1472496E+00
          2   -1    0    0  502    0  0.00000000000E+00  0.00000000000E+00  0.30761927723E+03  0.30761927723E+03  0.00000000000E+00 0. -1.
          1   -1    0    0  501    0 -0.00000000000E+00 -0.00000000000E+00 -0.13220324658E+03  0.13220324658E+03  0.00000000000E+00 0. -1.
         25    2    1    2    0    0 -0.88852131964E+01 -0.10567618945E+02  0.10720222861E+03  0.16524924161E+03  0.12499748978E+03 0.  0.
          2    1    1    2  501    0 -0.26009675771E+02 -0.32194705571E+02 -0.94278458651E+02  0.10296324619E+03  0.00000000000E+00 0. -1.
          1    1    1    2  502    0  0.34894888968E+02  0.42762324516E+02  0.16249226069E+03  0.17161003601E+03  0.00000000000E+00 0. -1.
         22    1    3    3    0    0  0.47426831352E+02  0.14887461110E+02  0.11004666737E+02  0.50912115654E+02  0.00000000000E+00 0.  1.
         22    1    3    3    0    0 -0.56312044548E+02 -0.25455080055E+02  0.96197561873E+02  0.11433712596E+03  0.00000000000E+00 0.  1.
</event>
<event>
 7    1  0.6597701E-006  0.7842192E+02  0.7818608E-02  0.1469309E+00
          2   -1    0    0  502    0  0.00000000000E+00  0.00000000000E+00  0.35760960938E+03  0.35760960938E+03  0.00000000000E+00 0. -1.
          1   -1    0    0  501    0 -0.00000000000E+00 -0.00000000000E+00 -0.75699878575E+02  0.75699878575E+02  0.00000000000E+00 0. -1.
         25    2    1    2    0    0  0.66357932858E+02  0.34717868445E+02  0.11504099226E+03  0.18565562940E+03  0.12499950874E+03 0.  0.
          2    1    1    2  501    0 -0.54701357985E+02 -0.58813593122E+02  0.17078557810E+01  0.80337998934E+02  0.00000000000E+00 0. -1.
          1    1    1    2  502    0 -0.11656574873E+02  0.24095724678E+02  0.16516088276E+03  0.16731585961E+03  0.00000000000E+00 0. -1.
         22    1    3    3    0    0  0.73573276556E+01 -0.45411447633E+02  0.31838297456E+02  0.55946465762E+02  0.00000000000E+00 0.  1.
         22    1    3    3    0    0  0.59000605202E+02  0.80129316078E+02  0.83202694808E+02  0.12970916364E+03  0.00000000000E+00 0.  1.
</event>
<event>
 7    1  0.6597701E-006  0.9470615E+02  0.7818608E-02  0.1371369E+00
          2   -1    0    0  502    0  0.00000000000E+00  0.00000000000E+00  0.69728438385E+03  0.69728438385E+03  0.00000000000E+00 0. -1.
          1   -1    0    0  501    0 -0.00000000000E+00 -0.00000000000E+00 -0.55639291128E+02  0.55639291128E+02  0.00000000000E+00 0. -1.
         25    2    1    2    0    0  0.10452603693E+03 -0.36364892077E+02  0.33491617879E+03  0.37422815920E+03  0.12501908077E+03 0.  0.
          2    1    1    2  501    0 -0.92898145228E+02 -0.92771691891E+01  0.30110280216E+02  0.98095668761E+02  0.00000000000E+00 0. -1.
          1    1    1    2  502    0 -0.11627891704E+02  0.45642061266E+02  0.27661863372E+03  0.28059984701E+03  0.00000000000E+00 0. -1.
         22    1    3    3    0    0 -0.27553408129E+02 -0.16092393118E+02  0.46924328116E+02  0.56745466647E+02  0.00000000000E+00 0. -1.
         22    1    3    3    0    0  0.13207944506E+03 -0.20272498959E+02  0.28799185067E+03  0.31748269256E+03  0.00000000000E+00 0. -1.
</event>
<event>
 7    1  0.6597701E-006  0.1057672E+03  0.7818608E-02  0.1280758E+00
          2   -1    0    0  502    0  0.00000000000E+00  0.00000000000E+00  0.46820976529E+03  0.46820976529E+03  0.00000000000E+00 0. -1.
          1   -1    0    0  501    0 -0.00000000000E+00 -0.00000000000E+00 -0.56091135809E+03  0.56091135809E+03  0.00000000000E+00 0. -1.
         25    2    1    2    0    0 -0.26836352505E+02 -0.50836039700E+02  0.12612814507E+03  0.18668614029E+03  0.12505564062E+03 0.  0.
          2    1    1    2  501    0  0.95337140302E+02 -0.45798798102E+02 -0.51379830808E+03  0.52457163631E+03  0.00000000000E+00 0. -1.
          1    1    1    2  502    0 -0.68500787796E+02  0.96634837802E+02  0.29496857022E+03  0.31786334678E+03  0.00000000000E+00 0. -1.
         22    1    3    3    0    0 -0.38894762707E+02 -0.64662648358E+02  0.14304692956E+03  0.16172966554E+03  0.00000000000E+00 0.  1.
         22    1    3    3    0    0  0.12058410201E+02  0.13826608658E+02 -0.16918784492E+02  0.24956474756E+02  0.00000000000E+00 0.  1.
</event>
<event>
 7    1  0.6597701E-006  0.1139640E+03  0.7818608E-02  0.1404073E+00
          2   -1    0    0  502    0  0.00000000000E+00  0.00000000000E+00  0.36846026686E+03  0.36846026686E+03  0.00000000000E+00 0. -1.
          1   -1    0    0  501    0 -0.00000000000E+00 -0.00000000000E+00 -0.13728002934E+04  0.13728002934E+04  0.00000000000E+00 0. -1.
         25    2    1    2    0    0  0.48607294261E+02 -0.12996979900E+03 -0.71095753258E+02  0.19983498653E+03  0.12499839199E+03 0.  0.
          2    1    1    2  501    0  0.21617509927E+01  0.29990134579E+02 -0.12268075424E+04  0.12271759561E+04  0.00000000000E+00 0. -1.
          1    1    1    2  502    0 -0.50769045254E+02  0.99979664425E+02  0.29356326903E+03  0.31424961763E+03  0.00000000000E+00 0. -1.
         22    1    3    3    0    0  0.33610999440E+02 -0.10514897673E+03 -0.10696296421E+03  0.15371103507E+03  0.00000000000E+00 0.  1.
         22    1    3    3    0    0  0.14996294821E+02 -0.24820822273E+02  0.35867210949E+02  0.46123951456E+02  0.00000000000E+00 0.  1.
</event>
<event>
 7    1  0.6597701E-006  0.7273441E+02  0.7818608E-02  0.1431605E+00
          2   -1    0    0  502    0  0.00000000000E+00  0.00000000000E+00  0.26323118054E+02  0.26323118054E+02  0.00000000000E+00 0. -1.
          1   -1    0    0  501    0 -0.00000000000E+00 -0.00000000000E+00 -0.12227036295E+04  0.12227036295E+04  0.00000000000E+00 0. -1.
         25    2    1    2    0    0 -0.71296204507E+02  0.12270586681E+02 -0.56475125577E+03  0.58292568786E+03  0.12499864240E+03 0.  0.
          2    1    1    2  501    0  0.14506342610E+02  0.35225769047E+02 -0.56565556900E+03  0.56693695551E+03  0.00000000000E+00 0. -1.
          1    1    1    2  502    0  0.56789861897E+02 -0.47496355727E+02 -0.65973686632E+02  0.99164104138E+02  0.00000000000E+00 0. -1.
         22    1    3    3    0    0 -0.48504379346E+02 -0.47765475582E+02 -0.40617603181E+03  0.41184121247E+03  0.00000000000E+00 0. -1.
         22    1    3    3    0    0 -0.22791825161E+02  0.60036062263E+02 -0.15857522396E+03  0.17108447539E+03  0.00000000000E+00 0. -1.
</event>
<event>
 7    1  0.6597701E-006  0.1658400E+03  0.7818608E-02  0.1235928E+00
          2   -1    0    0  502    0  0.00000000000E+00  0.00000000000E+00  0.58100863339E+03  0.58100863339E+03  0.00000000000E+00 0. -1.
          1   -1    0    0  501    0 -0.00000000000E+00 -0.00000000000E+00 -0.90121976363E+03  0.90121976363E+03  0.00000000000E+00 0. -1.
         25    2    1    2    0    0  0.24398343468E+03  0.73416426727E+02  0.48282991437E+02  0.28788019255E+03  0.12500347951E+03 0.  0.
          2    1    1    2  501    0 -0.15439211733E+03 -0.47039565305E+02 -0.76763886322E+03  0.78442276288E+03  0.00000000000E+00 0. -1.
          1    1    1    2  502    0 -0.89591317353E+02 -0.26376861422E+02  0.39914474154E+03  0.40992544159E+03  0.00000000000E+00 0. -1.
         22    1    3    3    0    0  0.16526359574E+03  0.81121705362E+02 -0.17600482693E+02  0.18493935262E+03  0.00000000000E+00 0. -1.
         22    1    3    3    0    0  0.78719838944E+02 -0.77052786352E+01  0.65883474130E+02  0.10294083993E+03  0.00000000000E+00 0. -1.
</event>
<event>
 7    1  0.6597701E-006  0.8836675E+02  0.7818608E-02  0.1435698E+00
          2   -1    0    0  502    0  0.00000000000E+00  0.00000000000E+00  0.20976921767E+04  0.20976921767E+04  0.00000000000E+00 0. -1.
          1   -1    0    0  501    0 -0.00000000000E+00 -0.00000000000E+00 -0.20841313178E+02  0.20841313178E+02  0.00000000000E+00 0. -1.
         25    2    1    2    0    0 -0.56482312511E+02  0.33449485148E+02  0.65591962172E+03  0.67094339475E+03  0.12500147646E+03 0.  0.
          2    1    1    2  501    0 -0.30403088781E+02  0.18050016595E+00  0.77963279352E+01  0.31387308215E+02  0.00000000000E+00 0. -1.
          1    1    1    2  502    0  0.86885401292E+02 -0.33629985314E+02  0.14131349139E+04  0.14162027870E+04  0.00000000000E+00 0. -1.
         22    1    3    3    0    0 -0.85526682734E+02  0.37155001377E+02  0.30831573524E+03  0.32210852237E+03  0.00000000000E+00 0. -1.
         22    1    3    3    0    0  0.29044370223E+02 -0.37055162283E+01  0.34760388648E+03  0.34883487238E+03  0.00000000000E+00 0. -1.
</event>
<event>
 7    1  0.6597701E-006  0.9038959E+02  0.7818608E-02  0.1414623E+00
          2   -1    0    0  502    0  0.00000000000E+00  0.00000000000E+00  0.17932183283E+04  0.17932183283E+04  0.00000000000E+00 0. -1.
          1   -1    0    0  501    0 -0.00000000000E+00 -0.00000000000E+00 -0.43179123940E+02  0.43179123940E+02  0.00000000000E+00 0. -1.
         25    2    1    2    0    0  0.11230614920E+03  0.15656988435E+02  0.73426991694E+03  0.75341549505E+03  0.12499913930E+03 0.  0.
          2    1    1    2  501    0 -0.88280459371E+02  0.96723365807E+01  0.25915538825E+02  0.92512749144E+02  0.00000000000E+00 0. -1.
          1    1    1    2  502    0 -0.24025689831E+02 -0.25329325016E+02  0.98985374857E+03  0.99046920802E+03  0.00000000000E+00 0. -1.
         22    1    3    3    0    0  0.86816789780E+02  0.30838139872E+02  0.22295636729E+03  0.24124196893E+03  0.00000000000E+00 0. -1.
         22    1    3    3    0    0  0.25489359422E+02 -0.15181151436E+02  0.51131354965E+03  0.51217352612E+03  0.00000000000E+00 0. -1.
</event>
<event>
 7    1  0.6597701E-006  0.2180420E+03  0.7818608E-02  0.1265061E+00
          2   -1    0    0  502    0  0.00000000000E+00  0.00000000000E+00  0.21615476881E+04  0.21615476881E+04  0.00000000000E+00 0. -1.
          1   -1    0    0  501    0 -0.00000000000E+00 -0.00000000000E+00 -0.20273871447E+04  0.20273871447E+04  0.00000000000E+00 0. -1.
         25    2    1    2    0    0  0.33618371959E+02 -0.24784299561E+03 -0.99397064887E+03  0.10325505110E+04  0.12500624641E+03 0.  0.
          2    1    1    2  501    0 -0.75127488837E+01  0.20159368301E+03 -0.10037602019E+04  0.10238315278E+04  0.00000000000E+00 0. -1.
          1    1    1    2  502    0 -0.26105623075E+02  0.46249312599E+02  0.21318913942E+04  0.21325527940E+04  0.00000000000E+00 0. -1.
         22    1    3    3    0    0  0.74999955160E+02 -0.96694654555E+02 -0.40454774258E+03  0.42265083168E+03  0.00000000000E+00 0.  1.
         22    1    3    3    0    0 -0.41381583201E+02 -0.15114834106E+03 -0.58942290629E+03  0.60989967937E+03  0.00000000000E+00 0.  1.
</event>
<event>
 7    1  0.6597701E-006  0.2514604E+03  0.7818608E-02  0.1156369E+00
          2   -1    0    0  502    0  0.00000000000E+00  0.00000000000E+00  0.60314501629E+03  0.60314501629E+03  0.00000000000E+00 0. -1.
          1   -1    0    0  501    0 -0.00000000000E+00 -0.00000000000E+00 -0.48027282554E+03  0.48027282554E+03  0.00000000000E+00 0. -1.
         25    2    1    2    0    0 -0.29595557460E+03 -0.13067164583E+03  0.16308875079E+03  0.38325918723E+03  0.12499953122E+03 0.  0.
          2    1    1    2  501    0  0.14137074358E+03 -0.40713137917E+02 -0.31119136699E+03  0.34421405205E+03  0.00000000000E+00 0. -1.
          1    1    1    2  502    0  0.15458483102E+03  0.17138478375E+03  0.27097480695E+03  0.35594460255E+03  0.00000000000E+00 0. -1.
         22    1    3    3    0    0 -0.66936665649E+02 -0.45968868039E+02 -0.12963944933E+02  0.82229665603E+02  0.00000000000E+00 0.  1.
         22    1    3    3    0    0 -0.22901890895E+03 -0.84702777792E+02  0.17605269572E+03  0.30102952163E+03  0.00000000000E+00 0.  1.
</event>
<event>
 7    1  0.6597701E-006  0.5629947E+02  0.7818608E-02  0.1417443E+00
          2   -1    0    0  502    0  0.00000000000E+00  0.00000000000E+00  0.26959022362E+03  0.26959022362E+03  0.00000000000E+00 0. -1.
          1   -1    0    0  501    0 -0.00000000000E+00 -0.00000000000E+00 -0.29772778408E+03  0.29772778408E+03  0.00000000000E+00 0. -1.
         25    2    1    2    0    0  0.13309560357E+02 -0.52087461484E+02 -0.63664485295E+02  0.15022776776E+03  0.12499986991E+03 0.  0.
          2    1    1    2  501    0  0.41624047265E+02  0.39761528668E+02 -0.18278549481E+03  0.19163527229E+03  0.00000000000E+00 0. -1.
          1    1    1    2  502    0 -0.54933607622E+02  0.12325932817E+02  0.21831241964E+03  0.22545496764E+03  0.00000000000E+00 0. -1.
         22    1    3    3    0    0  0.51309135860E+02  0.18540363689E+02 -0.36114302081E+02  0.65426411511E+02  0.00000000000E+00 0. -1.
         22    1    3    3    0    0 -0.37999575503E+02 -0.70627825174E+02 -0.27550183214E+02  0.84801356253E+02  0.00000000000E+00 0. -1.
</event>
<event>
 7    1  0.6597701E-006  0.5253901E+02  0.7818608E-02  0.1444197E+00
          2   -1    0    0  502    0  0.00000000000E+00  0.00000000000E+00  0.15336266709E+04  0.15336266709E+04  0.00000000000E+00 0. -1.
          1   -1    0    0  501    0 -0.00000000000E+00 -0.00000000000E+00 -0.19089427450E+03  0.19089427450E+03  0.00000000000E+00 0. -1.
         25    2    1    2    0    0 -0.93326694880E+02 -0.28157076240E+02  0.59778993965E+03  0.61845030133E+03  0.12500108139E+03 0.  0.
          2    1    1    2  501    0  0.45092517357E+02  0.16421826632E+02 -0.17669566041E+03  0.18309660816E+03  0.00000000000E+00 0. -1.
          1    1    1    2  502    0  0.48234177523E+02  0.11735249608E+02  0.92163811714E+03  0.92297403590E+03  0.00000000000E+00 0. -1.
         22    1    3    3    0    0 -0.97299053863E+02  0.28538675015E+02  0.40056494801E+03  0.41319951528E+03  0.00000000000E+00 0.  1.
         22    1    3    3    0    0  0.39723589837E+01 -0.56695751256E+02  0.19722499164E+03  0.20525078605E+03  0.00000000000E+00 0.  1.
</event>
<event>
 7    1  0.6597701E-006  0.5629403E+02  0.7818608E-02  0.1478242E+00
          2   -1    0    0  502    0  0.00000000000E+00  0.00000000000E+00  0.18766587692E+03  0.18766587692E+03  0.00000000000E+00 0. -1.
          1   -1    0    0  501    0 -0.00000000000E+00 -0.00000000000E+00 -0.43032356208E+03  0.43032356208E+03  0.00000000000E+00 0. -1.
         25    2    1    2    0    0  0.57799495929E+02 -0.60940866416E+02  0.10826304364E+03  0.18545917872E+03  0.12497859586E+03 0.  0.
          2    1    1    2  501    0 -0.24455936254E+02  0.50336145548E+02 -0.38179027919E+03  0.38586997505E+03  0.00000000000E+00 0. -1.
          1    1    1    2  502    0 -0.33343559675E+02  0.10604720868E+02  0.30869550381E+02  0.46660285225E+02  0.00000000000E+00 0. -1.
         22    1    3    3    0    0  0.41118966445E+02 -0.43872376376E+02 -0.13293941856E+02  0.61581520770E+02  0.00000000000E+00 0. -1.
         22    1    3    3    0    0  0.16680529484E+02 -0.17068490041E+02  0.12155698550E+03  0.12387765795E+03  0.00000000000E+00 0. -1.
</event>
<event>
 7    1  0.6597701E-006  0.7166584E+02  0.7818608E-02  0.1362466E+00
          2   -1    0    0  502    0  0.00000000000E+00  0.00000000000E+00  0.15055606239E+04  0.15055606239E+04  0.00000000000E+00 0. -1.
          1   -1    0    0  501    0 -0.00000000000E+00 -0.00000000000E+00 -0.16722309400E+03  0.16722309400E+03  0.00000000000E+00 0. -1.
         25    2    1    2    0    0 -0.35515427753E+02 -0.36368625468E+00  0.11106201196E+04  0.11181969804E+04  0.12500383614E+03 0.  0.
          2    1    1    2  501    0  0.26987917475E+02  0.66844443138E+02 -0.15240858311E+03  0.16859686674E+03  0.00000000000E+00 0. -1.
          1    1    1    2  502    0  0.85275102787E+01 -0.66480756884E+02  0.38012599341E+03  0.38598987076E+03  0.00000000000E+00 0. -1.
         22    1    3    3    0    0  0.15382505639E+02  0.33851887153E+02  0.11881076218E+03  0.12449324863E+03  0.00000000000E+00 0. -1.
         22    1    3    3    0    0 -0.50897933393E+02 -0.34215573407E+02  0.99180935740E+03  0.99370373176E+03  0.00000000000E+00 0. -1.
</event>
<event>
 7    1  0.6597701E-006  0.1602009E+03  0.7818608E-02  0.1258947E+00
          2   -1    0    0  502    0  0.00000000000E+00  0.00000000000E+00  0.15588464329E+04  0.15588464329E+04  0.00000000000E+00 0. -1.
          1   -1    0    0  501    0 -0.00000000000E+00 -0.00000000000E+00 -0.30376768319E+03  0.30376768319E+03  0.00000000000E+00 0. -1.
         25    2    1    2    0    0 -0.56156543068E+02 -0.16160166854E+03  0.38134904438E+03  0.43625658482E+03  0.12499623010E+03 0.  0.
          2    1    1    2  501    0  0.76721649610E+02  0.18985492745E+01 -0.26521039323E+03  0.27609123254E+03  0.00000000000E+00 0. -1.
          1    1    1    2  502    0 -0.20565106541E+02  0.15970311927E+03  0.11389400985E+04  0.11502662987E+04  0.00000000000E+00 0. -1.
         22    1    3    3    0    0 -0.95017080548E+02 -0.94478247387E+02  0.22975714502E+03  0.26597505618E+03  0.00000000000E+00 0.  1.
         22    1    3    3    0    0  0.38860537480E+02 -0.67123421157E+02  0.15159189936E+03  0.17028152863E+03  0.00000000000E+00 0.  1.
</event>
<event>
 7    1  0.6597701E-006  0.2766299E+02  0.7818608E-02  0.1630806E+00
          2   -1    0    0  502    0  0.00000000000E+00  0.00000000000E+00  0.31506519437E+02  0.31506519437E+02  0.00000000000E+00 0. -1.
          1   -1    0    0  501    0 -0.00000000000E+00 -0.00000000000E+00 -0.15510327032E+04  0.15510327032E+04  0.00000000000E+00 0. -1.
         25    2    1    2    0    0 -0.15607677902E+02  0.48870742842E+01 -0.16010750044E+03  0.20378038511E+03  0.12499820221E+03 0.  0.
          2    1    1    2  501    0  0.13165296386E+02  0.24329323109E+02 -0.13463930793E+04  0.13466772312E+04  0.00000000000E+00 0. -1.
          1    1    1    2  502    0  0.24423815156E+01 -0.29216397393E+02 -0.13025603987E+02  0.32081606308E+02  0.00000000000E+00 0. -1.
         22    1    3    3    0    0  0.31111516722E+02  0.98206347131E+01  0.41951615098E+01  0.32893323320E+02  0.00000000000E+00 0. -1.
         22    1    3    3    0    0 -0.46719194624E+02 -0.49335604289E+01 -0.16430266195E+03  0.17088706179E+03  0.00000000000E+00 0. -1.
</event>
<event>
 7    1  0.6597701E-006  0.2151339E+03  0.7818608E-02  0.1246767E+00
          2   -1    0    0  502    0  0.00000000000E+00  0.00000000000E+00  0.25443459563E+03  0.25443459563E+03  0.00000000000E+00 0. -1.
          1   -1    0    0  501    0 -0.00000000000E+00 -0.00000000000E+00 -0.62467448507E+03  0.62467448507E+03  0.00000000000E+00 0. -1.
         25    2    1    2    0    0  0.17102992508E+03 -0.45648127378E+02 -0.19306452466E+03  0.29023348684E+03  0.12500631741E+03 0.  0.
          2    1    1    2  501    0  0.30228777220E+02 -0.56984603660E+02 -0.31679563261E+03  0.32329629888E+03  0.00000000000E+00 0. -1.
          1    1    1    2  502    0 -0.20125870230E+03  0.10263273104E+03  0.13962026784E+03  0.26557929498E+03  0.00000000000E+00 0. -1.
         22    1    3    3    0    0  0.10417375955E+03 -0.82861079702E+02 -0.15643650653E+03  0.20540328937E+03  0.00000000000E+00 0.  1.
         22    1    3    3    0    0  0.66856165534E+02  0.37212952325E+02 -0.36628018131E+02  0.84830197470E+02  0.00000000000E+00 0.  1.
</event>
<event>
 7    1  0.6597701E-006  0.4513546E+02  0.7818608E-02  0.1562780E+00
          2   -1    0    0  502    0  0.00000000000E+00  0.00000000000E+00  0.68228575609E+03  0.68228575609E+03  0.00000000000E+00 0. -1.
          1   -1    0    0  501    0 -0.00000000000E+00 -0.00000000000E+00 -0.39616798059E+02  0.39616798059E+02  0.00000000000E+00 0. -1.
         25    2    1    2    0    0  0.30688701630E+02 -0.20405637852E+02  0.10477116628E+03  0.16721278587E+03  0.12499972805E+03 0.  0.
          2    1    1    2  501    0  0.14887979324E+02  0.19827592180E+02  0.13340496242E+02  0.28155890680E+02  0.00000000000E+00 0. -1.
          1    1    1    2  502    0 -0.45576680954E+02  0.57804567179E+00  0.52455729551E+03  0.52653387760E+03  0.00000000000E+00 0. -1.
         22    1    3    3    0    0  0.29649827816E+02 -0.46193160472E+02  0.12361720130E+03  0.13525580513E+03  0.00000000000E+00 0.  1.
         22    1    3    3    0    0  0.10388738140E+01  0.25787522620E+02 -0.18846035026E+02  0.31956980738E+02  0.00000000000E+00 0.  1.
</event>
<event>
 7    1  0.6597701E-006  0.3044585E+03  0.7818608E-02  0.1202462E+00
          2   -1    0    0  502    0  0.00000000000E+00  0.00000000000E+00  0.16290673866E+04  0.16290673866E+04  0.00000000000E+00 0. -1.
          1   -1    0    0  501    0 -0.00000000000E+00 -0.00000000000E+00 -0.20843141287E+03  0.20843141287E+03  0.00000000000E+00 0. -1.
         25    2    1    2    0    0 -0.18831880154E+03 -0.19653409438E+03  0.13603241920E+03  0.32896983615E+03  0.12500685084E+03 0.  0.
          2    1    1    2  501    0  0.25274830251E+03  0.22939729957E+03  0.15204099610E+03  0.37365932340E+03  0.00000000000E+00 0. -1.
          1    1    1    2  502    0 -0.64429500962E+02 -0.32863205193E+02  0.11325625584E+04  0.11348696399E+04  0.00000000000E+00 0. -1.
         22    1    3    3    0    0 -0.15290036987E+03 -0.19461121717E+03  0.75396655664E+02  0.25872128756E+03  0.00000000000E+00 0. -1.
         22    1    3    3    0    0 -0.35418431677E+02 -0.19228772090E+01  0.60635763535E+02  0.70248548588E+02  0.00000000000E+00 0. -1.
</event>
<event>
 7    1  0.6663343E-006  0.1023480E+03  0.7818608E-02  0.1289846E+00
          2   -1    0    0  502    0  0.00000000000E+00  0.00000000000E+00  0.17705177829E+04  0.17705177829E+04  0.00000000000E+00 0. -1.
          1   -1    0    0  501    0 -0.00000000000E+00 -0.00000000000E+00 -0.65079954139E+03  0.65079954139E+03  0.00000000000E+00 0. -1.
         25    2    1    2    0    0 -0.41668820496E+02 -0.68995347906E+02 -0.43560486432E+02  0.15497992218E+03  0.12499844666E+03 0.  0.
          2    1    1    2  501    0 -0.42562110484E+02  0.98605411129E+02 -0.54512408539E+03  0.55560312169E+03  0.00000000000E+00 0. -1.
          1    1    1    2  502    0  0.84230930981E+02 -0.29610063223E+02  0.17084028133E+04  0.17107342804E+04  0.00000000000E+00 0. -1.
         22    1    3    3    0    0 -0.62926000494E+02 -0.38538711789E+02 -0.75809178761E+02  0.10579199133E+03  0.00000000000E+00 0.  1.
         22    1    3    3    0    0  0.21257179998E+02 -0.30456636116E+02  0.32248692329E+02  0.49187930856E+02  0.00000000000E+00 0.  1.
</event>
<event>
 7    1  0.6597701E-006  0.1237002E+03  0.7818608E-02  0.1375007E+00
          2   -1    0    0  502    0  0.00000000000E+00  0.00000000000E+00  0.94882830292E+03  0.94882830292E+03  0.00000000000E+00 0. -1.
          1   -1    0    0  501    0 -0.00000000000E+00 -0.00000000000E+00 -0.61827937188E+03  0.61827937188E+03  0.00000000000E+00 0. -1.
         25    2    1    2    0    0  0.12381417229E+03 -0.14087631760E+02  0.24570309503E+03  0.30252920140E+03  0.12500198464E+03 0.  0.
          2    1    1    2  501    0 -0.12202257128E+03 -0.20861950317E+02 -0.58290807480E+03  0.59590817459E+03  0.00000000000E+00 0. -1.
          1    1    1    2  502    0 -0.17916010086E+01  0.34949582076E+02  0.66775391080E+03  0.66867029881E+03  0.00000000000E+00 0. -1.
         22    1    3    3    0    0 -0.90293504736E+00 -0.58031463891E+01 -0.13522615544E+02  0.14742894250E+02  0.00000000000E+00 0. -1.
         22    1    3    3    0    0  0.12471710734E+03 -0.82844853708E+01  0.25922571057E+03  0.28778630715E+03  0.00000000000E+00 0. -1.
</event>
<event>
 7    1  0.6597701E-006  0.3136604E+02  0.7818608E-02  0.1615181E+00
          2   -1    0    0  502    0  0.00000000000E+00  0.00000000000E+00  0.18296414771E+03  0.18296414771E+03  0.00000000000E+00 0. -1.
          1   -1    0    0  501    0 -0.00000000000E+00 -0.00000000000E+00 -0.16633040890E+04  0.16633040890E+04  0.00000000000E+00 0. -1.
         25    2    1    2    0    0  0.25808462603E+02 -0.16350722731E+02 -0.13435149903E+04  0.13496633615E+04  0.12500094922E+03 0.  0.
          2    1    1    2  501    0  0.41837397338E+01  0.25571949322E+02 -0.31481026618E+03  0.31587486757E+03  0.00000000000E+00 0. -1.
          1    1    1    2  502    0 -0.29992202337E+02 -0.92212265906E+01  0.17798531522E+03  0.18073000762E+03  0.00000000000E+00 0. -1.
         22    1    3    3    0    0  0.34991940879E+02 -0.33887855878E+02 -0.13087577098E+04  0.13096639132E+04  0.00000000000E+00 0. -1.
         22    1    3    3    0    0 -0.91834782751E+01  0.17537133147E+02 -0.34757280548E+02  0.39999448288E+02  0.00000000000E+00 0. -1.
</event>
<event>
 7    1  0.6597701E-006  0.1371641E+03  0.7818608E-02  0.1288597E+00
          2   -1    0    0  502    0  0.00000000000E+00  0.00000000000E+00  0.25288619071E+04  0.25288619071E+04  0.00000000000E+00 0. -1.
          1   -1    0    0  501    0 -0.00000000000E+00 -0.00000000000E+00 -0.43357244992E+03  0.43357244992E+03  0.00000000000E+00 0. -1.
         25    2    1    2    0    0 -0.15249946580E+02 -0.12547793166E+03  0.14952991562E+04  0.15058280124E+04  0.12498465569E+03 0.  0.
          2    1    1    2  501    0  0.63255826154E+02 -0.23286384205E+02 -0.41966227163E+03  0.42504114796E+03  0.00000000000E+00 0. -1.
          1    1    1    2  502    0 -0.48005879574E+02  0.14876431586E+03  0.10196525726E+04  0.10315651966E+04  0.00000000000E+00 0. -1.
         22    1    3    3    0    0 -0.61562299169E+02 -0.26905055958E+02  0.67371638698E+03  0.67705802469E+03  0.00000000000E+00 0.  1.
         22    1    3    3    0    0  0.46312352589E+02 -0.98572875699E+02  0.82158276920E+03  0.82876998768E+03  0.00000000000E+00 0.  1.
</event>
<event>
 7    1  0.6597701E-006  0.6394167E+02  0.7818608E-02  0.1458552E+00
          2   -1    0    0  502    0  0.00000000000E+00  0.00000000000E+00  0.26539432964E+03  0.26539432964E+03  0.00000000000E+00 0. -1.
          1   -1    0    0  501    0 -0.00000000000E+00 -0.00000000000E+00 -0.13834502987E+04  0.13834502987E+04  0.00000000000E+00 0. -1.
         25    2    1    2    0    0  0.43384389634E+01  0.47437381875E+02 -0.19520293838E+03  0.23663900939E+03  0.12499882542E+03 0.  0.
          2    1    1    2  501    0  0.29583944722E+02 -0.57839946960E+02 -0.11653334555E+04  0.11671429783E+04  0.00000000000E+00 0. -1.
          1    1    1    2  502    0 -0.33922383685E+02  0.10402565085E+02  0.24248042478E+03  0.24506264072E+03  0.00000000000E+00 0. -1.
         22    1    3    3    0    0 -0.45803456457E+01 -0.35396063780E+02 -0.11718581435E+03  0.12250051421E+03  0.00000000000E+00 0.  1.
         22    1    3    3    0    0  0.89187846091E+01  0.82833445655E+02 -0.78017124035E+02  0.11413849517E+03  0.00000000000E+00 0.  1.
</event>
<event>
 7    1  0.6597701E-006  0.2687381E+03  0.7818608E-02  0.1122237E+00
          2   -1    0    0  502    0  0.00000000000E+00  0.00000000000E+00  0.11862883900E+04  0.11862883900E+04  0.00000000000E+00 0. -1.
          1   -1    0    0  501    0 -0.00000000000E+00 -0.00000000000E+00 -0.38509447049E+03  0.38509447049E+03  0.00000000000E+00 0. -1.
         25    2    1    2    0    0 -0.13148759551E+03  0.13899501764E+03  0.23766584749E+03  0.32970540943E+03  0.12494798616E+03 0.  0.
          2    1    1    2  501    0 -0.16629819506E+01 -0.29865577726E+03 -0.25774461895E+03  0.39450009810E+03  0.00000000000E+00 0. -1.
          1    1    1    2  502    0  0.13315057746E+03  0.15966075963E+03  0.82127269101E+03  0.84717735301E+03  0.00000000000E+00 0. -1.
         22    1    3    3    0    0 -0.14217317423E+03  0.12464512767E+03  0.24575297356E+03  0.31007119076E+03  0.00000000000E+00 0. -1.
         22    1    3    3    0    0  0.10685578724E+02  0.14349889968E+02 -0.80871260750E+01  0.19634218673E+02  0.00000000000E+00 0. -1.
</event>
<event>
 7    1  0.6597701E-006  0.1255077E+03  0.7818608E-02  0.1234817E+00
          2   -1    0    0  502    0  0.00000000000E+00  0.00000000000E+00  0.14004847474E+04  0.14004847474E+04  0.00000000000E+00 0. -1.
          1   -1    0    0  501    0 -0.00000000000E+00 -0.00000000000E+00 -0.21359072568E+03  0.21359072568E+03  0.00000000000E+00 0. -1.
         25    2    1    2    0    0  0.12174774237E+03  0.14404878978E+02  0.10902077663E+03  0.20625326144E+03  0.12499945923E+03 0.  0.
          2    1    1    2  501    0 -0.83582013746E+02  0.10515916494E+03 -0.13384093310E+03  0.18962541593E+03  0.00000000000E+00 0. -1.
          1    1    1    2  502    0 -0.38165728624E+02 -0.11956404392E+03  0.12117141782E+04  0.12181967957E+04  0.00000000000E+00 0. -1.
         22    1    3    3    0    0 -0.21737644143E+01  0.82823467145E+01  0.77857308745E+02  0.78326770927E+02  0.00000000000E+00 0.  1.
         22    1    3    3    0    0  0.12392150678E+03  0.61225322631E+01  0.31163467885E+02  0.12792649052E+03  0.00000000000E+00 0.  1.
</event>
<event>
 7    1  0.6597701E-006  0.1157159E+03  0.7818608E-02  0.1407045E+00
          2   -1    0    0  502    0  0.00000000000E+00  0.00000000000E+00  0.13412339432E+03  0.13412339432E+03  0.00000000000E+00 0. -1.
          1   -1    0    0  501    0 -0.00000000000E+00 -0.00000000000E+00 -0.58922018338E+03  0.58922018338E+03  0.00000000000E+00 0. -1.
         25    2    1    2    0    0  0.20982498632E+02 -0.11617059551E+03 -0.35771294379E+03  0.39688648426E+03  0.12499783486E+03 0.  0.
          2    1    1    2  501    0 -0.47710519070E+02  0.10510103241E+03 -0.19392449483E+03  0.22567505475E+03  0.00000000000E+00 0. -1.
          1    1    1    2  502    0  0.26728020438E+02  0.11069563103E+02  0.96540649561E+02  0.10078203868E+03  0.00000000000E+00 0. -1.
         22    1    3    3    0    0 -0.31778208345E+01 -0.13879492445E+03 -0.28914692702E+03  0.32074924007E+03  0.00000000000E+00 0. -1.
         22    1    3    3    0    0  0.24160319467E+02  0.22624328941E+02 -0.68566016769E+02  0.76137244187E+02  0.00000000000E+00 0. -1.
</event>
<event>
 7    1  0.6597701E-006  0.7788020E+02  0.7818608E-02  0.1354358E+00
          2   -1    0    0  502    0  0.00000000000E+00  0.00000000000E+00  0.72333016963E+03  0.72333016963E+03  0.00000000000E+00 0. -1.
          1   -1    0    0  501    0 -0.00000000000E+00 -0.00000000000E+00 -0.84976921063E+03  0.84976921063E+03  0.00000000000E+00 0. -1.
         25    2    1    2    0    0  0.10109598116E+03  0.30873707395E+02 -0.60233801905E+03  0.62418709187E+03  0.12499941297E+03 0.  0.
          2    1    1    2  501    0 -0.40795460597E+02 -0.57794967183E+02 -0.22964002151E+03  0.24028954891E+03  0.00000000000E+00 0. -1.
          1    1    1    2  502    0 -0.60300520566E+02  0.26921259789E+02  0.70553899956E+03  0.70862273948E+03  0.00000000000E+00 0. -1.
         22    1    3    3    0    0 -0.30484903414E+01 -0.37873654803E+02 -0.17036078635E+03  0.17454656842E+03  0.00000000000E+00 0.  1.
         22    1    3    3    0    0  0.10414447150E+03  0.68747362197E+02 -0.43197723270E+03  0.44964052345E+03  0.00000000000E+00 0.  1.
</event>
<event>
 7    1  0.6597701E-006  0.3345531E+02  0.7818608E-02  0.1568395E+00
          2   -1    0    0  502    0  0.00000000000E+00  0.00000000000E+00  0.15282345551E+03  0.15282345551E+03  0.00000000000E+00 0. -1.
          1   -1    0    0  501    0 -0.00000000000E+00 -0.00000000000E+00 -0.34825184170E+03  0.34825184170E+03  0.00000000000E+00 0. -1.
         25    2    1    2    0    0  0.57178853656E+02 -0.31987300689E+02  0.10192449412E+03  0.17408166775E+03  0.12499286314E+03 0.  0.
          2    1    1    2  501    0 -0.29267127788E+02  0.15751568391E+02 -0.29245074763E+03  0.29433334243E+03  0.00000000000E+00 0. -1.
          1    1    1    2  502    0 -0.27911725868E+02  0.16235732299E+02 -0.49021326735E+01  0.32660287031E+02  0.00000000000E+00 0. -1.
         22    1    3    3    0    0  0.63873441598E+02  0.35581267193E+02  0.56258598857E+02  0.92254393185E+02  0.00000000000E+00 0.  1.
         22    1    3    3    0    0 -0.66945879420E+01 -0.67568567882E+02  0.45665895259E+02  0.81827274567E+02  0.00000000000E+00 0.  1.
</event>
<event>
 7    1  0.6597701E-006  0.2362164E+02  0.7818608E-02  0.1710285E+00
          2   -1    0    0  502    0  0.00000000000E+00  0.00000000000E+00  0.37316594510E+02  0.37316594510E+02  0.00000000000E+00 0. -1.
          1   -1    0    0  501    0 -0.00000000000E+00 -0.00000000000E+00 -0.62412943711E+03  0.62412943711E+03  0.00000000000E+00 0. -1.
         25    2    1    2    0    0 -0.41365126614E+02 -0.10214522521E+02 -0.30382908828E+03  0.33128903274E+03  0.12499959265E+03 0.  0.
          2    1    1    2  501    0  0.22970447891E+02  0.16941626034E+01 -0.30169293131E+03  0.30257087841E+03  0.00000000000E+00 0. -1.
          1    1    1    2  502    0  0.18394678723E+02  0.85203599176E+01  0.18709176988E+02  0.27586120460E+02  0.00000000000E+00 0. -1.
         22    1    3    3    0    0 -0.18429093621E+02 -0.61510960401E+02 -0.22825165153E+03  0.23711188533E+03  0.00000000000E+00 0. -1.
         22    1    3    3    0    0 -0.22936032993E+02  0.51296437880E+02 -0.75577436754E+02  0.94177147414E+02  0.00000000000E+00 0. -1.
</event>
<event>
 7    1  0.6597701E-006  0.4256484E+02  0.7818608E-02  0.1510696E+00
          2   -1    0    0  502    0  0.00000000000E+00  0.00000000000E+00  0.14600238811E+04  0.14600238811E+04  0.00000000000E+00 0. -1.
          1   -1    0    0  501    0 -0.00000000000E+00 -0.00000000000E+00 -0.14455059974E+02  0.14455059974E+02  0.00000000000E+00 0. -1.
         25    2    1    2    0    0  0.42873188811E+02  0.11543256128E+02  0.66042049424E+03  0.67361032583E+03  0.12499713905E+03 0.  0.
          2    1    1    2  501    0 -0.67771353870E+01 -0.36334979841E+02  0.40105409815E+02  0.54539932349E+02  0.00000000000E+00 0. -1.
          1    1    1    2  502    0 -0.36096053424E+02  0.24791723713E+02  0.74504291705E+03  0.74632868288E+03  0.00000000000E+00 0. -1.
         22    1    3    3    0    0 -0.10335142521E+02  0.57135103109E+02  0.38812100900E+03  0.39243999899E+03  0.00000000000E+00 0.  1.
         22    1    3    3    0    0  0.53208331332E+02 -0.45591846981E+02  0.27229948523E+03  0.28117032683E+03  0.00000000000E+00 0.  1.
</event>
<event>
 7    1  0.6597701E-006  0.3988527E+02  0.7818608E-02  0.1561152E+00
          2   -1    0    0  502    0  0.00000000000E+00  0.00000000000E+00  0.65114422023E+03  0.65114422023E+03  0.00000000000E+00 0. -1.
          1   -1    0    0  501    0 -0.00000000000E+00 -0.00000000000E+00 -0.76426252373E+03  0.76426252373E+03  0.00000000000E+00 0. -1.
         25    2    1    2    0    0  0.60036958974E+02 -0.24930523836E+02  0.18463370879E+03  0.23225344539E+03  0.12500435598E+03 0.  0.
          2    1    1    2  501    0 -0.21550778177E+02  0.18418088322E+02 -0.73932007015E+03  0.73986338479E+03  0.00000000000E+00 0. -1.
          1    1    1    2  502    0 -0.38486180798E+02  0.65124355142E+01  0.44156805787E+03  0.44328991378E+03  0.00000000000E+00 0. -1.
         22    1    3    3    0    0  0.42403653628E+02 -0.14930796480E+02  0.20114569840E+03  0.20610820098E+03  0.00000000000E+00 0.  1.
         22    1    3    3    0    0  0.17633305346E+02 -0.99997273561E+01 -0.16511989612E+02  0.26145244416E+02  0.00000000000E+00 0.  1.
</event>
<event>
 7    1  0.6597701E-006  0.6487910E+02  0.7818608E-02  0.1392065E+00
          2   -1    0    0  502    0  0.00000000000E+00  0.00000000000E+00  0.34535079977E+03  0.34535079977E+03  0.00000000000E+00 0. -1.
          1   -1    0    0  501    0 -0.00000000000E+00 -0.00000000000E+00 -0.43733493357E+03  0.43733493357E+03  0.00000000000E+00 0. -1.
         25    2    1    2    0    0 -0.73265098489E+02 -0.26699701372E+02 -0.12626463248E+03  0.19403219408E+03  0.12500034485E+03 0.  0.
          2    1    1    2  501    0  0.47690895225E+02 -0.33183693706E+02 -0.27066647160E+03  0.27683193071E+03  0.00000000000E+00 0. -1.
          1    1    1    2  502    0  0.25574203265E+02  0.59883395078E+02  0.30494697027E+03  0.31182160855E+03  0.00000000000E+00 0. -1.
         22    1    3    3    0    0  0.24086905097E+02 -0.41654852791E+01 -0.80491474910E+02  0.84121387280E+02  0.00000000000E+00 0. -1.
         22    1    3    3    0    0 -0.97352003586E+02 -0.22534216093E+02 -0.45773157571E+02  0.10991080680E+03  0.00000000000E+00 0. -1.
</event>
<event>
 7    1  0.6597701E-006  0.1027688E+03  0.7818608E-02  0.1369143E+00
          2   -1    0    0  502    0  0.00000000000E+00  0.00000000000E+00  0.72894288675E+03  0.72894288675E+03  0.00000000000E+00 0. -1.
          1   -1    0    0  501    0 -0.00000000000E+00 -0.00000000000E+00 -0.58738582587E+03  0.58738582587E+03  0.00000000000E+00 0. -1.
         25    2    1    2    0    0  0.70870060153E+02 -0.64100957054E+02 -0.27284861939E+02  0.15968825321E+03  0.12499750558E+03 0.  0.
          2    1    1    2  501    0 -0.40231326703E+02  0.95974636719E+02 -0.48766577405E+03  0.49864576377E+03  0.00000000000E+00 0. -1.
          1    1    1    2  502    0 -0.30638733450E+02 -0.31873679666E+02  0.65650769687E+03  0.65799469565E+03  0.00000000000E+00 0. -1.
         22    1    3    3    0    0  0.52573493457E+02  0.25767451958E+02  0.12252462893E+02  0.59816859175E+02  0.00000000000E+00 0. -1.
         22    1    3    3    0    0  0.18296566697E+02 -0.89868409012E+02 -0.39537324832E+02  0.99871394033E+02  0.00000000000E+00 0. -1.
</event>
<event>
 7    1  0.6597701E-006  0.8739807E+02  0.7818608E-02  0.1312962E+00
          2   -1    0    0  502    0  0.00000000000E+00  0.00000000000E+00  0.15961119259E+04  0.15961119259E+04  0.00000000000E+00 0. -1.
          1   -1    0    0  501    0 -0.00000000000E+00 -0.00000000000E+00 -0.13369399814E+03  0.13369399814E+03  0.00000000000E+00 0. -1.
         25    2    1    2    0    0  0.64118444371E+02 -0.44177229535E+02  0.62499897749E+02  0.15998062446E+03  0.12499904186E+03 0.  0.
          2    1    1    2  501    0  0.15637927083E+02  0.83070769256E+02 -0.62243299012E+02  0.10497392886E+03  0.00000000000E+00 0. -1.
          1    1    1    2  502    0 -0.79756371454E+02 -0.38893539721E+02  0.14621613290E+04  0.14648513707E+04  0.00000000000E+00 0. -1.
         22    1    3    3    0    0  0.52532548138E+02 -0.79251168357E+02  0.97444424322E+01  0.95579131918E+02  0.00000000000E+00 0. -1.
         22    1    3    3    0    0  0.11585896233E+02  0.35073938822E+02  0.52755455317E+02  0.64401492543E+02  0.00000000000E+00 0. -1.
</event>
<event>
 7    1  0.6597701E-006  0.8889569E+02  0.7818608E-02  0.1422688E+00
          2   -1    0    0  502    0  0.00000000000E+00  0.00000000000E+00  0.91692292166E+03  0.91692292166E+03  0.00000000000E+00 0. -1.
          1   -1    0    0  501    0 -0.00000000000E+00 -0.00000000000E+00 -0.52595740417E+03  0.52595740417E+03  0.00000000000E+00 0. -1.
         25    2    1    2    0    0  0.48426461662E+02  0.53829056833E+02  0.63898095051E+03  0.65510710147E+03  0.12500387888E+03 0.  0.
          2    1    1    2  501    0 -0.32218812761E+02 -0.82986161229E+02 -0.51301541163E+03  0.52068182936E+03  0.00000000000E+00 0. -1.
          1    1    1    2  502    0 -0.16207648901E+02  0.29157104396E+02  0.26499997862E+03  0.26709139501E+03  0.00000000000E+00 0. -1.
         22    1    3    3    0    0 -0.17311493597E+01 -0.37413691736E+02  0.23278872432E+03  0.23578246622E+03  0.00000000000E+00 0.  1.
         22    1    3    3    0    0  0.50157611022E+02  0.91242748569E+02  0.40619222619E+03  0.41932463525E+03  0.00000000000E+00 0.  1.
</event>
<event>
 7    1  0.6597701E-006  0.8990220E+02  0.7818608E-02  0.1488532E+00
          2   -1    0    0  502    0  0.00000000000E+00  0.00000000000E+00  0.46414825228E+03  0.46414825228E+03  0.00000000000E+00 0. -1.
          1   -1    0    0  501    0 -0.00000000000E+00 -0.00000000000E+00 -0.14996593327E+04  0.14996593327E+04  0.00000000000E+00 0. -1.
         25    2    1    2    0    0 -0.49659077921E+02 -0.51368406087E+02 -0.65794179097E+03  0.67351153120E+03  0.12500258077E+03 0.  0.
          2    1    1    2  501    0 -0.19322161951E+02 -0.64814938894E+01 -0.82936626469E+03  0.82961663237E+03  0.00000000000E+00 0. -1.
          1    1    1    2  502    0  0.68981239872E+02  0.57849899976E+02  0.45179697529E+03  0.46067942136E+03  0.00000000000E+00 0. -1.
         22    1    3    3    0    0 -0.77715896575E+01  0.14362343033E+00 -0.52361308476E+03  0.52367077517E+03  0.00000000000E+00 0.  1.
         22    1    3    3    0    0 -0.41887488263E+02 -0.51512029517E+02 -0.13432870621E+03  0.14984075604E+03  0.00000000000E+00 0.  1.
</event>
<event>
 7    1  0.6597701E-006  0.5748955E+02  0.7818608E-02  0.1423441E+00
          2   -1    0    0  502    0  0.00000000000E+00  0.00000000000E+00  0.10159646508E+04  0.10159646508E+04  0.00000000000E+00 0. -1.
          1   -1    0    0  501    0 -0.00000000000E+00 -0.00000000000E+00 -0.10159796206E+04  0.10159796206E+04  0.00000000000E+00 0. -1.
         25    2    1    2    0    0  0.35453084739E+02  0.68394680078E+02 -0.26370725559E+02  0.14918370415E+03  0.12500243573E+03 0.  0.
          2    1    1    2  501    0 -0.53716559187E+02 -0.20470522433E+02 -0.92662219742E+03  0.92840358022E+03  0.00000000000E+00 0. -1.
          1    1    1    2  502    0  0.18263474449E+02 -0.47924157645E+02  0.95297795319E+03  0.95435698701E+03  0.00000000000E+00 0. -1.
         22    1    3    3    0    0  0.16480802304E+01  0.65838872729E+02  0.38285187100E+02  0.76178926758E+02  0.00000000000E+00 0. -1.
         22    1    3    3    0    0  0.33805004508E+02  0.25558073491E+01 -0.64655912659E+02  0.73004777397E+02  0.00000000000E+00 0. -1.
</event>
<event>
 7    1  0.6597701E-006  0.1118295E+03  0.7818608E-02  0.1315612E+00
          2   -1    0    0  502    0  0.00000000000E+00  0.00000000000E+00  0.14150573739E+04  0.14150573739E+04  0.00000000000E+00 0. -1.
          1   -1    0    0  501    0 -0.00000000000E+00 -0.00000000000E+00 -0.25397615443E+03  0.25397615443E+03  0.00000000000E+00 0. -1.
         25    2    1    2    0    0  0.14691617962E+03 -0.68122429214E+02  0.20594599586E+03  0.29027813910E+03  0.12499046218E+03 0.  0.
          2    1    1    2  501    0 -0.39083321118E+02  0.51313779112E+02 -0.20427661711E+03  0.21421845442E+03  0.00000000000E+00 0. -1.
          1    1    1    2  502    0 -0.10783285850E+03  0.16808650102E+02  0.11594118407E+04  0.11645369348E+04  0.00000000000E+00 0. -1.
         22    1    3    3    0    0 -0.16483885924E+01  0.45777213848E+01 -0.14149338932E+02  0.14962503475E+02  0.00000000000E+00 0.  1.
         22    1    3    3    0    0  0.14856456821E+03 -0.72700150599E+02  0.22009533479E+03  0.27531563562E+03  0.00000000000E+00 0.  1.
</event>
<event>
 7    1  0.6597701E-006  0.8439227E+02  0.7818608E-02  0.1464143E+00
          2   -1    0    0  502    0  0.00000000000E+00  0.00000000000E+00  0.24929943863E+04  0.24929943863E+04  0.00000000000E+00 0. -1.
          1   -1    0    0  501    0 -0.00000000000E+00 -0.00000000000E+00 -0.17752994367E+02  0.17752994367E+02  0.00000000000E+00 0. -1.
         25    2    1    2    0    0  0.24145214597E+02  0.59488270573E+02  0.10767054964E+04  0.10858371920E+04  0.12500334301E+03 0.  0.
          2    1    1    2  501    0 -0.45004065672E+02 -0.74698609950E+02  0.13257690934E+03  0.15868801198E+03  0.00000000000E+00 0. -1.
          1    1    1    2  502    0  0.20858851075E+02  0.15210339377E+02  0.12659589861E+04  0.12662221767E+04  0.00000000000E+00 0. -1.
         22    1    3    3    0    0 -0.55218460011E+01  0.33562839061E+02  0.64973280284E+02  0.73338135372E+02  0.00000000000E+00 0.  1.
         22    1    3    3    0    0  0.29667060598E+02  0.25925431512E+02  0.10117322161E+04  0.10124990566E+04  0.00000000000E+00 0.  1.
</event>
<event>
 7    1  0.6597701E-006  0.7963718E+02  0.7818608E-02  0.1343877E+00
          2   -1    0    0  502    0  0.00000000000E+00  0.00000000000E+00  0.24691629877E+04  0.24691629877E+04  0.00000000000E+00 0. -1.
          1   -1    0    0  501    0 -0.00000000000E+00 -0.00000000000E+00 -0.19574526905E+03  0.19574526905E+03  0.00000000000E+00 0. -1.
         25    2    1    2    0    0  0.63216193169E+02  0.88886545148E+02  0.97266922644E+03  0.98671574320E+03  0.12500171526E+03 0.  0.
          2    1    1    2  501    0 -0.77142508653E+02 -0.19643630263E+02 -0.17944791352E+03  0.19631197752E+03  0.00000000000E+00 0. -1.
          1    1    1    2  502    0  0.13926315484E+02 -0.69242914885E+02  0.14801964057E+04  0.14818805360E+04  0.00000000000E+00 0. -1.
         22    1    3    3    0    0  0.46594327363E+02  0.96210208478E+02  0.40853988475E+03  0.42229405986E+03  0.00000000000E+00 0.  1.
         22    1    3    3    0    0  0.16621865806E+02 -0.73236633304E+01  0.56412934169E+03  0.56442168334E+03  0.00000000000E+00 0.  1.
</event>
<event>
 7    1  0.6597701E-006  0.1460271E+03  0.7818608E-02  0.1235864E+00
          2   -1    0    0  502    0  0.00000000000E+00  0.00000000000E+00  0.88234982552E+03  0.88234982552E+03  0.00000000000E+00 0. -1.
          1   -1    0    0  501    0 -0.00000000000E+00 -0.00000000000E+00 -0.34282534052E+03  0.34282534052E+03  0.00000000000E+00 0. -1.
         25    2    1    2    0    0 -0.22831756799E+03  0.57821076718E+02  0.23617707734E+03  0.35619792594E+03  0.12500064726E+03 0.  0.
          2    1    1    2  501    0  0.10612864134E+03 -0.10927754576E+01 -0.26469419195E+03  0.28517976422E+03  0.00000000000E+00 0. -1.
          1    1    1    2  502    0  0.12218892665E+03 -0.56728301261E+02  0.56804159961E+03  0.58379747588E+03  0.00000000000E+00 0. -1.
         22    1    3    3    0    0 -0.88661988792E+02  0.61584851190E+02  0.39499892528E+02  0.11495165794E+03  0.00000000000E+00 0. -1.
         22    1    3    3    0    0 -0.13965557920E+03 -0.37637744716E+01  0.19667718481E+03  0.24124626800E+03  0.00000000000E+00 0. -1.
</event>
<event>
 7    1  0.6597701E-006  0.5326577E+02  0.7818608E-02  0.1533156E+00
          2   -1    0    0  502    0  0.00000000000E+00  0.00000000000E+00  0.22956919036E+04  0.22956919036E+04  0.00000000000E+00 0. -1.
          1   -1    0    0  501    0 -0.00000000000E+00 -0.00000000000E+00 -0.45338687535E+02  0.45338687535E+02  0.00000000000E+00 0. -1.
         25    2    1    2    0    0  0.51997853160E+01 -0.35831744297E+02  0.67531066863E+03  0.68773563772E+03  0.12499942627E+03 0.  0.
          2    1    1    2  501    0  0.14589072790E+02  0.51798472641E+02 -0.20473143226E+02  0.57576665468E+02  0.00000000000E+00 0. -1.
          1    1    1    2  502    0 -0.19788858106E+02 -0.15966728344E+02  0.15955156907E+04  0.15957182880E+04  0.00000000000E+00 0. -1.
         22    1    3    3    0    0  0.56271559950E-01  0.46590200225E+02  0.28513401286E+03  0.28891530803E+03  0.00000000000E+00 0.  1.
         22    1    3    3    0    0  0.51435137561E+01 -0.82421944522E+02  0.39017665577E+03  0.39882032970E+03  0.00000000000E+00 0.  1.
</event>
<event>
 7    1  0.6597701E-006  0.6662592E+02  0.7818608E-02  0.1389472E+00
          2   -1    0    0  502    0  0.00000000000E+00  0.00000000000E+00  0.12442273772E+04  0.12442273772E+04  0.00000000000E+00 0. -1.
          1   -1    0    0  501    0 -0.00000000000E+00 -0.00000000000E+00 -0.46542732769E+02  0.46542732769E+02  0.00000000000E+00 0. -1.
         25    2    1    2    0    0  0.26039331699E+02 -0.23665005127E+01  0.59571067618E+03  0.60924585422E+03  0.12500261618E+03 0.  0.
          2    1    1    2  501    0  0.55472926183E+02 -0.16116280212E+02 -0.14379588241E+02  0.59529426213E+02  0.00000000000E+00 0. -1.
          1    1    1    2  502    0 -0.81512257882E+02  0.18482780725E+02  0.61635355654E+03  0.62199482958E+03  0.00000000000E+00 0. -1.
         22    1    3    3    0    0  0.36432864211E+02  0.19495230903E+02  0.57744368498E+03  0.57892022502E+03  0.00000000000E+00 0.  1.
         22    1    3    3    0    0 -0.10393532512E+02 -0.21861731415E+02  0.18266991201E+02  0.30325629196E+02  0.00000000000E+00 0.  1.
</event>
<event>
 7    1  0.6597701E-006  0.1186900E+03  0.7818608E-02  0.1362967E+00
          2   -1    0    0  502    0  0.00000000000E+00  0.00000000000E+00  0.53175217446E+02  0.53175217446E+02  0.00000000000E+00 0. -1.
          1   -1    0    0  501    0 -0.00000000000E+00 -0.00000000000E+00 -0.17523250171E+04  0.17523250171E+04  0.00000000000E+00 0. -1.
         25    2    1    2    0    0 -0.26347254803E+02 -0.14711231618E+03 -0.29050175321E+03  0.34978816314E+03  0.12499711615E+03 0.  0.
          2    1    1    2  501    0  0.28778447329E+00  0.11636992046E+03 -0.14105728299E+04  0.14153648821E+04  0.00000000000E+00 0. -1.
          1    1    1    2  502    0  0.26059470329E+02  0.30742395720E+02  0.19247834590E+01  0.40347189243E+02  0.00000000000E+00 0. -1.
         22    1    3    3    0    0  0.24239652155E+02 -0.14183259199E+03 -0.21908132203E+03  0.26210812760E+03  0.00000000000E+00 0. -1.
         22    1    3    3    0    0 -0.50586906957E+02 -0.52797241879E+01 -0.71420431175E+02  0.87680035540E+02  0.00000000000E+00 0. -1.
</event>
<event>
 7    1  0.7913536E-006  0.7910963E+02  0.7818608E-02  0.1437076E+00
          2   -1    0    0  502    0  0.00000000000E+00  0.00000000000E+00  0.21618294484E+04  0.21618294484E+04  0.00000000000E+00 0. -1.
          1   -1    0    0  501    0 -0.00000000000E+00 -0.00000000000E+00 -0.10472420408E+04  0.10472420408E+04  0.00000000000E+00 0. -1.
         25    2    1    2    0    0  0.12992011559E+02 -0.46249786229E+02 -0.60935997706E+02  0.14712744286E+03  0.12500181413E+03 0.  0.
          2    1    1    2  501    0 -0.10055119915E+02  0.79732908500E+02 -0.94136484177E+03  0.94478897509E+03  0.00000000000E+00 0. -1.
          1    1    1    2  502    0 -0.29368916437E+01 -0.33483122271E+02  0.21168882471E+04  0.21171550712E+04  0.00000000000E+00 0. -1.
         22    1    3    3    0    0 -0.14697116382E+02  0.95977500024E+01  0.31251178747E+02  0.35843523936E+02  0.00000000000E+00 0. -1.
         22    1    3    3    0    0  0.27689127941E+02 -0.55847536232E+02 -0.92187176453E+02  0.11128391893E+03  0.00000000000E+00 0. -1.
</event>
<event>
 7    1  0.6597701E-006  0.1752590E+03  0.7818608E-02  0.1208424E+00
          2   -1    0    0  502    0  0.00000000000E+00  0.00000000000E+00  0.93055504614E+03  0.93055504614E+03  0.00000000000E+00 0. -1.
          1   -1    0    0  501    0 -0.00000000000E+00 -0.00000000000E+00 -0.29534289507E+03  0.29534289507E+03  0.00000000000E+00 0. -1.
         25    2    1    2    0    0 -0.11149850267E+03  0.79923335695E+02 -0.47446241983E+01  0.18565236646E+03  0.12499853610E+03 0.  0.
          2    1    1    2  501    0  0.77818589112E+02 -0.19284530745E+03 -0.14048342321E+03  0.25095943420E+03  0.00000000000E+00 0. -1.
          1    1    1    2  502    0  0.33679913558E+02  0.11292197176E+03  0.78044019847E+03  0.78928614055E+03  0.00000000000E+00 0. -1.
         22    1    3    3    0    0 -0.39348388919E+02  0.13047791093E+02 -0.59917464226E+02  0.72860435644E+02  0.00000000000E+00 0. -1.
         22    1    3    3    0    0 -0.72150113750E+02  0.66875544602E+02  0.55172840028E+02  0.11279193081E+03  0.00000000000E+00 0. -1.
</event>
<event>
 7    1  0.6597701E-006  0.2757537E+02  0.7818608E-02  0.1646624E+00
          2   -1    0    0  502    0  0.00000000000E+00  0.00000000000E+00  0.26348029284E+03  0.26348029284E+03  0.00000000000E+00 0. -1.
          1   -1    0    0  501    0 -0.00000000000E+00 -0.00000000000E+00 -0.30990497492E+03  0.30990497492E+03  0.00000000000E+00 0. -1.
         25    2    1    2    0    0 -0.26070347445E+02 -0.38965483208E+02  0.94573399032E+02  0.16360754838E+03  0.12500132073E+03 0.  0.
          2    1    1    2  501    0  0.34302292242E+01  0.24331997299E+02 -0.27347959677E+03  0.27458132204E+03  0.00000000000E+00 0. -1.
          1    1    1    2  502    0  0.22640118221E+02  0.14633485909E+02  0.13248151566E+03  0.13519639734E+03  0.00000000000E+00 0. -1.
         22    1    3    3    0    0 -0.62037012827E+02 -0.20995939497E+02  0.53115396565E+01  0.65708697213E+02  0.00000000000E+00 0.  1.
         22    1    3    3    0    0  0.35966665382E+02 -0.17969543711E+02  0.89261859375E+02  0.97898851163E+02  0.00000000000E+00 0.  1.
</event>
<event>
 7    1  0.6597701E-006  0.2721818E+02  0.7818608E-02  0.1672045E+00
          2   -1    0    0  502    0  0.00000000000E+00  0.00000000000E+00  0.19991566157E+04  0.19991566157E+04  0.00000000000E+00 0. -1.
          1   -1    0    0  501    0 -0.00000000000E+00 -0.00000000000E+00 -0.51498930562E+03  0.51498930562E+03  0.00000000000E+00 0. -1.
         25    2    1    2    0    0 -0.17413265145E+01 -0.21993961735E+02  0.10889325693E+03  0.16723999243E+03  0.12499882836E+03 0.  0.
          2    1    1    2  501    0  0.21380594700E+02  0.30839101440E+01 -0.48547589717E+03  0.48595626044E+03  0.00000000000E+00 0. -1.
          1    1    1    2  502    0 -0.19639268186E+02  0.18910051591E+02  0.18607499503E+04  0.18609496685E+04  0.00000000000E+00 0. -1.
         22    1    3    3    0    0 -0.53595731777E+02  0.89670963254E+01  0.87823867526E+02  0.10327605235E+03  0.00000000000E+00 0.  1.
         22    1    3    3    0    0  0.51854405262E+02 -0.30961058060E+02  0.21069389408E+02  0.63963940086E+02  0.00000000000E+00 0.  1.
</event>
<event>
 7    1  0.6597701E-006  0.2967919E+02  0.7818608E-02  0.1648444E+00
          2   -1    0    0  502    0  0.00000000000E+00  0.00000000000E+00  0.65302951105E+03  0.65302951105E+03  0.00000000000E+00 0. -1.
          1   -1    0    0  501    0 -0.00000000000E+00 -0.00000000000E+00 -0.51938381387E+03  0.51938381387E+03  0.00000000000E+00 0. -1.
         25    2    1    2    0    0  0.30869083680E+02 -0.41306258462E+02  0.12649445655E+03  0.18516135920E+03  0.12499909634E+03 0.  0.
          2    1    1    2  501    0 -0.20815825636E+02  0.21069145519E+02 -0.48934564620E+03  0.49024113347E+03  0.00000000000E+00 0. -1.
          1    1    1    2  502    0 -0.10053258044E+02  0.20237112943E+02  0.49649688683E+03  0.49701083225E+03  0.00000000000E+00 0. -1.
         22    1    3    3    0    0 -0.22369769574E+02 -0.10999872542E+02  0.12112772510E+03  0.12366620224E+03  0.00000000000E+00 0.  1.
         22    1    3    3    0    0  0.53238853253E+02 -0.30306385921E+02  0.53667314478E+01  0.61495156962E+02  0.00000000000E+00 0.  1.
</event>
<event>
 7    1  0.6597701E-006  0.1148394E+03  0.7818608E-02  0.1362377E+00
          2   -1    0    0  502    0  0.00000000000E+00  0.00000000000E+00  0.80453811558E+03  0.80453811558E+03  0.00000000000E+00 0. -1.
          1   -1    0    0  501    0 -0.00000000000E+00 -0.00000000000E+00 -0.46625900775E+03  0.46625900775E+03  0.00000000000E+00 0. -1.
         25    2    1    2    0    0 -0.84767092724E+02 -0.12577578741E+03  0.13024579257E+03  0.23578229621E+03  0.12499726403E+03 0.  0.
          2    1    1    2  501    0  0.50815934281E+02  0.10129185819E+03 -0.40499905910E+03  0.42055503514E+03  0.00000000000E+00 0. -1.
          1    1    1    2  502    0  0.33951158442E+02  0.24483929222E+02  0.61303237436E+03  0.61445979198E+03  0.00000000000E+00 0. -1.
         22    1    3    3    0    0 -0.74079041611E+02 -0.78198238313E+01  0.72761466091E+02  0.10413013492E+03  0.00000000000E+00 0. -1.
         22    1    3    3    0    0 -0.10688051113E+02 -0.11795596358E+03  0.57484326476E+02  0.13165216129E+03  0.00000000000E+00 0. -1.
</event>
<event>
 7    1  0.6597701E-006  0.2900926E+02  0.7818608E-02  0.1642058E+00
          2   -1    0    0  502    0  0.00000000000E+00  0.00000000000E+00  0.15411929351E+03  0.15411929351E+03  0.00000000000E+00 0. -1.
          1   -1    0    0  501    0 -0.00000000000E+00 -0.00000000000E+00 -0.83464259421E+02  0.83464259421E+02  0.00000000000E+00 0. -1.
         25    2    1    2    0    0  0.24665347896E+02  0.13638836198E+02  0.43707198566E+02  0.13538558969E+03  0.12499816578E+03 0.  0.
          2    1    1    2  501    0 -0.18308536580E+02  0.15474905869E+02 -0.29713579553E+02  0.38178161731E+02  0.00000000000E+00 0. -1.
          1    1    1    2  502    0 -0.63568113166E+01 -0.29113742067E+02  0.56661415076E+02  0.64019801513E+02  0.00000000000E+00 0. -1.
         22    1    3    3    0    0  0.38310376165E+02  0.90316345223E+01  0.83908925583E+02  0.92682054016E+02  0.00000000000E+00 0. -1.
         22    1    3    3    0    0 -0.13645028269E+02  0.46072016757E+01 -0.40201727017E+02  0.42703535672E+02  0.00000000000E+00 0. -1.
</event>
<event>
 7    1  0.7849882E-006  0.1071879E+03  0.7818608E-02  0.1296086E+00
          2   -1    0    0  502    0  0.00000000000E+00  0.00000000000E+00  0.21978507123E+04  0.21978507123E+04  0.00000000000E+00 0. -1.
          1   -1    0    0  501    0 -0.00000000000E+00 -0.00000000000E+00 -0.11589504329E+04  0.11589504329E+04  0.00000000000E+00 0. -1.
         25    2    1    2    0    0 -0.78595498183E+02 -0.16298947707E+03 -0.19142687944E+03  0.29156921029E+03  0.12500212898E+03 0.  0.
          2    1    1    2  501    0  0.11924532958E+02  0.79546816337E+02 -0.91435788619E+03  0.91788900991E+03  0.00000000000E+00 0. -1.
          1    1    1    2  502    0  0.66670965225E+02  0.83442660732E+02  0.21446850450E+04  0.21473429250E+04  0.00000000000E+00 0. -1.
         22    1    3    3    0    0 -0.23209133221E+02 -0.85031004545E+02 -0.17302864346E+03  0.19418508454E+03  0.00000000000E+00 0.  1.
         22    1    3    3    0    0 -0.55386364961E+02 -0.77958472524E+02 -0.18398235979E+02  0.97384125755E+02  0.00000000000E+00 0.  1.
</event>
<event>
 7    1  0.6597701E-006  0.5212610E+02  0.7818608E-02  0.1461618E+00
          2   -1    0    0  502    0  0.00000000000E+00  0.00000000000E+00  0.15758718936E+04  0.15758718936E+04  0.00000000000E+00 0. -1.
          1   -1    0    0  501    0 -0.00000000000E+00 -0.00000000000E+00 -0.45056135806E+03  0.45056135806E+03  0.00000000000E+00 0. -1.
         25    2    1    2    0    0 -0.81045507472E+02 -0.47195806448E+02 -0.57405591611E+02  0.16648452528E+03  0.12500350708E+03 0.  0.
          2    1    1    2  501    0  0.33468943079E+02  0.26299760621E+02 -0.33683274839E+03  0.33951163153E+03  0.00000000000E+00 0. -1.
          1    1    1    2  502    0  0.47576564393E+02  0.20896045827E+02  0.15195488755E+04  0.15204370948E+04  0.00000000000E+00 0. -1.
         22    1    3    3    0    0  0.38684576902E+01  0.34692449727E+02 -0.28408933979E+02  0.45006650206E+02  0.00000000000E+00 0. -1.
         22    1    3    3    0    0 -0.84913965162E+02 -0.81888256175E+02 -0.28996657632E+02  0.12147787508E+03  0.00000000000E+00 0. -1.
</event>
<event>
 7    1  0.6597701E-006  0.4699960E+02  0.7818608E-02  0.1492511E+00
          2   -1    0    0  502    0  0.00000000000E+00  0.00000000000E+00  0.87296141399E+03  0.87296141399E+03  0.00000000000E+00 0. -1.
          1   -1    0    0  501    0 -0.00000000000E+00 -0.00000000000E+00 -0.93632201494E+02  0.93632201494E+02  0.00000000000E+00 0. -1.
         25    2    1    2    0    0  0.53900445048E+02  0.30019749188E+01  0.11576360681E+03  0.17871705000E+03  0.12499720585E+03 0.  0.
          2    1    1    2  501    0 -0.32643675430E+02 -0.34402493596E+02 -0.52533827376E+02  0.70773894410E+02  0.00000000000E+00 0. -1.
          1    1    1    2  502    0 -0.21256769618E+02  0.31400518678E+02  0.71609943306E+03  0.71710267107E+03  0.00000000000E+00 0. -1.
         22    1    3    3    0    0 -0.39221332784E+02 -0.13588875542E+02  0.32892961982E+02  0.52961471201E+02  0.00000000000E+00 0.  1.
         22    1    3    3    0    0  0.93121777831E+02  0.16590850461E+02  0.82870644831E+02  0.12575557880E+03  0.00000000000E+00 0.  1.
</event>
<event>
 7    1  0.6597701E-006  0.5205113E+02  0.7818608E-02  0.1527514E+00
          2   -1    0    0  502    0  0.00000000000E+00  0.00000000000E+00  0.86479540913E+03  0.86479540913E+03  0.00000000000E+00 0. -1.
          1   -1    0    0  501    0 -0.00000000000E+00 -0.00000000000E+00 -0.64892678647E+03  0.64892678647E+03  0.00000000000E+00 0. -1.
         25    2    1    2    0    0  0.73606948894E+02 -0.25082278417E+02 -0.48881036631E+03  0.51049378454E+03  0.12498490399E+03 0.  0.
          2    1    1    2  501    0 -0.26920383788E+02  0.21575557875E+01 -0.14725357918E+03  0.14970964796E+03  0.00000000000E+00 0. -1.
          1    1    1    2  502    0 -0.46686565106E+02  0.22924722629E+02  0.85193256815E+03  0.85351876309E+03  0.00000000000E+00 0. -1.
         22    1    3    3    0    0  0.70174600963E+02  0.10407729242E+02 -0.11593864260E+03  0.13592116942E+03  0.00000000000E+00 0. -1.
         22    1    3    3    0    0  0.34323479311E+01 -0.35490007659E+02 -0.37287172371E+03  0.37457261512E+03  0.00000000000E+00 0. -1.
</event>
<event>
 7    1  0.6597701E-006  0.5638885E+02  0.7818608E-02  0.1418294E+00
          2   -1    0    0  502    0  0.00000000000E+00  0.00000000000E+00  0.46479189148E+03  0.46479189148E+03  0.00000000000E+00 0. -1.
          1   -1    0    0  501    0 -0.00000000000E+00 -0.00000000000E+00 -0.36694614680E+03  0.36694614680E+03  0.00000000000E+00 0. -1.
         25    2    1    2    0    0  0.27712132108E+02 -0.62283078084E+02 -0.58659536597E+02  0.15397301765E+03  0.12497841754E+03 0.  0.
          2    1    1    2  501    0  0.26886337206E+02  0.47286807695E+02 -0.25583577704E+03  0.26155470197E+03  0.00000000000E+00 0. -1.
          1    1    1    2  502    0 -0.54598469314E+02  0.14996270389E+02  0.41234105832E+03  0.41621031865E+03  0.00000000000E+00 0. -1.
         22    1    3    3    0    0  0.31976781156E+02 -0.11520609279E+02  0.34099955122E+02  0.48146089255E+02  0.00000000000E+00 0. -1.
         22    1    3    3    0    0 -0.42646490476E+01 -0.50762468805E+02 -0.92759491718E+02  0.10582692840E+03  0.00000000000E+00 0. -1.
</event>
<event>
 7    1  0.6597701E-006  0.8797119E+02  0.7818608E-02  0.1356952E+00
          2   -1    0    0  502    0  0.00000000000E+00  0.00000000000E+00  0.39694088517E+03  0.39694088517E+03  0.00000000000E+00 0. -1.
          1   -1    0    0  501    0 -0.00000000000E+00 -0.00000000000E+00 -0.28787228395E+04  0.28787228395E+04  0.00000000000E+00 0. -1.
         25    2    1    2    0    0 -0.73629691934E+02 -0.84316716560E+02 -0.78791959802E+03  0.80558800502E+03  0.12499640256E+03 0.  0.
          2    1    1    2  501    0  0.82335331160E+02  0.27789761616E+02 -0.20789493402E+04  0.20807647000E+04  0.00000000000E+00 0. -1.
          1    1    1    2  502    0 -0.87056392260E+01  0.56526954944E+02  0.38508698395E+03  0.38931101962E+03  0.00000000000E+00 0. -1.
         22    1    3    3    0    0 -0.99975654987E+01 -0.10671252015E+02 -0.52546077188E+03  0.52566419863E+03  0.00000000000E+00 0.  1.
         22    1    3    3    0    0 -0.63632126435E+02 -0.73645464545E+02 -0.26245882614E+03  0.27992380639E+03  0.00000000000E+00 0.  1.
</event>
<event>
 7    1  0.6597701E-006  0.1070442E+03  0.7818608E-02  0.1309356E+00
          2   -1    0    0  502    0  0.00000000000E+00  0.00000000000E+00  0.62728736530E+02  0.62728736530E+02  0.00000000000E+00 0. -1.
          1   -1    0    0  501    0 -0.00000000000E+00 -0.00000000000E+00 -0.24944272481E+04  0.24944272481E+04  0.00000000000E+00 0. -1.
         25    2    1    2    0    0  0.13612513832E+03  0.87971447226E+02 -0.29722472912E+03  0.36088294700E+03  0.12499973208E+03 0.  0.
          2    1    1    2  501    0 -0.65019735769E+02 -0.82613044914E+02 -0.21211232647E+04  0.21237270035E+04  0.00000000000E+00 0. -1.
          1    1    1    2  502    0 -0.71105402556E+02 -0.53584023115E+01 -0.13350517745E+02  0.72546034158E+02  0.00000000000E+00 0. -1.
         22    1    3    3    0    0  0.11647312116E+03  0.11597462259E+03 -0.20654130543E+03  0.26396100448E+03  0.00000000000E+00 0. -1.
         22    1    3    3    0    0  0.19652017163E+02 -0.28003175360E+02 -0.90683423694E+02  0.96921942519E+02  0.00000000000E+00 0. -1.
</event>
<event>
 7    1  0.6597701E-006  0.1180007E+03  0.7818608E-02  0.1315886E+00
          2   -1    0    0  502    0  0.00000000000E+00  0.00000000000E+00  0.18510985193E+04  0.18510985193E+04  0.00000000000E+00 0. -1.
          1   -1    0    0  501    0 -0.00000000000E+00 -0.00000000000E+00 -0.29008979078E+03  0.29008979078E+03  0.00000000000E+00 0. -1.
         25    2    1    2    0    0 -0.14076027415E+03  0.15033254603E+02  0.44720486403E+03  0.48544564673E+03  0.12500332794E+03 0.  0.
          2    1    1    2  501    0  0.10067778997E+03 -0.60988167797E+02 -0.25747643246E+03  0.28310720104E+03  0.00000000000E+00 0. -1.
          1    1    1    2  502    0  0.40082484181E+02  0.45954913194E+02  0.13712802969E+04  0.13726354623E+04  0.00000000000E+00 0. -1.
         22    1    3    3    0    0 -0.38446082761E+02 -0.45794873329E+02  0.23129523843E+03  0.23889905614E+03  0.00000000000E+00 0. -1.
         22    1    3    3    0    0 -0.10231419139E+03  0.60828127932E+02  0.21590962560E+03  0.24654659060E+03  0.00000000000E+00 0. -1.
</event>
<event>
 7    1  0.6597701E-006  0.1329845E+03  0.7818608E-02  0.1310316E+00
          2   -1    0    0  502    0  0.00000000000E+00  0.00000000000E+00  0.18958995656E+03  0.18958995656E+03  0.00000000000E+00 0. -1.
          1   -1    0    0  501    0 -0.00000000000E+00 -0.00000000000E+00 -0.23727454941E+04  0.23727454941E+04  0.00000000000E+00 0. -1.
         25    2    1    2    0    0 -0.84570357045E+02  0.38978662366E+02  0.12774470587E+02  0.15639521212E+03  0.12499917545E+03 0.  0.
          2    1    1    2  501    0  0.13365239544E+03 -0.10194462737E+02 -0.22911216424E+04  0.22950392742E+04  0.00000000000E+00 0. -1.
          1    1    1    2  502    0 -0.49082038394E+02 -0.28784199628E+02  0.95191634304E+02  0.11090096430E+03  0.00000000000E+00 0. -1.
         22    1    3    3    0    0 -0.59869856079E+02  0.75663940281E+02 -0.23373381309E+02  0.99276112331E+02  0.00000000000E+00 0.  1.
         22    1    3    3    0    0 -0.24700500967E+02 -0.36685277915E+02  0.36147851896E+02  0.57119099786E+02  0.00000000000E+00 0.  1.
</event>
<event>
 7    1  0.6597701E-006  0.8391426E+02  0.7818608E-02  0.1378589E+00
          2   -1    0    0  502    0  0.00000000000E+00  0.00000000000E+00  0.66467433100E+03  0.66467433100E+03  0.00000000000E+00 0. -1.
          1   -1    0    0  501    0 -0.00000000000E+00 -0.00000000000E+00 -0.80759830651E+03  0.80759830651E+03  0.00000000000E+00 0. -1.
         25    2    1    2    0    0  0.43580902193E+02 -0.90642416250E+02 -0.22007940512E+03  0.27235067514E+03  0.12499841211E+03 0.  0.
          2    1    1    2  501    0  0.25522488125E+02  0.43106208863E+02 -0.55750099856E+03  0.55974718047E+03  0.00000000000E+00 0. -1.
          1    1    1    2  502    0 -0.69103390318E+02  0.47536207387E+02  0.63465642817E+03  0.64017478190E+03  0.00000000000E+00 0. -1.
         22    1    3    3    0    0  0.64567815328E+02 -0.22686593477E+01 -0.12588339556E+03  0.14149480156E+03  0.00000000000E+00 0. -1.
         22    1    3    3    0    0 -0.20986913136E+02 -0.88373756902E+02 -0.94196009558E+02  0.13085587357E+03  0.00000000000E+00 0. -1.
</event>
<event>
 7    1  0.6597701E-006  0.4983709E+02  0.7818608E-02  0.1550382E+00
          2   -1    0    0  502    0  0.00000000000E+00  0.00000000000E+00  0.71565732934E+03  0.71565732934E+03  0.00000000000E+00 0. -1.
          1   -1    0    0  501    0 -0.00000000000E+00 -0.00000000000E+00 -0.37137816399E+02  0.37137816399E+02  0.00000000000E+00 0. -1.
         25    2    1    2    0    0  0.97513472412E+01  0.25471283046E+02  0.52904643129E+03  0.54429559576E+03  0.12499477617E+03 0.  0.
          2    1    1    2  501    0 -0.10197956147E+02 -0.49767435723E+02 -0.59857471040E+01  0.51152958237E+02  0.00000000000E+00 0. -1.
          1    1    1    2  502    0  0.44660890550E+00  0.24296152678E+02  0.15545882875E+03  0.15734659174E+03  0.00000000000E+00 0. -1.
         22    1    3    3    0    0  0.38230904876E+02  0.47132692471E+02  0.47868724853E+03  0.48251898894E+03  0.00000000000E+00 0. -1.
         22    1    3    3    0    0 -0.28479557634E+02 -0.21661409426E+02  0.50359182760E+02  0.61776606815E+02  0.00000000000E+00 0. -1.
</event>
<event>
 7    1  0.6597701E-006  0.7699966E+02  0.7818608E-02  0.1448573E+00
          2   -1    0    0  502    0  0.00000000000E+00  0.00000000000E+00  0.18207836092E+04  0.18207836092E+04  0.00000000000E+00 0. -1.
          1   -1    0    0  501    0 -0.00000000000E+00 -0.00000000000E+00 -0.73681551545E+03  0.73681551545E+03  0.00000000000E+00 0. -1.
         25    2    1    2    0    0  0.35697009608E+02  0.55472318488E+02 -0.61111115804E+03  0.62724225000E+03  0.12499815236E+03 0.  0.
          2    1    1    2  501    0  0.28766469668E+02 -0.13319955879E+02 -0.11466907829E+03  0.11897028418E+03  0.00000000000E+00 0. -1.
          1    1    1    2  502    0 -0.64463479276E+02 -0.42152362610E+02  0.18097483301E+04  0.18113865904E+04  0.00000000000E+00 0. -1.
         22    1    3    3    0    0  0.49849246823E+01 -0.26113405183E+02 -0.31981189076E+02  0.41587929248E+02  0.00000000000E+00 0.  1.
         22    1    3    3    0    0  0.30712084925E+02  0.81585723672E+02 -0.57912996897E+03  0.58565432076E+03  0.00000000000E+00 0.  1.
</event>
<event>
 7    1  0.6597701E-006  0.9463033E+02  0.7818608E-02  0.1296599E+00
          2   -1    0    0  502    0  0.00000000000E+00  0.00000000000E+00  0.21108723810E+04  0.21108723810E+04  0.00000000000E+00 0. -1.
          1   -1    0    0  501    0 -0.00000000000E+00 -0.00000000000E+00 -0.43484143695E+04  0.43484143695E+04  0.00000000000E+00 0. -1.
         25    2    1    2    0    0 -0.15085314054E+03 -0.10452753978E+03  0.60873635021E+03  0.64797290870E+03  0.12500507898E+03 0.  0.
          2    1    1    2  501    0  0.84179850224E+02  0.43070613356E+02 -0.43268925150E+04  0.43279256187E+04  0.00000000000E+00 0. -1.
          1    1    1    2  502    0  0.66673290315E+02  0.61456926419E+02  0.14806141763E+04  0.14833882231E+04  0.00000000000E+00 0. -1.
         22    1    3    3    0    0  0.65488166951E+01  0.71177568670E+01  0.31092384848E+00  0.96770933944E+01  0.00000000000E+00 0. -1.
         22    1    3    3    0    0 -0.15740195723E+03 -0.11164529664E+03  0.60842542636E+03  0.63829581531E+03  0.00000000000E+00 0. -1.
</event>
<event>
 7    1  0.6597701E-006  0.6401533E+02  0.7818608E-02  0.1402370E+00
          2   -1    0    0  502    0  0.00000000000E+00  0.00000000000E+00  0.28572969791E+04  0.28572969791E+04  0.00000000000E+00 0. -1.
          1   -1    0    0  501    0 -0.00000000000E+00 -0.00000000000E+00 -0.24264463844E+03  0.24264463844E+03  0.00000000000E+00 0. -1.
         25    2    1    2    0    0  0.46390260441E+02 -0.10124033100E+02  0.18562712218E+04  0.18610809543E+04  0.12499966868E+03 0.  0.
          2    1    1    2  501    0 -0.48808487801E+01  0.63828986457E+02 -0.23479628566E+03  0.24336650952E+03  0.00000000000E+00 0. -1.
          1    1    1    2  502    0 -0.41509411661E+02 -0.53704953357E+02  0.99317740449E+03  0.99549415371E+03  0.00000000000E+00 0. -1.
         22    1    3    3    0    0  0.48330155554E+02 -0.53748896576E+02  0.15530824087E+04  0.15547635563E+04  0.00000000000E+00 0. -1.
         22    1    3    3    0    0 -0.19398951126E+01  0.43624863476E+02  0.30318881312E+03  0.30631739798E+03  0.00000000000E+00 0. -1.
</event>
<event>
 7    1  0.6597701E-006  0.7971300E+02  0.7818608E-02  0.1343329E+00
          2   -1    0    0  502    0  0.00000000000E+00  0.00000000000E+00  0.41825664469E+02  0.41825664469E+02  0.00000000000E+00 0. -1.
          1   -1    0    0  501    0 -0.00000000000E+00 -0.00000000000E+00 -0.87761837331E+03  0.87761837331E+03  0.00000000000E+00 0. -1.
         25    2    1    2    0    0  0.47725158936E+01  0.33697934463E+02 -0.27516848180E+03  0.30414333422E+03  0.12500858642E+03 0.  0.
          2    1    1    2  501    0 -0.47879050880E+02  0.52285906199E+02 -0.49215554766E+03  0.49723566102E+03  0.00000000000E+00 0. -1.
          1    1    1    2  502    0  0.43106534986E+02 -0.85983840661E+02 -0.68468679381E+02  0.11806504254E+03  0.00000000000E+00 0. -1.
         22    1    3    3    0    0  0.40406506110E+02  0.66157734749E+02 -0.13202122636E+03  0.15309845137E+03  0.00000000000E+00 0. -1.
         22    1    3    3    0    0 -0.35633990216E+02 -0.32459800287E+02 -0.14314725544E+03  0.15104488285E+03  0.00000000000E+00 0. -1.
</event>
<event>
 7    1  0.6597701E-006  0.1101396E+03  0.7818608E-02  0.1333739E+00
          2   -1    0    0  502    0  0.00000000000E+00  0.00000000000E+00  0.13406180591E+03  0.13406180591E+03  0.00000000000E+00 0. -1.
          1   -1    0    0  501    0 -0.00000000000E+00 -0.00000000000E+00 -0.31519326412E+03  0.31519326412E+03  0.00000000000E+00 0. -1.
         25    2    1    2    0    0  0.90116737176E+00 -0.90485248692E+02 -0.51916032410E+02  0.16281480816E+03  0.12499998000E+03 0.  0.
          2    1    1    2  501    0  0.52078924692E+02 -0.19939502863E+02 -0.15196041683E+03  0.16186959707E+03  0.00000000000E+00 0. -1.
          1    1    1    2  502    0 -0.52980092064E+02  0.11042475156E+03  0.22744991028E+02  0.12457066480E+03  0.00000000000E+00 0. -1.
         22    1    3    3    0    0  0.22422755706E+02 -0.18346049519E+02 -0.77949516812E+02  0.83159393201E+02  0.00000000000E+00 0. -1.
         22    1    3    3    0    0 -0.21521588334E+02 -0.72139199174E+02  0.26033484402E+02  0.79655414957E+02  0.00000000000E+00 0. -1.
</event>
<event>
 7    1  0.6597701E-006  0.1613018E+03  0.7818608E-02  0.1194000E+00
          2   -1    0    0  502    0  0.00000000000E+00  0.00000000000E+00  0.12356182199E+03  0.12356182199E+03  0.00000000000E+00 0. -1.
          1   -1    0    0  501    0 -0.00000000000E+00 -0.00000000000E+00 -0.70341974159E+03  0.70341974159E+03  0.00000000000E+00 0. -1.
         25    2    1    2    0    0 -0.15785155030E+02  0.52092953629E+02 -0.53708943726E+02  0.14653803093E+03  0.12500358769E+03 0.  0.
          2    1    1    2  501    0 -0.90311539208E+02 -0.17359091535E+03 -0.47090692412E+03  0.50994441971E+03  0.00000000000E+00 0. -1.
          1    1    1    2  502    0  0.10609669424E+03  0.12149796172E+03 -0.55242051755E+02  0.17049911294E+03  0.00000000000E+00 0. -1.
         22    1    3    3    0    0 -0.11152021486E+02 -0.38477886637E+02 -0.36571387484E+02  0.54243725221E+02  0.00000000000E+00 0. -1.
         22    1    3    3    0    0 -0.46331335436E+01  0.90570840266E+02 -0.17137556242E+02  0.92294305712E+02  0.00000000000E+00 0. -1.
</event>
<event>
 7    1  0.6597701E-006  0.6967311E+02  0.7818608E-02  0.1486205E+00
          2   -1    0    0  502    0  0.00000000000E+00  0.00000000000E+00  0.19899527629E+04  0.19899527629E+04  0.00000000000E+00 0. -1.
          1   -1    0    0  501    0 -0.00000000000E+00 -0.00000000000E+00 -0.48136200363E+03  0.48136200363E+03  0.00000000000E+00 0. -1.
         25    2    1    2    0    0  0.13756273534E+02 -0.69609442566E+02 -0.39934892877E+02  0.14917430859E+03  0.12499387633E+03 0.  0.
          2    1    1    2  501    0  0.24269889856E+02  0.11198252216E+02 -0.38571723355E+03  0.38664222825E+03  0.00000000000E+00 0. -1.
          1    1    1    2  502    0 -0.38026163390E+02  0.58411190350E+02  0.19342428857E+04  0.19354982296E+04  0.00000000000E+00 0. -1.
         22    1    3    3    0    0 -0.14094393125E+02 -0.92098919649E+02 -0.57307098421E+02  0.10938448906E+03  0.00000000000E+00 0. -1.
         22    1    3    3    0    0  0.27850666660E+02  0.22489477084E+02  0.17372205543E+02  0.39789819531E+02  0.00000000000E+00 0. -1.
</event>
<event>
 7    1  0.6597701E-006  0.5357630E+02  0.7818608E-02  0.1475839E+00
          2   -1    0    0  502    0  0.00000000000E+00  0.00000000000E+00  0.23606187420E+04  0.23606187420E+04  0.00000000000E+00 0. -1.
          1   -1    0    0  501    0 -0.00000000000E+00 -0.00000000000E+00 -0.17025690967E+03  0.17025690967E+03  0.00000000000E+00 0. -1.
         25    2    1    2    0    0 -0.20935829322E+02 -0.60297530695E+02  0.24622446071E+03  0.28341650882E+03  0.12499732502E+03 0.  0.
          2    1    1    2  501    0  0.43890262665E+02  0.30775188894E+02 -0.14675179552E+03  0.15623558140E+03  0.00000000000E+00 0. -1.
          1    1    1    2  502    0 -0.22954433343E+02  0.29522341801E+02  0.20908891671E+04  0.20912235614E+04  0.00000000000E+00 0. -1.
         22    1    3    3    0    0 -0.63746656618E+02 -0.68742627468E+02  0.19320530300E+03  0.21474979434E+03  0.00000000000E+00 0. -1.
         22    1    3    3    0    0  0.42810827296E+02  0.84450967729E+01  0.53019157712E+02  0.68666714482E+02  0.00000000000E+00 0. -1.
</event>
<event>
 7    1  0.6597701E-006  0.1165462E+03  0.7818608E-02  0.1414210E+00
          2   -1    0    0  502    0  0.00000000000E+00  0.00000000000E+00  0.10498712053E+04  0.10498712053E+04  0.00000000000E+00 0. -1.
          1   -1    0    0  501    0 -0.00000000000E+00 -0.00000000000E+00 -0.40183674674E+03  0.40183674674E+03  0.00000000000E+00 0. -1.
         25    2    1    2    0    0 -0.37443802080E+02  0.81684471916E+02  0.59514228208E+03  0.61473113219E+03  0.12500255078E+03 0.  0.
          2    1    1    2  501    0  0.50992755646E+02 -0.10522709659E+03 -0.38289095334E+03  0.40034795508E+03  0.00000000000E+00 0. -1.
          1    1    1    2  502    0 -0.13548953566E+02  0.23542624675E+02  0.43578312978E+03  0.43662886474E+03  0.00000000000E+00 0. -1.
         22    1    3    3    0    0 -0.35838424033E+02  0.73005961892E+02  0.15985213808E+03  0.17935152399E+03  0.00000000000E+00 0.  1.
         22    1    3    3    0    0 -0.16053780473E+01  0.86785100243E+01  0.43529014400E+03  0.43537960820E+03  0.00000000000E+00 0.  1.
</event>
<event>
 7    1  0.6597701E-006  0.3636498E+03  0.7818608E-02  0.1262589E+00
          2   -1    0    0  502    0  0.00000000000E+00  0.00000000000E+00  0.16369525493E+04  0.16369525493E+04  0.00000000000E+00 0. -1.
          1   -1    0    0  501    0 -0.00000000000E+00 -0.00000000000E+00 -0.44078490547E+03  0.44078490547E+03  0.00000000000E+00 0. -1.
         25    2    1    2    0    0 -0.25863886881E+03  0.27620098745E+03  0.61959759744E+02  0.40329313935E+03  0.12500117794E+03 0.  0.
          2    1    1    2  501    0 -0.79405222467E+01 -0.31640371914E+02 -0.24572391679E+03  0.24787982635E+03  0.00000000000E+00 0. -1.
          1    1    1    2  502    0  0.26657939106E+03 -0.24456061554E+03  0.13799318009E+04  0.14265644891E+04  0.00000000000E+00 0. -1.
         22    1    3    3    0    0 -0.91475154875E+02  0.16922511355E+03 -0.88668772048E+01  0.19257067411E+03  0.00000000000E+00 0.  1.
         22    1    3    3    0    0 -0.16716371394E+03  0.10697587390E+03  0.70826636948E+02  0.21072246524E+03  0.00000000000E+00 0.  1.
</event>
<event>
 7    1  0.6597701E-006  0.8984713E+02  0.7818608E-02  0.1347974E+00
          2   -1    0    0  502    0  0.00000000000E+00  0.00000000000E+00  0.11859425004E+03  0.11859425004E+03  0.00000000000E+00 0. -1.
          1   -1    0    0  501    0 -0.00000000000E+00 -0.00000000000E+00 -0.59694180539E+03  0.59694180539E+03  0.00000000000E+00 0. -1.
         25    2    1    2    0    0  0.32411550071E+02  0.62078144159E+02 -0.75530868309E+01  0.14347953206E+03  0.12500048976E+03 0.  0.
          2    1    1    2  501    0  0.21406873156E+02 -0.89583471589E+02 -0.49751831706E+03  0.50597226051E+03  0.00000000000E+00 0. -1.
          1    1    1    2  502    0 -0.53818423227E+02  0.27505327431E+02  0.26723848540E+02  0.66084262850E+02  0.00000000000E+00 0. -1.
         22    1    3    3    0    0 -0.20897174245E+02 -0.27266550306E+02 -0.18234393831E+02  0.38892798503E+02  0.00000000000E+00 0. -1.
         22    1    3    3    0    0  0.53308724316E+02  0.89344694465E+02  0.10681307000E+02  0.10458673356E+03  0.00000000000E+00 0. -1.
</event>
<event>
 7    1  0.6597701E-006  0.5424029E+02  0.7818608E-02  0.1476075E+00
          2   -1    0    0  502    0  0.00000000000E+00  0.00000000000E+00  0.53078356754E+03  0.53078356754E+03  0.00000000000E+00 0. -1.
          1   -1    0    0  501    0 -0.00000000000E+00 -0.00000000000E+00 -0.31118342606E+03  0.31118342606E+03  0.00000000000E+00 0. -1.
         25    2    1    2    0    0  0.18315826428E+02 -0.12581941883E+02 -0.37658984877E+02  0.13242385800E+03  0.12499641701E+03 0.  0.
          2    1    1    2  501    0  0.66971489283E+01 -0.36263435570E+02 -0.22306583230E+03  0.22609346320E+03  0.00000000000E+00 0. -1.
          1    1    1    2  502    0 -0.25012975357E+02  0.48845377453E+02  0.48032495866E+03  0.48344967240E+03  0.00000000000E+00 0. -1.
         22    1    3    3    0    0 -0.11608690341E+02  0.39160200098E+02 -0.56531396062E+02  0.69742968849E+02  0.00000000000E+00 0.  1.
         22    1    3    3    0    0  0.29924516770E+02 -0.51742141981E+02  0.18872411185E+02  0.62680889150E+02  0.00000000000E+00 0.  1.
</event>
<event>
 7    1  0.6597701E-006  0.4424225E+02  0.7818608E-02  0.1568699E+00
          2   -1    0    0  502    0  0.00000000000E+00  0.00000000000E+00  0.29378478960E+03  0.29378478960E+03  0.00000000000E+00 0. -1.
          1   -1    0    0  501    0 -0.00000000000E+00 -0.00000000000E+00 -0.30345222458E+03  0.30345222458E+03  0.00000000000E+00 0. -1.
         25    2    1    2    0    0 -0.60290154353E+02  0.55568196963E+01 -0.32719475839E+02  0.14269469123E+03  0.12500171938E+03 0.  0.
          2    1    1    2  501    0  0.42333861842E+02  0.10920957329E+02 -0.21289612165E+03  0.21733886394E+03  0.00000000000E+00 0. -1.
          1    1    1    2  502    0  0.17956292511E+02 -0.16477777025E+02  0.23594816251E+03  0.23720345902E+03  0.00000000000E+00 0. -1.
         22    1    3    3    0    0  0.30963790673E+02 -0.21418662351E+02  0.91300959080E+01  0.38741116156E+02  0.00000000000E+00 0.  1.
         22    1    3    3    0    0 -0.91253945026E+02  0.26975482048E+02 -0.41849571747E+02  0.10395357507E+03  0.00000000000E+00 0.  1.
</event>
<event>
 7    1  0.6597701E-006  0.2416020E+03  0.7818608E-02  0.1314955E+00
          2   -1    0    0  502    0  0.00000000000E+00  0.00000000000E+00  0.21906911894E+04  0.21906911894E+04  0.00000000000E+00 0. -1.
          1   -1    0    0  501    0 -0.00000000000E+00 -0.00000000000E+00 -0.31789178251E+03  0.31789178251E+03  0.00000000000E+00 0. -1.
         25    2    1    2    0    0 -0.21250834484E+03 -0.35858614814E+02  0.35930555447E+03  0.43723204086E+03  0.12500295675E+03 0.  0.
          2    1    1    2  501    0  0.24254056604E+03  0.35589784977E+02 -0.22491359956E+03  0.33268406370E+03  0.00000000000E+00 0. -1.
          1    1    1    2  502    0 -0.30032221202E+02  0.26882983683E+00  0.17384074520E+04  0.17386668674E+04  0.00000000000E+00 0. -1.
         22    1    3    3    0    0 -0.19226003154E+02 -0.99627090032E+01  0.14845996391E+03  0.15003084900E+03  0.00000000000E+00 0.  1.
         22    1    3    3    0    0 -0.19328234169E+03 -0.25895905811E+02  0.21084559057E+03  0.28720119186E+03  0.00000000000E+00 0.  1.
</event>
<event>
 7    1  0.6597701E-006  0.6811807E+02  0.7818608E-02  0.1441339E+00
          2   -1    0    0  502    0  0.00000000000E+00  0.00000000000E+00  0.84184324485E+03  0.84184324485E+03  0.00000000000E+00 0. -1.
          1   -1    0    0  501    0 -0.00000000000E+00 -0.00000000000E+00 -0.90317589716E+03  0.90317589716E+03  0.00000000000E+00 0. -1.
         25    2    1    2    0    0 -0.66334255344E+02  0.55775994772E+02  0.29444079230E+02  0.15492953714E+03  0.12500005060E+03 0.  0.
          2    1    1    2  501    0  0.28957022170E+02 -0.61479718427E+02 -0.83858098770E+03  0.84133010040E+03  0.00000000000E+00 0. -1.
          1    1    1    2  502    0  0.37377233175E+02  0.57037236556E+01  0.74780425616E+03  0.74875950448E+03  0.00000000000E+00 0. -1.
         22    1    3    3    0    0 -0.98570005668E+02  0.55594379484E+02  0.41465741993E+02  0.12052463983E+03  0.00000000000E+00 0. -1.
         22    1    3    3    0    0  0.32235750324E+02  0.18161528731E+00 -0.12021662763E+02  0.34404897306E+02  0.00000000000E+00 0. -1.
</event>
<event>
 7    1  0.6597701E-006  0.1591277E+03  0.7818608E-02  0.1253770E+00
          2   -1    0    0  502    0  0.00000000000E+00  0.00000000000E+00  0.79530018773E+03  0.79530018773E+03  0.00000000000E+00 0. -1.
          1   -1    0    0  501    0 -0.00000000000E+00 -0.00000000000E+00 -0.16069868519E+04  0.16069868519E+04  0.00000000000E+00 0. -1.
         25    2    1    2    0    0 -0.62425409294E+02  0.56765164784E+02 -0.13244664956E+03  0.20071483213E+03  0.12500045279E+03 0.  0.
          2    1    1    2  501    0 -0.37532591819E+02  0.72139913396E+02 -0.14304988106E+04  0.14328083297E+04  0.00000000000E+00 0. -1.
          1    1    1    2  502    0  0.99958001113E+02 -0.12890507818E+03  0.75125879602E+03  0.76876387777E+03  0.00000000000E+00 0. -1.
         22    1    3    3    0    0 -0.43182394601E+02  0.51556879166E+02 -0.15598723989E+03  0.16986715398E+03  0.00000000000E+00 0.  1.
         22    1    3    3    0    0 -0.19243014692E+02  0.52082856179E+01  0.23540590333E+02  0.30847678142E+02  0.00000000000E+00 0.  1.
</event>
<event>
 7    1  0.6597701E-006  0.2097900E+03  0.7818608E-02  0.1231632E+00
          2   -1    0    0  502    0  0.00000000000E+00  0.00000000000E+00  0.17014402627E+04  0.17014402627E+04  0.00000000000E+00 0. -1.
          1   -1    0    0  501    0 -0.00000000000E+00 -0.00000000000E+00 -0.90968967750E+03  0.90968967750E+03  0.00000000000E+00 0. -1.
         25    2    1    2    0    0  0.17162046333E+03  0.28916711966E+02  0.22436251839E+03  0.31024480549E+03  0.12499415991E+03 0.  0.
          2    1    1    2  501    0 -0.20842582642E+03  0.38893058306E+02 -0.85271939919E+03  0.87868331546E+03  0.00000000000E+00 0. -1.
          1    1    1    2  502    0  0.36805363090E+02 -0.67809770272E+02  0.14201074660E+04  0.14222018192E+04  0.00000000000E+00 0. -1.
         22    1    3    3    0    0 -0.11742740934E+00  0.11505234430E+02  0.92009480918E+02  0.92726095503E+02  0.00000000000E+00 0.  1.
         22    1    3    3    0    0  0.17173789074E+03  0.17411477536E+02  0.13235303747E+03  0.21751870999E+03  0.00000000000E+00 0.  1.
</event>
<event>
 7    1  0.6597701E-006  0.6274342E+02  0.7818608E-02  0.1402094E+00
          2   -1    0    0  502    0  0.00000000000E+00  0.00000000000E+00  0.74151199514E+03  0.74151199514E+03  0.00000000000E+00 0. -1.
          1   -1    0    0  501    0 -0.00000000000E+00 -0.00000000000E+00 -0.24008815180E+04  0.24008815180E+04  0.00000000000E+00 0. -1.
         25    2    1    2    0    0 -0.31170938916E+02  0.17175335641E+00  0.72187364314E+02  0.14767532841E+03  0.12500132048E+03 0.  0.
          2    1    1    2  501    0  0.29436024218E+02 -0.55616986857E+02 -0.23614995564E+04  0.23623378005E+04  0.00000000000E+00 0. -1.
          1    1    1    2  502    0  0.17349146978E+01  0.55445233501E+02  0.62994266923E+03  0.63238038424E+03  0.00000000000E+00 0. -1.
         22    1    3    3    0    0 -0.62047343522E+02  0.10060794935E+02 -0.58910069506E+01  0.63133163993E+02  0.00000000000E+00 0.  1.
         22    1    3    3    0    0  0.30876404606E+02 -0.98890415785E+01  0.78078371265E+02  0.84542164416E+02  0.00000000000E+00 0.  1.
</event>
<event>
 7    1  0.6597701E-006  0.1375593E+03  0.7818608E-02  0.1371605E+00
          2   -1    0    0  502    0  0.00000000000E+00  0.00000000000E+00  0.12502225812E+04  0.12502225812E+04  0.00000000000E+00 0. -1.
          1   -1    0    0  501    0 -0.00000000000E+00 -0.00000000000E+00 -0.63891946384E+03  0.63891946384E+03  0.00000000000E+00 0. -1.
         25    2    1    2    0    0  0.11894473789E+03 -0.92163608370E+01  0.50367884949E+03  0.53249442257E+03  0.12500053866E+03 0.  0.
          2    1    1    2  501    0  0.25392098938E+02 -0.20066615255E+02 -0.61667642645E+03  0.61752509477E+03  0.00000000000E+00 0. -1.
          1    1    1    2  502    0 -0.14433683683E+03  0.29282976092E+02  0.72430069431E+03  0.73912252768E+03  0.00000000000E+00 0. -1.
         22    1    3    3    0    0  0.12606444081E+03  0.24906167545E+02  0.30793706541E+03  0.33367318842E+03  0.00000000000E+00 0.  1.
         22    1    3    3    0    0 -0.71197029199E+01 -0.34122528382E+02  0.19574178409E+03  0.19882123415E+03  0.00000000000E+00 0.  1.
</event>
<event>
 7    1  0.6597701E-006  0.1626391E+03  0.7818608E-02  0.1344335E+00
          2   -1    0    0  502    0  0.00000000000E+00  0.00000000000E+00  0.52411096321E+03  0.52411096321E+03  0.00000000000E+00 0. -1.
          1   -1    0    0  501    0 -0.00000000000E+00 -0.00000000000E+00 -0.10662973059E+04  0.10662973059E+04  0.00000000000E+00 0. -1.
         25    2    1    2    0    0  0.64987749351E+02  0.12430753696E+03  0.53216149637E+02  0.19527562911E+03  0.12499936573E+03 0.  0.
          2    1    1    2  501    0  0.31591944043E+02  0.13733183184E+02 -0.97720531476E+03  0.97781229202E+03  0.00000000000E+00 0. -1.
          1    1    1    2  502    0 -0.96579693394E+02 -0.13804072015E+03  0.38180282244E+03  0.41732034796E+03  0.00000000000E+00 0. -1.
         22    1    3    3    0    0  0.10144245757E+03  0.10034453865E+03  0.51229913431E+02  0.15160508786E+03  0.00000000000E+00 0. -1.
         22    1    3    3    0    0 -0.36454708217E+02  0.23962998311E+02  0.19862362065E+01  0.43670541256E+02  0.00000000000E+00 0. -1.
</event>
<event>
 7    1  0.6597701E-006  0.2017241E+03  0.7818608E-02  0.1261005E+00
          2   -1    0    0  502    0  0.00000000000E+00  0.00000000000E+00  0.23300921706E+04  0.23300921706E+04  0.00000000000E+00 0. -1.
          1   -1    0    0  501    0 -0.00000000000E+00 -0.00000000000E+00 -0.24714396555E+04  0.24714396555E+04  0.00000000000E+00 0. -1.
         25    2    1    2    0    0 -0.92187479288E+02 -0.12486146124E+03  0.24478360904E+03  0.31564480444E+03  0.12499484579E+03 0.  0.
          2    1    1    2  501    0  0.84337122820E+02  0.18407057444E+03 -0.24313651808E+04  0.24397810085E+04  0.00000000000E+00 0. -1.
          1    1    1    2  502    0  0.78503564678E+01 -0.59209113199E+02  0.20452340869E+04  0.20461060132E+04  0.00000000000E+00 0. -1.
         22    1    3    3    0    0 -0.77519346918E+01 -0.88797204758E+02  0.54786191129E+02  0.10462582283E+03  0.00000000000E+00 0. -1.
         22    1    3    3    0    0 -0.84435544596E+02 -0.36064256486E+02  0.18999741791E+03  0.21101898161E+03  0.00000000000E+00 0. -1.
</event>
<event>
 7    1  0.6597701E-006  0.3423523E+02  0.7818608E-02  0.1614982E+00
          2   -1    0    0  502    0  0.00000000000E+00  0.00000000000E+00  0.17430129070E+04  0.17430129070E+04  0.00000000000E+00 0. -1.
          1   -1    0    0  501    0 -0.00000000000E+00 -0.00000000000E+00 -0.82462298976E+01  0.82462298976E+01  0.00000000000E+00 0. -1.
         25    2    1    2    0    0 -0.27277185085E+02  0.45687783946E+02  0.68967885868E+03  0.70293193940E+03  0.12499985958E+03 0.  0.
          2    1    1    2  501    0  0.19883037019E+02 -0.13022793505E+02  0.10556623680E+03  0.10820886592E+03  0.00000000000E+00 0. -1.
          1    1    1    2  502    0  0.73941480652E+01 -0.32664990441E+02  0.93952158168E+03  0.94011833163E+03  0.00000000000E+00 0. -1.
         22    1    3    3    0    0  0.60004210857E+01  0.50683196375E+02  0.99789977811E+02  0.11208403597E+03  0.00000000000E+00 0. -1.
         22    1    3    3    0    0 -0.33277606170E+02 -0.49954124288E+01  0.58988888087E+03  0.59084790343E+03  0.00000000000E+00 0. -1.
</event>
<event>
 7    1  0.6597701E-006  0.1100270E+03  0.7818608E-02  0.1331360E+00
          2   -1    0    0  502    0  0.00000000000E+00  0.00000000000E+00  0.17338634802E+04  0.17338634802E+04  0.00000000000E+00 0. -1.
          1   -1    0    0  501    0 -0.00000000000E+00 -0.00000000000E+00 -0.11635427661E+03  0.11635427661E+03  0.00000000000E+00 0. -1.
         25    2    1    2    0    0  0.39075351145E+02 -0.11667469653E+03  0.24319835544E+03  0.29985035488E+03  0.12499970942E+03 0.  0.
          2    1    1    2  501    0 -0.56430445251E+02  0.80276016249E+01 -0.76494983453E+02  0.95395597553E+02  0.00000000000E+00 0. -1.
          1    1    1    2  502    0  0.17355094106E+02  0.10864709490E+03  0.14508058316E+04  0.14549718044E+04  0.00000000000E+00 0. -1.
         22    1    3    3    0    0  0.62517252069E+01 -0.13642652477E+03  0.17995393686E+03  0.22590861011E+03  0.00000000000E+00 0. -1.
         22    1    3    3    0    0  0.32823625938E+02  0.19751828242E+02  0.63244418579E+02  0.73941744773E+02  0.00000000000E+00 0. -1.
</event>
<event>
 7    1  0.6597701E-006  0.2111131E+03  0.7818608E-02  0.1351553E+00
          2   -1    0    0  502    0  0.00000000000E+00  0.00000000000E+00  0.91049568760E+03  0.91049568760E+03  0.00000000000E+00 0. -1.
          1   -1    0    0  501    0 -0.00000000000E+00 -0.00000000000E+00 -0.10399712120E+04  0.10399712120E+04  0.00000000000E+00 0. -1.
         25    2    1    2    0    0 -0.13144329690E+03  0.15286300915E+03  0.38366094659E+03  0.45107262309E+03  0.12500539789E+03 0.  0.
          2    1    1    2  501    0  0.15476570512E+03 -0.14400301919E+03 -0.99483622617E+03  0.10170488729E+04  0.00000000000E+00 0. -1.
          1    1    1    2  502    0 -0.23322408222E+02 -0.88599899593E+01  0.48169975522E+03  0.48234540355E+03  0.00000000000E+00 0. -1.
         22    1    3    3    0    0 -0.44871965682E+01  0.76268964179E+02  0.20574655414E+03  0.21947376693E+03  0.00000000000E+00 0.  1.
         22    1    3    3    0    0 -0.12695610033E+03  0.76594044974E+02  0.17791439245E+03  0.23159885617E+03  0.00000000000E+00 0.  1.
</event>
<event>
 7    1  0.6597701E-006  0.1449667E+03  0.7818608E-02  0.1357410E+00
          2   -1    0    0  502    0  0.00000000000E+00  0.00000000000E+00  0.12585621454E+04  0.12585621454E+04  0.00000000000E+00 0. -1.
          1   -1    0    0  501    0 -0.00000000000E+00 -0.00000000000E+00 -0.11698096238E+04  0.11698096238E+04  0.00000000000E+00 0. -1.
         25    2    1    2    0    0  0.43426162639E+02  0.13678455030E+03 -0.84160089323E+02  0.20809819870E+03  0.12500437938E+03 0.  0.
          2    1    1    2  501    0  0.32095742366E+02 -0.12851579718E+02 -0.10189856224E+04  0.10195719682E+04  0.00000000000E+00 0. -1.
          1    1    1    2  502    0 -0.75521905005E+02 -0.12393297059E+03  0.11918982332E+04  0.12007016023E+04  0.00000000000E+00 0. -1.
         22    1    3    3    0    0  0.47991536055E+02  0.12766769149E+03 -0.11324641024E+03  0.17727655349E+03  0.00000000000E+00 0.  1.
         22    1    3    3    0    0 -0.45653734160E+01  0.91168588124E+01  0.29086320920E+02  0.30821645214E+02  0.00000000000E+00 0.  1.
</event>
<event>
 7    1  0.6597701E-006  0.4360916E+02  0.7818608E-02  0.1508873E+00
          2   -1    0    0  502    0  0.00000000000E+00  0.00000000000E+00  0.52956233984E+03  0.52956233984E+03  0.00000000000E+00 0. -1.
          1   -1    0    0  501    0 -0.00000000000E+00 -0.00000000000E+00 -0.15616261233E+04  0.15616261233E+04  0.00000000000E+00 0. -1.
         25    2    1    2    0    0  0.55340819497E+02  0.42082813753E+02 -0.66449097479E+01  0.14318671927E+03  0.12499884894E+03 0.  0.
          2    1    1    2  501    0 -0.42824180615E+02 -0.77692459095E+01 -0.14856681023E+04  0.14863054806E+04  0.00000000000E+00 0. -1.
          1    1    1    2  502    0 -0.12516638882E+02 -0.34313567843E+02  0.46024922851E+03  0.46169626328E+03  0.00000000000E+00 0. -1.
         22    1    3    3    0    0  0.42837634397E+02 -0.35534675327E+02 -0.27167372554E+02  0.61934176371E+02  0.00000000000E+00 0.  1.
         22    1    3    3    0    0  0.12503185099E+02  0.77617489079E+02  0.20522462806E+02  0.81252542903E+02  0.00000000000E+00 0.  1.
</event>
<event>
 7    1  0.6597701E-006  0.8750797E+02  0.7818608E-02  0.1332370E+00
          2   -1    0    0  502    0  0.00000000000E+00  0.00000000000E+00  0.67541685238E+03  0.67541685238E+03  0.00000000000E+00 0. -1.
          1   -1    0    0  501    0 -0.00000000000E+00 -0.00000000000E+00 -0.37337509125E+03  0.37337509125E+03  0.00000000000E+00 0. -1.
         25    2    1    2    0    0  0.25332755320E+02 -0.11107523035E+03 -0.14370507851E+02  0.16973761640E+03  0.12499956654E+03 0.  0.
          2    1    1    2  501    0  0.42993960317E+02  0.56545573974E+02 -0.27356430983E+03  0.28263636386E+03  0.00000000000E+00 0. -1.
          1    1    1    2  502    0 -0.68326715638E+02  0.54529656376E+02  0.58997657881E+03  0.59641796337E+03  0.00000000000E+00 0. -1.
         22    1    3    3    0    0 -0.33221217995E+02 -0.10510499275E+03 -0.76002122526E+01  0.11049195469E+03  0.00000000000E+00 0. -1.
         22    1    3    3    0    0  0.58553973316E+02 -0.59702376010E+01 -0.67702955982E+01  0.59245661703E+02  0.00000000000E+00 0. -1.
</event>
<event>
 7    1  0.6597701E-006  0.7228054E+02  0.7818608E-02  0.1456068E+00
          2   -1    0    0  502    0  0.00000000000E+00  0.00000000000E+00  0.31785160853E+03  0.31785160853E+03  0.00000000000E+00 0. -1.
          1   -1    0    0  501    0 -0.00000000000E+00 -0.00000000000E+00 -0.53024789670E+03  0.53024789670E+03  0.00000000000E+00 0. -1.
         25    2    1    2    0    0  0.10195341861E+03 -0.73785282076E+01 -0.88971931760E+02  0.18436267693E+03  0.12499859903E+03 0.  0.
          2    1    1    2  501    0 -0.31663416764E+02 -0.43578903633E+01 -0.38821285955E+03  0.38952636302E+03  0.00000000000E+00 0. -1.
          1    1    1    2  502    0 -0.70290001842E+02  0.11736418571E+02  0.26478850313E+03  0.27421046528E+03  0.00000000000E+00 0. -1.
         22    1    3    3    0    0  0.11802880913E+03 -0.38403476212E+02 -0.55455804302E+02  0.13594474245E+03  0.00000000000E+00 0.  1.
         22    1    3    3    0    0 -0.16075390523E+02  0.31024948005E+02 -0.33516127458E+02  0.48417934476E+02  0.00000000000E+00 0.  1.
</event>
<event>
 7    1  0.6597701E-006  0.2110417E+03  0.7818608E-02  0.1294475E+00
          2   -1    0    0  502    0  0.00000000000E+00  0.00000000000E+00  0.11098376392E+04  0.11098376392E+04  0.00000000000E+00 0. -1.
          1   -1    0    0  501    0 -0.00000000000E+00 -0.00000000000E+00 -0.33502547245E+03  0.33502547245E+03  0.00000000000E+00 0. -1.
         25    2    1    2    0    0 -0.21217150181E+01 -0.19399885539E+03  0.54200421629E+03  0.58909602165E+03  0.12500197872E+03 0.  0.
          2    1    1    2  501    0  0.23586512068E+02 -0.34107888705E+02 -0.28580562911E+03  0.28879842322E+03  0.00000000000E+00 0. -1.
          1    1    1    2  502    0 -0.21464797050E+02  0.22810674409E+03  0.51861357961E+03  0.56696866683E+03  0.00000000000E+00 0. -1.
         22    1    3    3    0    0 -0.24841968802E+02 -0.94265979129E+02  0.11865580089E+03  0.15356561243E+03  0.00000000000E+00 0.  1.
         22    1    3    3    0    0  0.22720253784E+02 -0.99732876258E+02  0.42334841540E+03  0.43553040923E+03  0.00000000000E+00 0.  1.
</event>
<event>
 7    1  0.6597701E-006  0.4383019E+03  0.7818608E-02  0.1088018E+00
          2   -1    0    0  502    0  0.00000000000E+00  0.00000000000E+00  0.20060813190E+04  0.20060813190E+04  0.00000000000E+00 0. -1.
          1   -1    0    0  501    0 -0.00000000000E+00 -0.00000000000E+00 -0.21846332891E+04  0.21846332891E+04  0.00000000000E+00 0. -1.
         25    2    1    2    0    0 -0.19179266165E+03  0.43965001304E+03 -0.18559204314E+04  0.19209743785E+04  0.12500142422E+03 0.  0.
          2    1    1    2  501    0  0.26168255670E+02 -0.33134895237E+03 -0.19605485400E+03  0.38589430109E+03  0.00000000000E+00 0. -1.
          1    1    1    2  502    0  0.16562440598E+03 -0.10830106067E+03  0.18734233154E+04  0.18838459285E+04  0.00000000000E+00 0. -1.
         22    1    3    3    0    0 -0.43844700557E+02  0.24262510516E+03 -0.82742478695E+03  0.86337771426E+03  0.00000000000E+00 0. -1.
         22    1    3    3    0    0 -0.14794796109E+03  0.19702490788E+03 -0.10284956445E+04  0.10575966643E+04  0.00000000000E+00 0. -1.
</event>
<event>
 7    1  0.6597701E-006  0.1296715E+03  0.7818608E-02  0.1402962E+00
          2   -1    0    0  502    0  0.00000000000E+00  0.00000000000E+00  0.33698342073E+04  0.33698342073E+04  0.00000000000E+00 0. -1.
          1   -1    0    0  501    0 -0.00000000000E+00 -0.00000000000E+00 -0.10615007190E+03  0.10615007190E+03  0.00000000000E+00 0. -1.
         25    2    1    2    0    0 -0.81960105056E+02 -0.11524286257E+03  0.21580179470E+04  0.21662548531E+04  0.12498101078E+03 0.  0.
          2    1    1    2  501    0 -0.11169638462E+01  0.26634605982E+02 -0.97178017138E+02  0.10076813414E+03  0.00000000000E+00 0. -1.
          1    1    1    2  502    0  0.83077068902E+02  0.88608256590E+02  0.12028442056E+04  0.12089612919E+04  0.00000000000E+00 0. -1.
         22    1    3    3    0    0 -0.68301135909E+02  0.81546497272E+00  0.10090981143E+04  0.10114072940E+04  0.00000000000E+00 0. -1.
         22    1    3    3    0    0 -0.13658969147E+02 -0.11605832754E+03  0.11489198327E+04  0.11548475591E+04  0.00000000000E+00 0. -1.
</event>
<event>
 7    1  0.6597701E-006  0.7974063E+02  0.7818608E-02  0.1438019E+00
          2   -1    0    0  502    0  0.00000000000E+00  0.00000000000E+00  0.30970893797E+03  0.30970893797E+03  0.00000000000E+00 0. -1.
          1   -1    0    0  501    0 -0.00000000000E+00 -0.00000000000E+00 -0.98620391950E+03  0.98620391950E+03  0.00000000000E+00 0. -1.
         25    2    1    2    0    0  0.49881921852E+02  0.91430299020E+01 -0.11748371400E+03  0.17887448601E+03  0.12498742963E+03 0.  0.
          2    1    1    2  501    0  0.24890279650E+02  0.21835617832E+02 -0.83181912717E+03  0.83247785589E+03  0.00000000000E+00 0. -1.
          1    1    1    2  502    0 -0.74772201502E+02 -0.30978647734E+02  0.27280785964E+03  0.28456051556E+03  0.00000000000E+00 0. -1.
         22    1    3    3    0    0  0.39985247648E+02 -0.50539483452E+01 -0.14270475651E+03  0.14828691768E+03  0.00000000000E+00 0. -1.
         22    1    3    3    0    0  0.98966742045E+01  0.14196978247E+02  0.25221042506E+02  0.30587568337E+02  0.00000000000E+00 0. -1.
</event>
<event>
 7    1  0.6597701E-006  0.1216160E+03  0.7818608E-02  0.1258253E+00
          2   -1    0    0  502    0  0.00000000000E+00  0.00000000000E+00  0.93987621138E+02  0.93987621138E+02  0.00000000000E+00 0. -1.
          1   -1    0    0  501    0 -0.00000000000E+00 -0.00000000000E+00 -0.95921636716E+03  0.95921636716E+03  0.00000000000E+00 0. -1.
         25    2    1    2    0    0  0.10801585698E+03  0.17218612947E+03 -0.30591938864E+03  0.38797844665E+03  0.12500045674E+03 0.  0.
          2    1    1    2  501    0 -0.74507101945E+02 -0.69349501223E+02 -0.54697612942E+03  0.55636637903E+03  0.00000000000E+00 0. -1.
          1    1    1    2  502    0 -0.33508755036E+02 -0.10283662824E+03 -0.12333227967E+02  0.10885916261E+03  0.00000000000E+00 0. -1.
         22    1    3    3    0    0 -0.11512687587E+02  0.95962599878E+02 -0.13200576253E+03  0.16360587976E+03  0.00000000000E+00 0.  1.
         22    1    3    3    0    0  0.11952854457E+03  0.76223529590E+02 -0.17391362610E+03  0.22437256689E+03  0.00000000000E+00 0.  1.
</event>
<event>
 7    1  0.6597701E-006  0.1016021E+03  0.7818608E-02  0.1323655E+00
          2   -1    0    0  502    0  0.00000000000E+00  0.00000000000E+00  0.50623358218E+02  0.50623358218E+02  0.00000000000E+00 0. -1.
          1   -1    0    0  501    0 -0.00000000000E+00 -0.00000000000E+00 -0.16018897396E+04  0.16018897396E+04  0.00000000000E+00 0. -1.
         25    2    1    2    0    0 -0.64887930156E+02  0.13779710266E+02 -0.43623145106E+03  0.45860849117E+03  0.12499418141E+03 0.  0.
          2    1    1    2  501    0 -0.11139047422E+02  0.65124787698E+02 -0.10753342099E+04  0.10773620465E+04  0.00000000000E+00 0. -1.
          1    1    1    2  502    0  0.76026977578E+02 -0.78904497964E+02 -0.39700720459E+02  0.11654256014E+03  0.00000000000E+00 0. -1.
         22    1    3    3    0    0 -0.83901864955E+02 -0.32307940632E+02 -0.24468207558E+03  0.26067727957E+03  0.00000000000E+00 0.  1.
         22    1    3    3    0    0  0.19013934799E+02  0.46087650898E+02 -0.19154937548E+03  0.19793121161E+03  0.00000000000E+00 0.  1.
</event>
<event>
 7    1  0.6597701E-006  0.4003535E+02  0.7818608E-02  0.1605243E+00
          2   -1    0    0  502    0  0.00000000000E+00  0.00000000000E+00  0.80722412288E+02  0.80722412288E+02  0.00000000000E+00 0. -1.
          1   -1    0    0  501    0 -0.00000000000E+00 -0.00000000000E+00 -0.11160677375E+04  0.11160677375E+04  0.00000000000E+00 0. -1.
         25    2    1    2    0    0 -0.25962280391E+02 -0.22534494992E+02 -0.20848256203E+02  0.13129722343E+03  0.12498987010E+03 0.  0.
          2    1    1    2  501    0  0.11448888692E+02  0.38444158566E+02 -0.10349891338E+04  0.10357661597E+04  0.00000000000E+00 0. -1.
          1    1    1    2  502    0  0.14513391698E+02 -0.15909663574E+02  0.20492064852E+02  0.29726766651E+02  0.00000000000E+00 0. -1.
         22    1    3    3    0    0  0.37375034161E+02  0.21974404281E+02  0.15146427366E+02  0.45925830248E+02  0.00000000000E+00 0. -1.
         22    1    3    3    0    0 -0.63337314552E+02 -0.44508899273E+02 -0.35994683569E+02  0.85371393185E+02  0.00000000000E+00 0. -1.
</event>
<event>
 7    1  0.6597701E-006  0.8182172E+02  0.7818608E-02  0.1359694E+00
          2   -1    0    0  502    0  0.00000000000E+00  0.00000000000E+00  0.62451588466E+02  0.62451588466E+02  0.00000000000E+00 0. -1.
          1   -1    0    0  501    0 -0.00000000000E+00 -0.00000000000E+00 -0.16856948126E+04  0.16856948126E+04  0.00000000000E+00 0. -1.
         25    2    1    2    0    0 -0.25112897216E+02 -0.27540227613E+02 -0.53560157290E+03  0.55125493779E+03  0.12499535910E+03 0.  0.
          2    1    1    2  501    0  0.34160947930E+02  0.86942612514E+02 -0.11231954793E+04  0.11270732332E+04  0.00000000000E+00 0. -1.
          1    1    1    2  502    0 -0.90480507144E+01 -0.59402384901E+02  0.35553828115E+02  0.69818230050E+02  0.00000000000E+00 0. -1.
         22    1    3    3    0    0  0.27414973090E+02 -0.48384115545E+02 -0.40703411181E+03  0.41081549577E+03  0.00000000000E+00 0. -1.
         22    1    3    3    0    0 -0.52527870306E+02  0.20843887932E+02 -0.12856746109E+03  0.14043944202E+03  0.00000000000E+00 0. -1.
</event>
<event>
 7    1  0.6597701E-006  0.6999677E+02  0.7818608E-02  0.1394696E+00
          2   -1    0    0  502    0  0.00000000000E+00  0.00000000000E+00  0.23667897673E+04  0.23667897673E+04  0.00000000000E+00 0. -1.
          1   -1    0    0  501    0 -0.00000000000E+00 -0.00000000000E+00 -0.14871901148E+03  0.14871901148E+03  0.00000000000E+00 0. -1.
         25    2    1    2    0    0 -0.13008309419E+02  0.30138957486E+02  0.10330645235E+04  0.10411164045E+04  0.12499394070E+03 0.  0.
          2    1    1    2  501    0 -0.26301032989E+02 -0.65286350029E+02 -0.13557606296E+03  0.15275771890E+03  0.00000000000E+00 0. -1.
          1    1    1    2  502    0  0.39309342408E+02  0.35147392543E+02  0.13205822953E+04  0.13216346554E+04  0.00000000000E+00 0. -1.
         22    1    3    3    0    0 -0.62032655857E+02  0.16844808458E+01  0.33096395241E+03  0.33673138502E+03  0.00000000000E+00 0. -1.
         22    1    3    3    0    0  0.49024346438E+02  0.28454476640E+02  0.70210057104E+03  0.70438501946E+03  0.00000000000E+00 0. -1.
</event>
<event>
 7    1  0.6597701E-006  0.9239680E+02  0.7818608E-02  0.1381660E+00
          2   -1    0    0  502    0  0.00000000000E+00  0.00000000000E+00  0.16350825911E+04  0.16350825911E+04  0.00000000000E+00 0. -1.
          1   -1    0    0  501    0 -0.00000000000E+00 -0.00000000000E+00 -0.64900080847E+02  0.64900080847E+02  0.00000000000E+00 0. -1.
         25    2    1    2    0    0 -0.16901036746E+02 -0.10484797530E+03  0.76496494166E+03  0.78235269072E+03  0.12500251096E+03 0.  0.
          2    1    1    2  501    0  0.40786534743E+02  0.17472091357E+02 -0.44650520812E+02  0.62948267661E+02  0.00000000000E+00 0. -1.
          1    1    1    2  502    0 -0.23885497998E+02  0.87375883942E+02  0.84986808937E+03  0.85468171353E+03  0.00000000000E+00 0. -1.
         22    1    3    3    0    0 -0.70464149082E+02 -0.73705925935E+02  0.48882392061E+03  0.49934615767E+03  0.00000000000E+00 0. -1.
         22    1    3    3    0    0  0.53563112336E+02 -0.31142049363E+02  0.27614102106E+03  0.28300653306E+03  0.00000000000E+00 0. -1.
</event>
<event>
 7    1  0.6597701E-006  0.9501022E+02  0.7818608E-02  0.1322471E+00
          2   -1    0    0  502    0  0.00000000000E+00  0.00000000000E+00  0.13885697860E+04  0.13885697860E+04  0.00000000000E+00 0. -1.
          1   -1    0    0  501    0 -0.00000000000E+00 -0.00000000000E+00 -0.17433248543E+03  0.17433248543E+03  0.00000000000E+00 0. -1.
         25    2    1    2    0    0 -0.57402216385E+02 -0.49290956844E+02  0.21097261264E+02  0.14763375828E+03  0.12500407705E+03 0.  0.
          2    1    1    2  501    0  0.53860039515E+02 -0.46876884847E+02 -0.97608798286E+02  0.12093727172E+03  0.00000000000E+00 0. -1.
          1    1    1    2  502    0  0.35421768698E+01  0.96167841690E+02  0.12907488376E+04  0.12943312414E+04  0.00000000000E+00 0. -1.
         22    1    3    3    0    0  0.91441614024E+01 -0.61511294949E+02 -0.23631883245E+02  0.66526092623E+02  0.00000000000E+00 0. -1.
         22    1    3    3    0    0 -0.66546377787E+02  0.12220338105E+02  0.44729144509E+02  0.81107665658E+02  0.00000000000E+00 0. -1.
</event>
<event>
 7    1  0.6597701E-006  0.1544645E+03  0.7818608E-02  0.1315277E+00
          2   -1    0    0  502    0  0.00000000000E+00  0.00000000000E+00  0.32402647939E+04  0.32402647939E+04  0.00000000000E+00 0. -1.
          1   -1    0    0  501    0 -0.00000000000E+00 -0.00000000000E+00 -0.72943574960E+03  0.72943574960E+03  0.00000000000E+00 0. -1.
         25    2    1    2    0    0 -0.11148265057E+03  0.73263999621E+00  0.66750175000E+03  0.68819176705E+03  0.12498161402E+03 0.  0.
          2    1    1    2  501    0  0.15379156520E+03  0.19366027768E+02 -0.71052027108E+03  0.72723169910E+03  0.00000000000E+00 0. -1.
          1    1    1    2  502    0 -0.42308914639E+02 -0.20098667764E+02  0.25538475654E+04  0.25542770774E+04  0.00000000000E+00 0. -1.
         22    1    3    3    0    0 -0.13696410222E+02 -0.20550804621E+02  0.42681187941E+03  0.42752579762E+03  0.00000000000E+00 0.  1.
         22    1    3    3    0    0 -0.97786240343E+02  0.21283444617E+02  0.24068987059E+03  0.26066596943E+03  0.00000000000E+00 0.  1.
</event>
<event>
 7    1  0.6597701E-006  0.7711061E+02  0.7818608E-02  0.1341710E+00
          2   -1    0    0  502    0  0.00000000000E+00  0.00000000000E+00  0.22624569242E+03  0.22624569242E+03  0.00000000000E+00 0. -1.
          1   -1    0    0  501    0 -0.00000000000E+00 -0.00000000000E+00 -0.11842533313E+04  0.11842533313E+04  0.00000000000E+00 0. -1.
         25    2    1    2    0    0  0.86278666529E+02 -0.66490622479E+02  0.64358641387E+02  0.17785340616E+03  0.12499915275E+03 0.  0.
          2    1    1    2  501    0 -0.12575838442E+02  0.76045238128E+02 -0.11128707988E+04  0.11155368415E+04  0.00000000000E+00 0. -1.
          1    1    1    2  502    0 -0.73702828087E+02 -0.95546156495E+01  0.90504518536E+02  0.11710877603E+03  0.00000000000E+00 0. -1.
         22    1    3    3    0    0  0.83660687952E+02 -0.96387867539E+02  0.72462381918E+02  0.14676691899E+03  0.00000000000E+00 0.  1.
         22    1    3    3    0    0  0.26179785769E+01  0.29897245061E+02 -0.81037405311E+01  0.31086487171E+02  0.00000000000E+00 0.  1.
</event>
<event>
 7    1  0.6597701E-006  0.1074092E+03  0.7818608E-02  0.1291310E+00
          2   -1    0    0  502    0  0.00000000000E+00  0.00000000000E+00  0.18993024127E+03  0.18993024127E+03  0.00000000000E+00 0. -1.
          1   -1    0    0  501    0 -0.00000000000E+00 -0.00000000000E+00 -0.78012602108E+03  0.78012602108E+03  0.00000000000E+00 0. -1.
         25    2    1    2    0    0 -0.16234844496E+03  0.78967097059E+01  0.75731453199E+01  0.20518848596E+03  0.12500234652E+03 0.  0.
          2    1    1    2  501    0  0.91627279268E+02 -0.53074637401E+02 -0.65486237030E+03  0.66336807240E+03  0.00000000000E+00 0. -1.
          1    1    1    2  502    0  0.70721165690E+02  0.45177927695E+02  0.57093445174E+02  0.10149970399E+03  0.00000000000E+00 0. -1.
         22    1    3    3    0    0 -0.18163170120E+03  0.16928188496E+02  0.13975286134E+02  0.18295340136E+03  0.00000000000E+00 0. -1.
         22    1    3    3    0    0  0.19283256238E+02 -0.90314787904E+01 -0.64021408136E+01  0.22235084602E+02  0.00000000000E+00 0. -1.
</event>
<event>
 7    1  0.6597701E-006  0.2918933E+03  0.7818608E-02  0.1183423E+00
          2   -1    0    0  502    0  0.00000000000E+00  0.00000000000E+00  0.56265437787E+03  0.56265437787E+03  0.00000000000E+00 0. -1.
          1   -1    0    0  501    0 -0.00000000000E+00 -0.00000000000E+00 -0.35898527175E+03  0.35898527175E+03  0.00000000000E+00 0. -1.
         25    2    1    2    0    0  0.38176158712E+02  0.24196996448E+03  0.19402477399E+02  0.27569569186E+03  0.12499910229E+03 0.  0.
          2    1    1    2  501    0  0.76187285472E+02  0.53337294590E+02 -0.15568275639E+03  0.18134632640E+03  0.00000000000E+00 0. -1.
          1    1    1    2  502    0 -0.11436344418E+03 -0.29530725907E+03  0.33994938512E+03  0.46459763136E+03  0.00000000000E+00 0. -1.
         22    1    3    3    0    0  0.24983257552E+02  0.17099211224E+03  0.71139493236E+02  0.18687774909E+03  0.00000000000E+00 0.  1.
         22    1    3    3    0    0  0.13192901160E+02  0.70977852241E+02 -0.51737015837E+02  0.88817942767E+02  0.00000000000E+00 0.  1.
</event>
<event>
 7    1  0.6597701E-006  0.3697018E+02  0.7818608E-02  0.1596211E+00
          2   -1    0    0  502    0  0.00000000000E+00  0.00000000000E+00  0.19614982278E+04  0.19614982278E+04  0.00000000000E+00 0. -1.
          1   -1    0    0  501    0 -0.00000000000E+00 -0.00000000000E+00 -0.26041616981E+02  0.26041616981E+02  0.00000000000E+00 0. -1.
         25    2    1    2    0    0 -0.13175139949E+02  0.32544893175E+02  0.69374400343E+03  0.70578965084E+03  0.12500213816E+03 0.  0.
          2    1    1    2  501    0 -0.19727381347E+02 -0.14732697894E+02 -0.12062039431E+02  0.27417417042E+02  0.00000000000E+00 0. -1.
          1    1    1    2  502    0  0.32902521295E+02 -0.17812195281E+02  0.12537746468E+04  0.12543327769E+04  0.00000000000E+00 0. -1.
         22    1    3    3    0    0 -0.16344851457E+02  0.31573439613E+02  0.46487018865E+02  0.58524176040E+02  0.00000000000E+00 0. -1.
         22    1    3    3    0    0  0.31697115084E+01  0.97145356231E+00  0.64725698457E+03  0.64726547480E+03  0.00000000000E+00 0. -1.
</event>
<event>
 7    1  0.6597701E-006  0.6999965E+02  0.7818608E-02  0.1396375E+00
          2   -1    0    0  502    0  0.00000000000E+00  0.00000000000E+00  0.14793769754E+04  0.14793769754E+04  0.00000000000E+00 0. -1.
          1   -1    0    0  501    0 -0.00000000000E+00 -0.00000000000E+00 -0.90648209348E+02  0.90648209348E+02  0.00000000000E+00 0. -1.
         25    2    1    2    0    0 -0.37519460670E+02 -0.48407900634E+02  0.45670335114E+03  0.47744561864E+03  0.12500133217E+03 0.  0.
          2    1    1    2  501    0 -0.97085137737E+01  0.70235695286E+02 -0.63808287650E+02  0.95387660129E+02  0.00000000000E+00 0. -1.
          1    1    1    2  502    0  0.47227974443E+02 -0.21827794652E+02  0.99583370255E+03  0.99719190597E+03  0.00000000000E+00 0. -1.
         22    1    3    3    0    0 -0.53210515293E+02  0.28558440992E+02  0.21306445565E+03  0.22145745811E+03  0.00000000000E+00 0. -1.
         22    1    3    3    0    0  0.15691054623E+02 -0.76966341626E+02  0.24363889549E+03  0.25598816054E+03  0.00000000000E+00 0. -1.
</event>
<event>
 7    1  0.6597701E-006  0.5382291E+02  0.7818608E-02  0.1452004E+00
          2   -1    0    0  502    0  0.00000000000E+00  0.00000000000E+00  0.26524383756E+03  0.26524383756E+03  0.00000000000E+00 0. -1.
          1   -1    0    0  501    0 -0.00000000000E+00 -0.00000000000E+00 -0.13968106263E+03  0.13968106263E+03  0.00000000000E+00 0. -1.
         25    2    1    2    0    0  0.37374803993E+02 -0.64905024340E+02  0.96246491073E+02  0.17463748232E+03  0.12500130011E+03 0.  0.
          2    1    1    2  501    0  0.52476893083E+01  0.53127863850E+02 -0.89108023230E+02  0.10387659970E+03  0.00000000000E+00 0. -1.
          1    1    1    2  502    0 -0.42622493301E+02  0.11777160490E+02  0.11842430708E+03  0.12641081818E+03  0.00000000000E+00 0. -1.
         22    1    3    3    0    0 -0.28269791919E+02 -0.56363477110E+02  0.87516429127E+02  0.10786634347E+03  0.00000000000E+00 0.  1.
         22    1    3    3    0    0  0.65644595912E+02 -0.85415472296E+01  0.87300619463E+01  0.66771138849E+02  0.00000000000E+00 0.  1.
</event>
<event>
 7    1  0.6597701E-006  0.1211870E+03  0.7818608E-02  0.1313345E+00
          2   -1    0    0  502    0  0.00000000000E+00  0.00000000000E+00  0.26327052600E+04  0.26327052600E+04  0.00000000000E+00 0. -1.
          1   -1    0    0  501    0 -0.00000000000E+00 -0.00000000000E+00 -0.87481149195E+03  0.87481149195E+03  0.00000000000E+00 0. -1.
         25    2    1    2    0    0 -0.11520503746E+03 -0.31829884999E+02  0.46284427121E+02  0.17903549546E+03  0.12500447273E+03 0.  0.
          2    1    1    2  501    0 -0.28730010322E+01  0.60682867691E+02 -0.80582618146E+03  0.80811292484E+03  0.00000000000E+00 0. -1.
          1    1    1    2  502    0  0.11807803850E+03 -0.28852982692E+02  0.25174355224E+04  0.25203683316E+04  0.00000000000E+00 0. -1.
         22    1    3    3    0    0  0.11982250626E+02  0.29149241319E+02  0.13129159139E+02  0.34141286139E+02  0.00000000000E+00 0. -1.
         22    1    3    3    0    0 -0.12718728809E+03 -0.60979126318E+02  0.33155267982E+02  0.14489420932E+03  0.00000000000E+00 0. -1.
</event>
<event>
 7    1  0.6597701E-006  0.1715748E+03  0.7818608E-02  0.1280973E+00
          2   -1    0    0  502    0  0.00000000000E+00  0.00000000000E+00  0.17979897471E+03  0.17979897471E+03  0.00000000000E+00 0. -1.
          1   -1    0    0  501    0 -0.00000000000E+00 -0.00000000000E+00 -0.95518365338E+03  0.95518365338E+03  0.00000000000E+00 0. -1.
         25    2    1    2    0    0  0.13341563233E+03 -0.64865290576E+02 -0.27447515671E+02  0.19592810925E+03  0.12500888371E+03 0.  0.
          2    1    1    2  501    0  0.19559407239E+02 -0.54506807008E+02 -0.74269049647E+03  0.74494478719E+03  0.00000000000E+00 0. -1.
          1    1    1    2  502    0 -0.15297503957E+03  0.11937209758E+03 -0.52466665365E+01  0.19410973165E+03  0.00000000000E+00 0. -1.
         22    1    3    3    0    0  0.14755444488E+03 -0.45260320276E+02  0.62399440186E+01  0.15446600822E+03  0.00000000000E+00 0.  1.
         22    1    3    3    0    0 -0.14138812552E+02 -0.19604970300E+02 -0.33687459689E+02  0.41462101022E+02  0.00000000000E+00 0.  1.
</event>
<event>
 7    1  0.6597701E-006  0.9236004E+02  0.7818608E-02  0.1441724E+00
          2   -1    0    0  502    0  0.00000000000E+00  0.00000000000E+00  0.87574676542E+03  0.87574676542E+03  0.00000000000E+00 0. -1.
          1   -1    0    0  501    0 -0.00000000000E+00 -0.00000000000E+00 -0.11979025725E+03  0.11979025725E+03  0.00000000000E+00 0. -1.
         25    2    1    2    0    0  0.56049210926E+02  0.41745172075E+02  0.54585498895E+01  0.14329896490E+03  0.12498249533E+03 0.  0.
          2    1    1    2  501    0  0.71713026690E+01  0.26865145525E+02 -0.44125850855E+02  0.52156057556E+02  0.00000000000E+00 0. -1.
          1    1    1    2  502    0 -0.63220513595E+02 -0.68610317601E+02  0.79462380914E+03  0.80008200022E+03  0.00000000000E+00 0. -1.
         22    1    3    3    0    0  0.47780731203E+02 -0.34646752223E+02  0.24871059586E+02  0.64046587097E+02  0.00000000000E+00 0.  1.
         22    1    3    3    0    0  0.82684797232E+01  0.76391924298E+02 -0.19412509696E+02  0.79252377804E+02  0.00000000000E+00 0.  1.
</event>
<event>
 7    1  0.6597701E-006  0.4875272E+02  0.7818608E-02  0.1517218E+00
          2   -1    0    0  502    0  0.00000000000E+00  0.00000000000E+00  0.47950451127E+03  0.47950451127E+03  0.00000000000E+00 0. -1.
          1   -1    0    0  501    0 -0.00000000000E+00 -0.00000000000E+00 -0.95701373422E+03  0.95701373422E+03  0.00000000000E+00 0. -1.
         25    2    1    2    0    0  0.23397123984E+02  0.60444823527E+02  0.29249018144E+03  0.32462441063E+03  0.12501799724E+03 0.  0.
          2    1    1    2  501    0  0.10915500335E+02 -0.28888591576E+02 -0.93750953388E+03  0.93801803021E+03  0.00000000000E+00 0. -1.
          1    1    1    2  502    0 -0.34312624319E+02 -0.31556231951E+02  0.16751012950E+03  0.17387580466E+03  0.00000000000E+00 0. -1.
         22    1    3    3    0    0  0.38456840836E+02  0.64079961545E+02  0.72608772557E+02  0.10419790752E+03  0.00000000000E+00 0. -1.
         22    1    3    3    0    0 -0.15059716852E+02 -0.36351380175E+01  0.21988140889E+03  0.22042650311E+03  0.00000000000E+00 0. -1.
</event>
<event>
 7    1  0.6597701E-006  0.9960798E+02  0.7818608E-02  0.1401487E+00
          2   -1    0    0  502    0  0.00000000000E+00  0.00000000000E+00  0.17011128902E+04  0.17011128902E+04  0.00000000000E+00 0. -1.
          1   -1    0    0  501    0 -0.00000000000E+00 -0.00000000000E+00 -0.70315721135E+03  0.70315721135E+03  0.00000000000E+00 0. -1.
         25    2    1    2    0    0 -0.12792344741E+03 -0.24843001390E+02  0.33832188780E+02  0.18371472494E+03  0.12499960018E+03 0.  0.
          2    1    1    2  501    0  0.93426692837E+02  0.31377761734E+02 -0.62415538236E+03  0.63188848083E+03  0.00000000000E+00 0. -1.
          1    1    1    2  502    0  0.34496754577E+02 -0.65347603438E+01  0.15882788724E+04  0.15886668958E+04  0.00000000000E+00 0. -1.
         22    1    3    3    0    0 -0.14582617017E+03 -0.30221215749E+02  0.51907639378E+02  0.15771175230E+03  0.00000000000E+00 0. -1.
         22    1    3    3    0    0  0.17902722757E+02  0.53782143591E+01 -0.18075450598E+02  0.26002972640E+02  0.00000000000E+00 0. -1.
</event>
<event>
 7    1  0.6597701E-006  0.1823952E+03  0.7818608E-02  0.1183470E+00
          2   -1    0    0  502    0  0.00000000000E+00  0.00000000000E+00  0.10247254193E+04  0.10247254193E+04  0.00000000000E+00 0. -1.
          1   -1    0    0  501    0 -0.00000000000E+00 -0.00000000000E+00 -0.73540166331E+03  0.73540166331E+03  0.00000000000E+00 0. -1.
         25    2    1    2    0    0 -0.40901565844E+02 -0.29422810801E+03  0.94470173966E+02  0.33585055746E+03  0.12501146166E+03 0.  0.
          2    1    1    2  501    0 -0.44723796459E+02  0.14187373135E+03 -0.59603029958E+03  0.61431302415E+03  0.00000000000E+00 0. -1.
          1    1    1    2  502    0  0.85625362303E+02  0.15235437666E+03  0.79088388163E+03  0.80996350102E+03  0.00000000000E+00 0. -1.
         22    1    3    3    0    0 -0.48348481868E+02 -0.22077569533E+03  0.13700315143E+02  0.22642257392E+03  0.00000000000E+00 0. -1.
         22    1    3    3    0    0  0.74469160239E+01 -0.73452412681E+02  0.80769858823E+02  0.10942798354E+03  0.00000000000E+00 0. -1.
</event>
<event>
 7    1  0.6597701E-006  0.1867820E+03  0.7818608E-02  0.1254497E+00
          2   -1    0    0  502    0  0.00000000000E+00  0.00000000000E+00  0.40756654556E+03  0.40756654556E+03  0.00000000000E+00 0. -1.
          1   -1    0    0  501    0 -0.00000000000E+00 -0.00000000000E+00 -0.48379220841E+03  0.48379220841E+03  0.00000000000E+00 0. -1.
         25    2    1    2    0    0  0.24379834641E+02 -0.13548589827E+03  0.18087136822E+03  0.25940419010E+03  0.12500110811E+03 0.  0.
          2    1    1    2  501    0 -0.81572681905E+02  0.17369478034E+03 -0.41637101358E+03  0.45846352101E+03  0.00000000000E+00 0. -1.
          1    1    1    2  502    0  0.57192847264E+02 -0.38208882067E+02  0.15927398251E+03  0.17349104286E+03  0.00000000000E+00 0. -1.
         22    1    3    3    0    0  0.48060102963E+02 -0.11832100995E+02  0.94648156908E+02  0.10680845340E+03  0.00000000000E+00 0.  1.
         22    1    3    3    0    0 -0.23680268322E+02 -0.12365379728E+03  0.86223211315E+02  0.15259573670E+03  0.00000000000E+00 0.  1.
</event>
<event>
 7    1  0.6597701E-006  0.1371910E+03  0.7818608E-02  0.1350696E+00
          2   -1    0    0  502    0  0.00000000000E+00  0.00000000000E+00  0.39772080789E+03  0.39772080789E+03  0.00000000000E+00 0. -1.
          1   -1    0    0  501    0 -0.00000000000E+00 -0.00000000000E+00 -0.45745067300E+03  0.45745067300E+03  0.00000000000E+00 0. -1.
         25    2    1    2    0    0 -0.71352161530E+02 -0.11535905246E+03  0.10326392567E+03  0.21139297168E+03  0.12499883276E+03 0.  0.
          2    1    1    2  501    0  0.36776848339E+02  0.13268326009E+03 -0.38995379335E+03  0.41354727062E+03  0.00000000000E+00 0. -1.
          1    1    1    2  502    0  0.34575313191E+02 -0.17324207629E+02  0.22696000258E+03  0.23023123859E+03  0.00000000000E+00 0. -1.
         22    1    3    3    0    0 -0.47665353326E+02 -0.11045963601E+03  0.16634029225E+02  0.12144961104E+03  0.00000000000E+00 0.  1.
         22    1    3    3    0    0 -0.23686808204E+02 -0.48994164541E+01  0.86629896446E+02  0.89943360638E+02  0.00000000000E+00 0.  1.
</event>
<event>
 7    1  0.6597701E-006  0.2488583E+03  0.7818608E-02  0.1166823E+00
          2   -1    0    0  502    0  0.00000000000E+00  0.00000000000E+00  0.22197239503E+04  0.22197239503E+04  0.00000000000E+00 0. -1.
          1   -1    0    0  501    0 -0.00000000000E+00 -0.00000000000E+00 -0.14574093320E+04  0.14574093320E+04  0.00000000000E+00 0. -1.
         25    2    1    2    0    0 -0.27600726579E+03  0.12317746422E+03 -0.43341971097E+03  0.54298240485E+03  0.12499819062E+03 0.  0.
          2    1    1    2  501    0  0.27574458688E+02 -0.12874936648E+03 -0.95755764297E+03  0.96656784022E+03  0.00000000000E+00 0. -1.
          1    1    1    2  502    0  0.24843280710E+03  0.55719022594E+01  0.21532919723E+04  0.21675830373E+04  0.00000000000E+00 0. -1.
         22    1    3    3    0    0 -0.11741325352E+03  0.10767622334E+03 -0.27786479868E+03  0.32029500077E+03  0.00000000000E+00 0.  1.
         22    1    3    3    0    0 -0.15859401227E+03  0.15501240878E+02 -0.15555491230E+03  0.22268740408E+03  0.00000000000E+00 0.  1.
</event>
<event>
 7    1  0.6597701E-006  0.3391859E+02  0.7818608E-02  0.1622686E+00
          2   -1    0    0  502    0  0.00000000000E+00  0.00000000000E+00  0.72265555263E+03  0.72265555263E+03  0.00000000000E+00 0. -1.
          1   -1    0    0  501    0 -0.00000000000E+00 -0.00000000000E+00 -0.12043075961E+03  0.12043075961E+03  0.00000000000E+00 0. -1.
         25    2    1    2    0    0  0.27512267446E+02  0.49416034525E+02  0.42382031213E+03  0.44547406710E+03  0.12499847262E+03 0.  0.
          2    1    1    2  501    0 -0.18190166790E+02 -0.28467732383E+02 -0.10652914116E+03  0.11175755845E+03  0.00000000000E+00 0. -1.
          1    1    1    2  502    0 -0.93221006559E+01 -0.20948302142E+02  0.28493362205E+03  0.28585468669E+03  0.00000000000E+00 0. -1.
         22    1    3    3    0    0  0.76647266711E+02  0.19373232222E+02  0.26459622481E+03  0.27615446367E+03  0.00000000000E+00 0. -1.
         22    1    3    3    0    0 -0.49134999266E+02  0.30042802303E+02  0.15922408732E+03  0.16931960343E+03  0.00000000000E+00 0. -1.
</event>
<event>
 7    1  0.6597701E-006  0.1375145E+03  0.7818608E-02  0.1397960E+00
          2   -1    0    0  502    0  0.00000000000E+00  0.00000000000E+00  0.17119072098E+03  0.17119072098E+03  0.00000000000E+00 0. -1.
          1   -1    0    0  501    0 -0.00000000000E+00 -0.00000000000E+00 -0.15368131668E+04  0.15368131668E+04  0.00000000000E+00 0. -1.
         25    2    1    2    0    0  0.11566945232E+03 -0.97204974907E+02 -0.77653914453E+02  0.21090890813E+03  0.12499683097E+03 0.  0.
          2    1    1    2  501    0 -0.23580427806E+01  0.26045801939E+02 -0.13495486511E+04  0.13498020246E+04  0.00000000000E+00 0. -1.
          1    1    1    2  502    0 -0.11331140954E+03  0.71159172968E+02  0.61580119741E+02  0.14729295495E+03  0.00000000000E+00 0. -1.
         22    1    3    3    0    0  0.72775917565E+02 -0.11315368903E+03 -0.91959877895E+02  0.16296229828E+03  0.00000000000E+00 0.  1.
         22    1    3    3    0    0  0.42893534759E+02  0.15948714125E+02  0.14305963442E+02  0.47946609852E+02  0.00000000000E+00 0.  1.
</event>
<event>
 7    1  0.6597701E-006  0.7327437E+02  0.7818608E-02  0.1406543E+00
          2   -1    0    0  502    0  0.00000000000E+00  0.00000000000E+00  0.49251254967E+03  0.49251254967E+03  0.00000000000E+00 0. -1.
          1   -1    0    0  501    0 -0.00000000000E+00 -0.00000000000E+00 -0.18003773807E+04  0.18003773807E+04  0.00000000000E+00 0. -1.
         25    2    1    2    0    0 -0.61343102012E+02 -0.52832002328E+02 -0.16734162648E+02  0.14986334770E+03  0.12499917660E+03 0.  0.
          2    1    1    2  501    0 -0.11659581219E+02  0.44359257150E+02 -0.17135993907E+04  0.17142131027E+04  0.00000000000E+00 0. -1.
          1    1    1    2  502    0  0.73002683231E+02  0.84727451782E+01  0.42246872240E+03  0.42881347994E+03  0.00000000000E+00 0. -1.
         22    1    3    3    0    0 -0.33578884595E+02 -0.60055671421E+01 -0.67371321076E+02  0.75514920585E+02  0.00000000000E+00 0.  1.
         22    1    3    3    0    0 -0.27764217417E+02 -0.46826435186E+02  0.50637158428E+02  0.74348427116E+02  0.00000000000E+00 0.  1.
</event>
<event>
 7    1  0.6597701E-006  0.9450030E+02  0.7818608E-02  0.1338431E+00
          2   -1    0    0  502    0  0.00000000000E+00  0.00000000000E+00  0.79332520848E+02  0.79332520848E+02  0.00000000000E+00 0. -1.
          1   -1    0    0  501    0 -0.00000000000E+00 -0.00000000000E+00 -0.21878924036E+04  0.21878924036E+04  0.00000000000E+00 0. -1.
         25    2    1    2    0    0 -0.52035516116E+02  0.12772450326E+03 -0.53543018866E+03  0.56686117757E+03  0.12499945614E+03 0.  0.
          2    1    1    2  501    0 -0.12083856252E+02 -0.61209109800E+02 -0.16022735283E+04  0.16034877718E+04  0.00000000000E+00 0. -1.
          1    1    1    2  502    0  0.64119372369E+02 -0.66515393465E+02  0.29143834215E+02  0.96875975110E+02  0.00000000000E+00 0. -1.
         22    1    3    3    0    0 -0.17638073987E+01  0.32449746530E+01 -0.26419920630E+03  0.26422502055E+03  0.00000000000E+00 0. -1.
         22    1    3    3    0    0 -0.50271708717E+02  0.12447952861E+03 -0.27123098236E+03  0.30263615701E+03  0.00000000000E+00 0. -1.
</event>
<event>
 7    1  0.6597701E-006  0.1056218E+03  0.7818608E-02  0.1381189E+00
          2   -1    0    0  502    0  0.00000000000E+00  0.00000000000E+00  0.18676136110E+03  0.18676136110E+03  0.00000000000E+00 0. -1.
          1   -1    0    0  501    0 -0.00000000000E+00 -0.00000000000E+00 -0.19612711048E+04  0.19612711048E+04  0.00000000000E+00 0. -1.
         25    2    1    2    0    0  0.44074316332E+02 -0.52322228796E+02  0.15370119792E+01  0.14250621573E+03  0.12500199250E+03 0.  0.
          2    1    1    2  501    0 -0.76439091652E+02  0.74019094724E+02 -0.18859350808E+04  0.18889343266E+04  0.00000000000E+00 0. -1.
          1    1    1    2  502    0  0.32364775319E+02 -0.21696865928E+02  0.10988832507E+03  0.11659192364E+03  0.00000000000E+00 0. -1.
         22    1    3    3    0    0  0.10319092429E+02 -0.89471530094E+02 -0.11098243623E+02  0.90745850469E+02  0.00000000000E+00 0. -1.
         22    1    3    3    0    0  0.33755223903E+02  0.37149301298E+02  0.12635255602E+02  0.51760365259E+02  0.00000000000E+00 0. -1.
</event>
<event>
 7    1  0.6597701E-006  0.5109506E+02  0.7818608E-02  0.1474503E+00
          2   -1    0    0  502    0  0.00000000000E+00  0.00000000000E+00  0.16767184082E+04  0.16767184082E+04  0.00000000000E+00 0. -1.
          1   -1    0    0  501    0 -0.00000000000E+00 -0.00000000000E+00 -0.20393947957E+04  0.20393947957E+04  0.00000000000E+00 0. -1.
         25    2    1    2    0    0  0.50793582720E+02  0.30156832388E+02  0.22630032146E+02  0.14009404843E+03  0.12499920585E+03 0.  0.
          2    1    1    2  501    0 -0.52849209424E+00 -0.39583086012E+02 -0.19800550448E+04  0.19804507266E+04  0.00000000000E+00 0. -1.
          1    1    1    2  502    0 -0.50265090626E+02  0.94262536244E+01  0.15947486252E+04  0.15955684289E+04  0.00000000000E+00 0. -1.
         22    1    3    3    0    0  0.86123943498E+02  0.39361704119E+02 -0.42006461427E+01  0.94785667813E+02  0.00000000000E+00 0.  1.
         22    1    3    3    0    0 -0.35330360778E+02 -0.92048717309E+01  0.26830678288E+02  0.45308380612E+02  0.00000000000E+00 0.  1.
</event>
<event>
 7    1  0.6597701E-006  0.1039046E+03  0.7818608E-02  0.1398473E+00
          2   -1    0    0  502    0  0.00000000000E+00  0.00000000000E+00  0.11840321771E+03  0.11840321771E+03  0.00000000000E+00 0. -1.
          1   -1    0    0  501    0 -0.00000000000E+00 -0.00000000000E+00 -0.96059961172E+03  0.96059961172E+03  0.00000000000E+00 0. -1.
         25    2    1    2    0    0 -0.81285591506E+02  0.10364124725E+03 -0.22308469464E+03  0.28764568966E+03  0.12499762511E+03 0.  0.
          2    1    1    2  501    0  0.51097340778E+02 -0.86999796852E+02 -0.69800619445E+03  0.70526062585E+03  0.00000000000E+00 0. -1.
          1    1    1    2  502    0  0.30188250728E+02 -0.16641450398E+02  0.78894495085E+02  0.86096513913E+02  0.00000000000E+00 0. -1.
         22    1    3    3    0    0 -0.11228320996E+03  0.86580644174E+02 -0.20085851913E+03  0.24586148924E+03  0.00000000000E+00 0. -1.
         22    1    3    3    0    0  0.30997618454E+02  0.17060603076E+02 -0.22226175504E+02  0.41784200420E+02  0.00000000000E+00 0. -1.
</event>
<event>
 7    1  0.6597701E-006  0.9307181E+02  0.7818608E-02  0.1362961E+00
          2   -1    0    0  502    0  0.00000000000E+00  0.00000000000E+00  0.75140198590E+03  0.75140198590E+03  0.00000000000E+00 0. -1.
          1   -1    0    0  501    0 -0.00000000000E+00 -0.00000000000E+00 -0.34230510470E+03  0.34230510470E+03  0.00000000000E+00 0. -1.
         25    2    1    2    0    0 -0.38004544965E+02 -0.10875214227E+03  0.27414805161E+03  0.32257275005E+03  0.12499860393E+03 0.  0.
          2    1    1    2  501    0 -0.25840521003E+02  0.44428661021E+02 -0.31143274435E+03  0.31564535907E+03  0.00000000000E+00 0. -1.
          1    1    1    2  502    0  0.63845065968E+02  0.64323481254E+02  0.44638157395E+03  0.45548898148E+03  0.00000000000E+00 0. -1.
         22    1    3    3    0    0 -0.55231364435E+02 -0.75703582149E+01  0.45550481269E+02  0.71990695821E+02  0.00000000000E+00 0. -1.
         22    1    3    3    0    0  0.17226819470E+02 -0.10118178406E+03  0.22859757034E+03  0.25058205423E+03  0.00000000000E+00 0. -1.
</event>
<event>
 7    1  0.6597701E-006  0.6835129E+02  0.7818608E-02  0.1370180E+00
          2   -1    0    0  502    0  0.00000000000E+00  0.00000000000E+00  0.61432142764E+03  0.61432142764E+03  0.00000000000E+00 0. -1.
          1   -1    0    0  501    0 -0.00000000000E+00 -0.00000000000E+00 -0.44739082225E+03  0.44739082225E+03  0.00000000000E+00 0. -1.
         25    2    1    2    0    0 -0.20394743815E+02 -0.26255816236E+02 -0.96068863379E+02  0.16112144268E+03  0.12500231725E+03 0.  0.
          2    1    1    2  501    0 -0.29340133282E+02  0.69499043501E+02 -0.31242537169E+03  0.32140406554E+03  0.00000000000E+00 0. -1.
          1    1    1    2  502    0  0.49734877097E+02 -0.43243227265E+02  0.57542484046E+03  0.57918674167E+03  0.00000000000E+00 0. -1.
         22    1    3    3    0    0 -0.62650005898E+02 -0.49909926236E+02 -0.50928315381E+02  0.94919530569E+02  0.00000000000E+00 0.  1.
         22    1    3    3    0    0  0.42255262083E+02  0.23654109999E+02 -0.45140547998E+02  0.66201912111E+02  0.00000000000E+00 0.  1.
</event>
<event>
 7    1  0.6597701E-006  0.6859084E+02  0.7818608E-02  0.1441878E+00
          2   -1    0    0  502    0  0.00000000000E+00  0.00000000000E+00  0.10155468984E+04  0.10155468984E+04  0.00000000000E+00 0. -1.
          1   -1    0    0  501    0 -0.00000000000E+00 -0.00000000000E+00 -0.89863417163E+02  0.89863417163E+02  0.00000000000E+00 0. -1.
         25    2    1    2    0    0  0.79493806616E+02  0.58732152835E+02  0.50005857463E+03  0.52483475159E+03  0.12499682935E+03 0.  0.
          2    1    1    2  501    0 -0.35086574571E+02 -0.12945772276E+02 -0.70799540842E+02  0.80070192446E+02  0.00000000000E+00 0. -1.
          1    1    1    2  502    0 -0.44407232045E+02 -0.45786380559E+02  0.49642444749E+03  0.50050537157E+03  0.00000000000E+00 0. -1.
         22    1    3    3    0    0  0.10004725001E+03  0.72150084039E+02  0.47056600289E+03  0.48646423295E+03  0.00000000000E+00 0. -1.
         22    1    3    3    0    0 -0.20553443390E+02 -0.13417931204E+02  0.29492571738E+02  0.38370518640E+02  0.00000000000E+00 0. -1.
</event>
<event>
 7    1  0.6597701E-006  0.4633177E+02  0.7818608E-02  0.1583877E+00
          2   -1    0    0  502    0  0.00000000000E+00  0.00000000000E+00  0.36765268863E+02  0.36765268863E+02  0.00000000000E+00 0. -1.
          1   -1    0    0  501    0 -0.00000000000E+00 -0.00000000000E+00 -0.93906968972E+03  0.93906968972E+03  0.00000000000E+00 0. -1.
         25    2    1    2    0    0  0.60485090100E+02  0.20787617264E+02 -0.23961106241E+03  0.27771960475E+03  0.12499658586E+03 0.  0.
          2    1    1    2  501    0 -0.16679110237E+02 -0.13054161751E+02 -0.65202717325E+03  0.65237108957E+03  0.00000000000E+00 0. -1.
          1    1    1    2  502    0 -0.43805979863E+02 -0.77334555134E+01 -0.10666185196E+02  0.45744264258E+02  0.00000000000E+00 0. -1.
         22    1    3    3    0    0  0.63012241758E+02 -0.40223209962E+02 -0.16615388791E+03  0.18219649749E+03  0.00000000000E+00 0. -1.
         22    1    3    3    0    0 -0.25271516579E+01  0.61010827226E+02 -0.73457174506E+02  0.95523107260E+02  0.00000000000E+00 0. -1.
</event>
<event>
 7    1  0.6597701E-006  0.1100979E+03  0.7818608E-02  0.1399172E+00
          2   -1    0    0  502    0  0.00000000000E+00  0.00000000000E+00  0.12137923082E+04  0.12137923082E+04  0.00000000000E+00 0. -1.
          1   -1    0    0  501    0 -0.00000000000E+00 -0.00000000000E+00 -0.46165738905E+03  0.46165738905E+03  0.00000000000E+00 0. -1.
         25    2    1    2    0    0 -0.62026649916E+02  0.11021663239E+03  0.35572896765E+03  0.39770046053E+03  0.12501018570E+03 0.  0.
          2    1    1    2  501    0  0.74780120838E+02 -0.80484261742E+02 -0.43350418789E+03  0.44720874743E+03  0.00000000000E+00 0. -1.
          1    1    1    2  502    0 -0.12753470923E+02 -0.29732370649E+02  0.82991013942E+03  0.83054048932E+03  0.00000000000E+00 0. -1.
         22    1    3    3    0    0 -0.85833815582E+01  0.11924697018E+03  0.28108078795E+03  0.30545036207E+03  0.00000000000E+00 0.  1.
         22    1    3    3    0    0 -0.53443268357E+02 -0.90303377906E+01  0.74648179696E+02  0.92250098457E+02  0.00000000000E+00 0.  1.
</event>
<event>
 7    1  0.6597701E-006  0.9626645E+02  0.7818608E-02  0.1291888E+00
          2   -1    0    0  502    0  0.00000000000E+00  0.00000000000E+00  0.57189810228E+03  0.57189810228E+03  0.00000000000E+00 0. -1.
          1   -1    0    0  501    0 -0.00000000000E+00 -0.00000000000E+00 -0.95445462787E+03  0.95445462787E+03  0.00000000000E+00 0. -1.
         25    2    1    2    0    0 -0.18057842901E+03 -0.34524743947E+02 -0.12298257807E+03  0.25407381665E+03  0.12501305064E+03 0.  0.
          2    1    1    2  501    0  0.93125990973E+02 -0.73518042440E+00 -0.75866448961E+03  0.76435907693E+03  0.00000000000E+00 0. -1.
          1    1    1    2  502    0  0.87452438037E+02  0.35259924372E+02  0.49909054209E+03  0.50791983658E+03  0.00000000000E+00 0. -1.
         22    1    3    3    0    0  0.85070782953E+01 -0.18586650380E+02  0.96053787436E+01  0.22585332724E+02  0.00000000000E+00 0.  1.
         22    1    3    3    0    0 -0.18908550731E+03 -0.15938093568E+02 -0.13258795681E+03  0.23148848393E+03  0.00000000000E+00 0.  1.
</event>
<event>
 7    1  0.6597701E-006  0.3550137E+03  0.7818608E-02  0.1127595E+00
          2   -1    0    0  502    0  0.00000000000E+00  0.00000000000E+00  0.76146086404E+03  0.76146086404E+03  0.00000000000E+00 0. -1.
          1   -1    0    0  501    0 -0.00000000000E+00 -0.00000000000E+00 -0.11592878492E+04  0.11592878492E+04  0.00000000000E+00 0. -1.
         25    2    1    2    0    0 -0.20984417130E+03  0.27899444170E+03 -0.16710153550E+03  0.40671974112E+03  0.12500219967E+03 0.  0.
          2    1    1    2  501    0  0.31746022077E+03 -0.17847138841E+03 -0.82498524505E+03  0.90179470102E+03  0.00000000000E+00 0. -1.
          1    1    1    2  502    0 -0.10761604947E+03 -0.10052305330E+03  0.59425979536E+03  0.61223427112E+03  0.00000000000E+00 0. -1.
         22    1    3    3    0    0 -0.41466304011E+02  0.29310479678E+01 -0.44503748522E+02  0.60898514292E+02  0.00000000000E+00 0.  1.
         22    1    3    3    0    0 -0.16837786729E+03  0.27606339374E+03 -0.12259778698E+03  0.34582122683E+03  0.00000000000E+00 0.  1.
</event>
<event>
 7    1  0.6597701E-006  0.3034038E+03  0.7818608E-02  0.1252685E+00
          2   -1    0    0  502    0  0.00000000000E+00  0.00000000000E+00  0.20638173406E+04  0.20638173406E+04  0.00000000000E+00 0. -1.
          1   -1    0    0  501    0 -0.00000000000E+00 -0.00000000000E+00 -0.72319205252E+03  0.72319205252E+03  0.00000000000E+00 0. -1.
         25    2    1    2    0    0 -0.29545200463E+03 -0.71315684197E+02  0.69384687482E+03  0.76774028299E+03  0.12499537022E+03 0.  0.
          2    1    1    2  501    0  0.30215123837E+03  0.28726913610E+02 -0.65231061372E+03  0.71946490059E+03  0.00000000000E+00 0. -1.
          1    1    1    2  502    0 -0.66992337465E+01  0.42588770587E+02  0.12990890270E+04  0.12998042096E+04  0.00000000000E+00 0. -1.
         22    1    3    3    0    0 -0.24938174110E+03 -0.65273040990E+02  0.44230496366E+03  0.51194287138E+03  0.00000000000E+00 0.  1.
         22    1    3    3    0    0 -0.46070263526E+02 -0.60426432063E+01  0.25154191116E+03  0.25579741161E+03  0.00000000000E+00 0.  1.
</event>
<event>
 7    1  0.6597701E-006  0.6446998E+02  0.7818608E-02  0.1389271E+00
          2   -1    0    0  502    0  0.00000000000E+00  0.00000000000E+00  0.15067156833E+04  0.15067156833E+04  0.00000000000E+00 0. -1.
          1   -1    0    0  501    0 -0.00000000000E+00 -0.00000000000E+00 -0.73912234117E+03  0.73912234117E+03  0.00000000000E+00 0. -1.
         25    2    1    2    0    0 -0.77751931952E+02  0.65688955660E+02 -0.29108339183E+02  0.16380696767E+03  0.12500010171E+03 0.  0.
          2    1    1    2  501    0  0.63515874973E+02 -0.76135413181E+01 -0.64044955204E+03  0.64363643549E+03  0.00000000000E+00 0. -1.
          1    1    1    2  502    0  0.14236056979E+02 -0.58075414342E+02  0.14371512333E+04  0.14383946213E+04  0.00000000000E+00 0. -1.
         22    1    3    3    0    0 -0.50880081550E+02  0.79560862887E+02 -0.66657806201E+02  0.11559401684E+03  0.00000000000E+00 0. -1.
         22    1    3    3    0    0 -0.26871850402E+02 -0.13871907226E+02  0.37549467018E+02  0.48212950827E+02  0.00000000000E+00 0. -1.
</event>
<event>
 7    1  0.6597701E-006  0.1815408E+03  0.7818608E-02  0.1282740E+00
          2   -1    0    0  502    0  0.00000000000E+00  0.00000000000E+00  0.39198734076E+03  0.39198734076E+03  0.00000000000E+00 0. -1.
          1   -1    0    0  501    0 -0.00000000000E+00 -0.00000000000E+00 -0.56830163082E+03  0.56830163082E+03  0.00000000000E+00 0. -1.
         25    2    1    2    0    0  0.95332463378E+02 -0.16817929341E+03 -0.89586475111E+02  0.24702874992E+03  0.12499965383E+03 0.  0.
          2    1    1    2  501    0  0.33873054088E+02  0.41824677833E+02 -0.37183058683E+03  0.37570556660E+03  0.00000000000E+00 0. -1.
          1    1    1    2  502    0 -0.12920551747E+03  0.12635461558E+03  0.28510277188E+03  0.33755465506E+03  0.00000000000E+00 0. -1.
         22    1    3    3    0    0  0.66383804948E+02 -0.13201874490E+03 -0.18104429449E+01  0.14778036496E+03  0.00000000000E+00 0.  1.
         22    1    3    3    0    0  0.28948658430E+02 -0.36160548510E+02 -0.87776032166E+02  0.99248384955E+02  0.00000000000E+00 0.  1.
</event>
<event>
 7    1  0.6597701E-006  0.5980089E+02  0.7818608E-02  0.1475910E+00
          2   -1    0    0  502    0  0.00000000000E+00  0.00000000000E+00  0.11244625650E+04  0.11244625650E+04  0.00000000000E+00 0. -1.
          1   -1    0    0  501    0 -0.00000000000E+00 -0.00000000000E+00 -0.16008871448E+03  0.16008871448E+03  0.00000000000E+00 0. -1.
         25    2    1    2    0    0 -0.31233043497E+02 -0.63682275423E+02  0.58605220706E+03  0.60341704451E+03  0.12499601993E+03 0.  0.
          2    1    1    2  501    0  0.33151004483E+02  0.47310016281E+01 -0.14788666031E+03  0.15163058983E+03  0.00000000000E+00 0. -1.
          1    1    1    2  502    0 -0.19179609859E+01  0.58951273795E+02  0.52620830373E+03  0.52950364510E+03  0.00000000000E+00 0. -1.
         22    1    3    3    0    0 -0.58702531013E+01 -0.74974116320E+02  0.56101187327E+03  0.56602994615E+03  0.00000000000E+00 0.  1.
         22    1    3    3    0    0 -0.25362790395E+02  0.11291840897E+02  0.25040333790E+02  0.37387098360E+02  0.00000000000E+00 0.  1.
</event>
<event>
 7    1  0.6597701E-006  0.9890257E+02  0.7818608E-02  0.1416203E+00
          2   -1    0    0  502    0  0.00000000000E+00  0.00000000000E+00  0.55400674343E+03  0.55400674343E+03  0.00000000000E+00 0. -1.
          1   -1    0    0  501    0 -0.00000000000E+00 -0.00000000000E+00 -0.24800944906E+03  0.24800944906E+03  0.00000000000E+00 0. -1.
         25    2    1    2    0    0 -0.30994162158E+02 -0.71130835822E+02  0.60249706816E+01  0.14724559082E+03  0.12499891940E+03 0.  0.
          2    1    1    2  501    0 -0.30280420048E+02 -0.87465402592E+01 -0.17063207606E+03  0.17351861913E+03  0.00000000000E+00 0. -1.
          1    1    1    2  502    0  0.61274582207E+02  0.79877376081E+02  0.47060439974E+03  0.48125198253E+03  0.00000000000E+00 0. -1.
         22    1    3    3    0    0  0.18862931374E+02 -0.60330087408E+02  0.49447919782E+02  0.80253513303E+02  0.00000000000E+00 0. -1.
         22    1    3    3    0    0 -0.49857093532E+02 -0.10800748414E+02 -0.43422949101E+02  0.66992077520E+02  0.00000000000E+00 0. -1.
</event>
<event>
 7    1  0.6597701E-006  0.1391828E+03  0.7818608E-02  0.1338750E+00
          2   -1    0    0  502    0  0.00000000000E+00  0.00000000000E+00  0.93738028679E+03  0.93738028679E+03  0.00000000000E+00 0. -1.
          1   -1    0    0  501    0 -0.00000000000E+00 -0.00000000000E+00 -0.28523803933E+03  0.28523803933E+03  0.00000000000E+00 0. -1.
         25    2    1    2    0    0  0.87443780184E+02  0.15084330331E+03  0.76188147934E+02  0.22767980543E+03  0.12503336781E+03 0.  0.
          2    1    1    2  501    0 -0.51417019234E+01 -0.41929921661E+02 -0.20135217537E+03  0.20573588398E+03  0.00000000000E+00 0. -1.
          1    1    1    2  502    0 -0.82302078260E+02 -0.10891338165E+03  0.77730627490E+03  0.78920263671E+03  0.00000000000E+00 0. -1.
         22    1    3    3    0    0 -0.40761559839E+01 -0.45622172940E+01  0.44067296921E+02  0.44489948665E+02  0.00000000000E+00 0. -1.
         22    1    3    3    0    0  0.91519936168E+02  0.15540552060E+03  0.32120851013E+02  0.18318985676E+03  0.00000000000E+00 0. -1.
</event>
<event>
 7    1  0.6597701E-006  0.9617135E+02  0.7818608E-02  0.1403596E+00
          2   -1    0    0  502    0  0.00000000000E+00  0.00000000000E+00  0.79232233404E+02  0.79232233404E+02  0.00000000000E+00 0. -1.
          1   -1    0    0  501    0 -0.00000000000E+00 -0.00000000000E+00 -0.12781575069E+04  0.12781575069E+04  0.00000000000E+00 0. -1.
         25    2    1    2    0    0  0.49529017343E+02  0.67495366777E+02 -0.26260897479E+03  0.30265681857E+03  0.12501571137E+03 0.  0.
          2    1    1    2  501    0 -0.82446326730E+02 -0.53510938989E+02 -0.98745171232E+03  0.99233144742E+03  0.00000000000E+00 0. -1.
          1    1    1    2  502    0  0.32917309388E+02 -0.13984427787E+02  0.51135413583E+02  0.62401474343E+02  0.00000000000E+00 0. -1.
         22    1    3    3    0    0 -0.90243194750E+01  0.80672869375E+02 -0.96870702561E+02  0.12638624613E+03  0.00000000000E+00 0. -1.
         22    1    3    3    0    0  0.58553336818E+02 -0.13177502599E+02 -0.16573827223E+03  0.17627057244E+03  0.00000000000E+00 0. -1.
</event>
<event>
 7    1  0.6597701E-006  0.7241761E+02  0.7818608E-02  0.1429501E+00
          2   -1    0    0  502    0  0.00000000000E+00  0.00000000000E+00  0.26272518158E+04  0.26272518158E+04  0.00000000000E+00 0. -1.
          1   -1    0    0  501    0 -0.00000000000E+00 -0.00000000000E+00 -0.64571065363E+03  0.64571065363E+03  0.00000000000E+00 0. -1.
         25    2    1    2    0    0  0.57916654048E+02 -0.30122615948E+02  0.75374391962E+03  0.76682204303E+03  0.12499775399E+03 0.  0.
          2    1    1    2  501    0  0.16115784702E+02  0.35379508589E+02 -0.63784189030E+03  0.63902559038E+03  0.00000000000E+00 0. -1.
          1    1    1    2  502    0 -0.74032438750E+02 -0.52568926412E+01  0.18656391329E+04  0.18671148361E+04  0.00000000000E+00 0. -1.
         22    1    3    3    0    0  0.10358666281E+01 -0.20378829944E+02  0.62948938657E+03  0.62982001996E+03  0.00000000000E+00 0.  1.
         22    1    3    3    0    0  0.56880787420E+02 -0.97437860044E+01  0.12425453305E+03  0.13700202307E+03  0.00000000000E+00 0.  1.
</event>
<event>
 7    1  0.6597701E-006  0.1487163E+03  0.7818608E-02  0.1278070E+00
          2   -1    0    0  502    0  0.00000000000E+00  0.00000000000E+00  0.94198105308E+03  0.94198105308E+03  0.00000000000E+00 0. -1.
          1   -1    0    0  501    0 -0.00000000000E+00 -0.00000000000E+00 -0.77499693274E+03  0.77499693274E+03  0.00000000000E+00 0. -1.
         25    2    1    2    0    0  0.20209654123E+02  0.97883738498E+02  0.44654851864E+02  0.16617247400E+03  0.12501831442E+03 0.  0.
          2    1    1    2  501    0 -0.81062541866E+02 -0.12973184948E+03 -0.70460698527E+03  0.72102183889E+03  0.00000000000E+00 0. -1.
          1    1    1    2  502    0  0.60852887743E+02  0.31848110986E+02  0.82693625374E+03  0.82978367293E+03  0.00000000000E+00 0. -1.
         22    1    3    3    0    0 -0.12795408897E+02 -0.26821188557E+02  0.17023861152E+02  0.34247780847E+02  0.00000000000E+00 0. -1.
         22    1    3    3    0    0  0.33005063020E+02  0.12470492705E+03  0.27630990713E+02  0.13192469316E+03  0.00000000000E+00 0. -1.
</event>
<event>
 7    1  0.6597701E-006  0.8954761E+02  0.7818608E-02  0.1356322E+00
          2   -1    0    0  502    0  0.00000000000E+00  0.00000000000E+00  0.27350498060E+04  0.27350498060E+04  0.00000000000E+00 0. -1.
          1   -1    0    0  501    0 -0.00000000000E+00 -0.00000000000E+00 -0.13306886645E+04  0.13306886645E+04  0.00000000000E+00 0. -1.
         25    2    1    2    0    0  0.34491762211E+02 -0.88975320578E+02  0.11730979978E+04  0.11835925958E+04  0.12500492391E+03 0.  0.
          2    1    1    2  501    0  0.41693621891E+02  0.38109304821E+02 -0.13234907680E+04  0.13246956217E+04  0.00000000000E+00 0. -1.
          1    1    1    2  502    0 -0.76185384101E+02  0.50866015757E+02  0.15547539117E+04  0.15574502529E+04  0.00000000000E+00 0. -1.
         22    1    3    3    0    0 -0.11357233840E+02 -0.55700018989E+02  0.17742366877E+03  0.18630790943E+03  0.00000000000E+00 0.  1.
         22    1    3    3    0    0  0.45848996051E+02 -0.33275301589E+02  0.99567432906E+03  0.99728468637E+03  0.00000000000E+00 0.  1.
</event>
<event>
 7    1  0.6597701E-006  0.6797377E+03  0.7818608E-02  0.1213875E+00
          2   -1    0    0  502    0  0.00000000000E+00  0.00000000000E+00  0.10591315756E+04  0.10591315756E+04  0.00000000000E+00 0. -1.
          1   -1    0    0  501    0 -0.00000000000E+00 -0.00000000000E+00 -0.12447387408E+04  0.12447387408E+04  0.00000000000E+00 0. -1.
         25    2    1    2    0    0 -0.61282181110E+03 -0.34728132161E+03 -0.75488472398E+03  0.10400148153E+04  0.12499992403E+03 0.  0.
          2    1    1    2  501    0  0.27254591074E+02  0.88909643215E+01 -0.22148099524E+03  0.22332866640E+03  0.00000000000E+00 0. -1.
          1    1    1    2  502    0  0.58556722002E+03  0.33839035729E+03  0.79075855400E+03  0.10405268347E+04  0.00000000000E+00 0. -1.
         22    1    3    3    0    0 -0.58755646004E+03 -0.35788658809E+03 -0.72725104857E+03  0.10010991416E+04  0.00000000000E+00 0. -1.
         22    1    3    3    0    0 -0.25265351060E+02  0.10605266479E+02 -0.27633675405E+02  0.38915673676E+02  0.00000000000E+00 0. -1.
</event>
<event>
 7    1  0.6597701E-006  0.1658426E+03  0.7818608E-02  0.1262499E+00
          2   -1    0    0  502    0  0.00000000000E+00  0.00000000000E+00  0.99114177449E+03  0.99114177449E+03  0.00000000000E+00 0. -1.
          1   -1    0    0  501    0 -0.00000000000E+00 -0.00000000000E+00 -0.56549225929E+03  0.56549225929E+03  0.00000000000E+00 0. -1.
         25    2    1    2    0    0  0.23338795438E+03  0.21287640128E+02 -0.65502611723E+02  0.27356653263E+03  0.12499981905E+03 0.  0.
          2    1    1    2  501    0 -0.71059147926E+02 -0.87370922560E+01 -0.38516067253E+03  0.39175819449E+03  0.00000000000E+00 0. -1.
          1    1    1    2  502    0 -0.16232880645E+03 -0.12550547872E+02  0.87631279946E+03  0.89130930666E+03  0.00000000000E+00 0. -1.
         22    1    3    3    0    0  0.12189341803E+03 -0.50297862157E+02 -0.19426758637E+02  0.13328645561E+03  0.00000000000E+00 0. -1.
         22    1    3    3    0    0  0.11149453634E+03  0.71585502285E+02 -0.46075853086E+02  0.14028007702E+03  0.00000000000E+00 0. -1.
</event>
<event>
 7    1  0.6597701E-006  0.1416481E+03  0.7818608E-02  0.1339945E+00
          2   -1    0    0  502    0  0.00000000000E+00  0.00000000000E+00  0.30666749739E+04  0.30666749739E+04  0.00000000000E+00 0. -1.
          1   -1    0    0  501    0 -0.00000000000E+00 -0.00000000000E+00 -0.56940985644E+02  0.56940985644E+02  0.00000000000E+00 0. -1.
         25    2    1    2    0    0  0.89724258273E+02 -0.13108289405E+03  0.12386049008E+04  0.12549899608E+04  0.12499813503E+03 0.  0.
          2    1    1    2  501    0  0.12216936128E+02  0.39222127369E+02 -0.37006270032E+02  0.55290983220E+02  0.00000000000E+00 0. -1.
          1    1    1    2  502    0 -0.10194119440E+03  0.91860766678E+02  0.18081353575E+04  0.18133350155E+04  0.00000000000E+00 0. -1.
         22    1    3    3    0    0  0.10879055315E+03 -0.11668594430E+03  0.11918983327E+04  0.12025276003E+04  0.00000000000E+00 0.  1.
         22    1    3    3    0    0 -0.19066294875E+02 -0.14396949746E+02  0.46706568155E+02  0.52462360518E+02  0.00000000000E+00 0.  1.
</event>
<event>
 7    1  0.6597701E-006  0.6452237E+02  0.7818608E-02  0.1486836E+00
          2   -1    0    0  502    0  0.00000000000E+00  0.00000000000E+00  0.47836155887E+03  0.47836155887E+03  0.00000000000E+00 0. -1.
          1   -1    0    0  501    0 -0.00000000000E+00 -0.00000000000E+00 -0.37075219805E+03  0.37075219805E+03  0.00000000000E+00 0. -1.
         25    2    1    2    0    0  0.19739882146E+01  0.90688147558E+02  0.20604396941E+02  0.15581043869E+03  0.12499645953E+03 0.  0.
          2    1    1    2  501    0 -0.84238811809E+01 -0.27472871726E+02 -0.29987049711E+03  0.30124414599E+03  0.00000000000E+00 0. -1.
          1    1    1    2  502    0  0.64498929662E+01 -0.63215275831E+02  0.38687546099E+03  0.39205917223E+03  0.00000000000E+00 0. -1.
         22    1    3    3    0    0  0.54043423332E+02  0.44268446393E+02  0.43614379376E+02  0.82356548251E+02  0.00000000000E+00 0. -1.
         22    1    3    3    0    0 -0.52069435117E+02  0.46419701165E+02 -0.23009982434E+02  0.73453890443E+02  0.00000000000E+00 0. -1.
</event>
<event>
 7    1  0.6597701E-006  0.6323428E+02  0.7818608E-02  0.1407423E+00
          2   -1    0    0  502    0  0.00000000000E+00  0.00000000000E+00  0.91976967309E+03  0.91976967309E+03  0.00000000000E+00 0. -1.
          1   -1    0    0  501    0 -0.00000000000E+00 -0.00000000000E+00 -0.30418852283E+03  0.30418852283E+03  0.00000000000E+00 0. -1.
         25    2    1    2    0    0 -0.63601957079E+02  0.27222192892E+02  0.32939615006E+03  0.35904400041E+03  0.12499805527E+03 0.  0.
          2    1    1    2  501    0  0.40787762668E+02  0.33502802026E+02 -0.28510661553E+03  0.28995148136E+03  0.00000000000E+00 0. -1.
          1    1    1    2  502    0  0.22814194411E+02 -0.60724994918E+02  0.57129161572E+03  0.57496271415E+03  0.00000000000E+00 0. -1.
         22    1    3    3    0    0 -0.72198264698E+02 -0.13853474467E+02  0.91013062796E+02  0.11699523828E+03  0.00000000000E+00 0. -1.
         22    1    3    3    0    0  0.85963076193E+01  0.41075667358E+02  0.23838308727E+03  0.24204876213E+03  0.00000000000E+00 0. -1.
</event>
<event>
 7    1  0.6597701E-006  0.8831861E+02  0.7818608E-02  0.1318692E+00
          2   -1    0    0  502    0  0.00000000000E+00  0.00000000000E+00  0.10186859991E+04  0.10186859991E+04  0.00000000000E+00 0. -1.
          1   -1    0    0  501    0 -0.00000000000E+00 -0.00000000000E+00 -0.20235926299E+03  0.20235926299E+03  0.00000000000E+00 0. -1.
         25    2    1    2    0    0 -0.22847035917E+02  0.22500687340E+02 -0.28223013898E+02  0.13209808774E+03  0.12500039316E+03 0.  0.
          2    1    1    2  501    0 -0.96031272561E+01 -0.10464180522E+03 -0.97153419991E+02  0.14311154555E+03  0.00000000000E+00 0. -1.
          1    1    1    2  502    0  0.32450163173E+02  0.82141117879E+02  0.94170316998E+03  0.94583562879E+03  0.00000000000E+00 0. -1.
         22    1    3    3    0    0 -0.11152375823E+02  0.54753319764E+02  0.30818359890E+02  0.63812795096E+02  0.00000000000E+00 0. -1.
         22    1    3    3    0    0 -0.11694660095E+02 -0.32252632425E+02 -0.59041373788E+02  0.68285292647E+02  0.00000000000E+00 0. -1.
</event>
<event>
 7    1  0.6597701E-006  0.7632766E+02  0.7818608E-02  0.1362976E+00
          2   -1    0    0  502    0  0.00000000000E+00  0.00000000000E+00  0.12718285574E+04  0.12718285574E+04  0.00000000000E+00 0. -1.
          1   -1    0    0  501    0 -0.00000000000E+00 -0.00000000000E+00 -0.15285303980E+04  0.15285303980E+04  0.00000000000E+00 0. -1.
         25    2    1    2    0    0  0.61781865360E+02 -0.12114077440E+02  0.11350226312E+03  0.18019984251E+03  0.12500187898E+03 0.  0.
          2    1    1    2  501    0 -0.34338504888E+02  0.68449113000E+02 -0.14933270874E+04  0.14952893379E+04  0.00000000000E+00 0. -1.
          1    1    1    2  502    0 -0.27443360472E+02 -0.56335035561E+02  0.11231229837E+04  0.11248697750E+04  0.00000000000E+00 0. -1.
         22    1    3    3    0    0  0.88232412148E+02 -0.41512522504E+02  0.63144096965E+02  0.11616981131E+03  0.00000000000E+00 0. -1.
         22    1    3    3    0    0 -0.26450546787E+02  0.29398445064E+02  0.50358166153E+02  0.64030031203E+02  0.00000000000E+00 0. -1.
</event>
<event>
 7    1  0.6597701E-006  0.9070310E+02  0.7818608E-02  0.1382107E+00
          2   -1    0    0  502    0  0.00000000000E+00  0.00000000000E+00  0.40819236489E+03  0.40819236489E+03  0.00000000000E+00 0. -1.
          1   -1    0    0  501    0 -0.00000000000E+00 -0.00000000000E+00 -0.16110171021E+04  0.16110171021E+04  0.00000000000E+00 0. -1.
         25    2    1    2    0    0  0.48878740607E+02  0.31141777618E+02 -0.13582544519E+02  0.13844819544E+03  0.12499790282E+03 0.  0.
          2    1    1    2  501    0 -0.90469321582E+02 -0.13865561161E+02 -0.15321637707E+04  0.15348950362E+04  0.00000000000E+00 0. -1.
          1    1    1    2  502    0  0.41590580975E+02 -0.17276216457E+02  0.34292157801E+03  0.34586623534E+03  0.00000000000E+00 0. -1.
         22    1    3    3    0    0  0.64381947212E+02  0.41893904730E+02  0.36416724647E+02  0.85007718557E+02  0.00000000000E+00 0.  1.
         22    1    3    3    0    0 -0.15503206605E+02 -0.10752127112E+02 -0.49999269166E+02  0.53440476884E+02  0.00000000000E+00 0.  1.
</event>
<event>
 7    1  0.6597701E-006  0.3757075E+02  0.7818608E-02  0.1554136E+00
          2   -1    0    0  502    0  0.00000000000E+00  0.00000000000E+00  0.84020645930E+03  0.84020645930E+03  0.00000000000E+00 0. -1.
          1   -1    0    0  501    0 -0.00000000000E+00 -0.00000000000E+00 -0.34357944005E+03  0.34357944005E+03  0.00000000000E+00 0. -1.
         25    2    1    2    0    0  0.44935975581E+02  0.11008958705E+02  0.36532357219E+03  0.38887808298E+03  0.12499764780E+03 0.  0.
          2    1    1    2  501    0 -0.11839724171E+02 -0.29156120121E+02 -0.33028399240E+03  0.33177970710E+03  0.00000000000E+00 0. -1.
          1    1    1    2  502    0 -0.33096251410E+02  0.18147161416E+02  0.46158743946E+03  0.46312810927E+03  0.00000000000E+00 0. -1.
         22    1    3    3    0    0  0.81634655157E+02  0.15390740615E+02  0.16026946887E+03  0.18051978969E+03  0.00000000000E+00 0. -1.
         22    1    3    3    0    0 -0.36698679575E+02 -0.43817819093E+01  0.20505410332E+03  0.20835829329E+03  0.00000000000E+00 0. -1.
</event>
<event>
 7    1  0.6597701E-006  0.3433510E+02  0.7818608E-02  0.1554873E+00
          2   -1    0    0  502    0  0.00000000000E+00  0.00000000000E+00  0.24471729090E+03  0.24471729090E+03  0.00000000000E+00 0. -1.
          1   -1    0    0  501    0 -0.00000000000E+00 -0.00000000000E+00 -0.47709408826E+03  0.47709408826E+03  0.00000000000E+00 0. -1.
         25    2    1    2    0    0 -0.27138685423E+02 -0.27671225890E+01 -0.14694051475E+03  0.19485101718E+03  0.12502495273E+03 0.  0.
          2    1    1    2  501    0  0.18105116799E+02 -0.30293052237E+02 -0.30384066222E+03  0.30588333117E+03  0.00000000000E+00 0. -1.
          1    1    1    2  502    0  0.90335686234E+01  0.33060174826E+02  0.21840437961E+03  0.22107703081E+03  0.00000000000E+00 0. -1.
         22    1    3    3    0    0  0.36688472436E+00 -0.10927209834E+02  0.21427674095E+02  0.24055846197E+02  0.00000000000E+00 0. -1.
         22    1    3    3    0    0 -0.27505570147E+02  0.81600872453E+01 -0.16836818885E+03  0.17079517098E+03  0.00000000000E+00 0. -1.
</event>
<event>
 7    1  0.6597701E-006  0.6171832E+02  0.7818608E-02  0.1418637E+00
          2   -1    0    0  502    0  0.00000000000E+00  0.00000000000E+00  0.22402300115E+03  0.22402300115E+03  0.00000000000E+00 0. -1.
          1   -1    0    0  501    0 -0.00000000000E+00 -0.00000000000E+00 -0.16868232534E+03  0.16868232534E+03  0.00000000000E+00 0. -1.
         25    2    1    2    0    0 -0.17029675009E+02  0.21885811268E+02 -0.22655737194E+02  0.13002883934E+03  0.12500087226E+03 0.  0.
          2    1    1    2  501    0  0.24749045534E+02  0.42946801699E+02 -0.78650887718E+02  0.92967226321E+02  0.00000000000E+00 0. -1.
          1    1    1    2  502    0 -0.77193705251E+01 -0.64832612967E+02  0.15664730073E+03  0.16970926083E+03  0.00000000000E+00 0. -1.
         22    1    3    3    0    0 -0.59629292607E+02  0.30121344991E+02 -0.45660888028E+02  0.80918877009E+02  0.00000000000E+00 0. -1.
         22    1    3    3    0    0  0.42599617598E+02 -0.82355337233E+01  0.23005150834E+02  0.49109962331E+02  0.00000000000E+00 0. -1.
</event>
<event>
 7    1  0.6597701E-006  0.4556463E+02  0.7818608E-02  0.1473728E+00
          2   -1    0    0  502    0  0.00000000000E+00  0.00000000000E+00  0.14436556012E+04  0.14436556012E+04  0.00000000000E+00 0. -1.
          1   -1    0    0  501    0 -0.00000000000E+00 -0.00000000000E+00 -0.63556770073E+03  0.63556770073E+03  0.00000000000E+00 0. -1.
         25    2    1    2    0    0  0.29761025567E-01 -0.13190193720E+01 -0.84913910456E+02  0.15111937937E+03  0.12499981573E+03 0.  0.
          2    1    1    2  501    0  0.27350328910E+02 -0.35276242998E+02 -0.51621744622E+03  0.51814371133E+03  0.00000000000E+00 0. -1.
          1    1    1    2  502    0 -0.27380089936E+02  0.36595262370E+02  0.14092192572E+04  0.14099602113E+04  0.00000000000E+00 0. -1.
         22    1    3    3    0    0 -0.71599502333E+00 -0.62515350418E+02 -0.53711808500E+02  0.82423540686E+02  0.00000000000E+00 0. -1.
         22    1    3    3    0    0  0.74575604890E+00  0.61196331046E+02 -0.31202101955E+02  0.68695838680E+02  0.00000000000E+00 0. -1.
</event>
<event>
 7    1  0.6597701E-006  0.5899459E+03  0.7818608E-02  0.1200741E+00
          2   -1    0    0  502    0  0.00000000000E+00  0.00000000000E+00  0.13784742361E+04  0.13784742361E+04  0.00000000000E+00 0. -1.
          1   -1    0    0  501    0 -0.00000000000E+00 -0.00000000000E+00 -0.78826380757E+03  0.78826380757E+03  0.00000000000E+00 0. -1.
         25    2    1    2    0    0  0.48252070321E+03  0.39277952782E+03  0.59274094620E+03  0.86837061674E+03  0.12499484874E+03 0.  0.
          2    1    1    2  501    0 -0.45258463093E+03 -0.36932747614E+03 -0.51845401237E+03  0.78104429818E+03  0.00000000000E+00 0. -1.
          1    1    1    2  502    0 -0.29936072280E+02 -0.23452051683E+02  0.51592349473E+03  0.51732312878E+03  0.00000000000E+00 0. -1.
         22    1    3    3    0    0  0.31366946665E+03  0.22399373852E+03  0.28750137594E+03  0.48085212942E+03  0.00000000000E+00 0. -1.
         22    1    3    3    0    0  0.16885123656E+03  0.16878578930E+03  0.30523957026E+03  0.38751848731E+03  0.00000000000E+00 0. -1.
</event>
<event>
 7    1  0.6597701E-006  0.7256965E+02  0.7818608E-02  0.1474273E+00
          2   -1    0    0  502    0  0.00000000000E+00  0.00000000000E+00  0.14523820924E+04  0.14523820924E+04  0.00000000000E+00 0. -1.
          1   -1    0    0  501    0 -0.00000000000E+00 -0.00000000000E+00 -0.10453572388E+04  0.10453572388E+04  0.00000000000E+00 0. -1.
         25    2    1    2    0    0  0.47079363441E+02  0.85203707882E+02  0.19395876176E+03  0.25046246356E+03  0.12504121756E+03 0.  0.
          2    1    1    2  501    0 -0.44121779135E+02 -0.57442893150E+02 -0.10156570798E+04  0.10182365743E+04  0.00000000000E+00 0. -1.
          1    1    1    2  502    0 -0.29575843056E+01 -0.27760814732E+02  0.12287231716E+04  0.12290402934E+04  0.00000000000E+00 0. -1.
         22    1    3    3    0    0 -0.36664657312E+02  0.19541194333E+02  0.10081232844E+03  0.10903797933E+03  0.00000000000E+00 0. -1.
         22    1    3    3    0    0  0.83744020753E+02  0.65662513549E+02  0.93146433324E+02  0.14142448423E+03  0.00000000000E+00 0. -1.
</event>
<event>
 7    1  0.6597701E-006  0.6196863E+02  0.7818608E-02  0.1419249E+00
          2   -1    0    0  502    0  0.00000000000E+00  0.00000000000E+00  0.36008565878E+03  0.36008565878E+03  0.00000000000E+00 0. -1.
          1   -1    0    0  501    0 -0.00000000000E+00 -0.00000000000E+00 -0.92804765111E+03  0.92804765111E+03  0.00000000000E+00 0. -1.
         25    2    1    2    0    0  0.48663734430E+02 -0.93190907339E+02 -0.46218362597E+03  0.49019354607E+03  0.12499321673E+03 0.  0.
          2    1    1    2  501    0 -0.30805574505E+02  0.47415757927E+02 -0.44833023155E+03  0.45188188063E+03  0.00000000000E+00 0. -1.
          1    1    1    2  502    0 -0.17858159925E+02  0.45775149412E+02  0.34255186519E+03  0.34605788320E+03  0.00000000000E+00 0. -1.
         22    1    3    3    0    0 -0.99894240322E+01  0.13151205324E+02 -0.51493548529E+01  0.17299093889E+02  0.00000000000E+00 0. -1.
         22    1    3    3    0    0  0.58653158463E+02 -0.10634211266E+03 -0.45703427112E+03  0.47289445218E+03  0.00000000000E+00 0. -1.
</event>
<event>
 7    1  0.6597701E-006  0.8484466E+02  0.7818608E-02  0.1389342E+00
          2   -1    0    0  502    0  0.00000000000E+00  0.00000000000E+00  0.10702540747E+03  0.10702540747E+03  0.00000000000E+00 0. -1.
          1   -1    0    0  501    0 -0.00000000000E+00 -0.00000000000E+00 -0.18072485612E+04  0.18072485612E+04  0.00000000000E+00 0. -1.
         25    2    1    2    0    0 -0.59010967563E+02 -0.76931966108E+02 -0.22779222699E+03  0.27733447919E+03  0.12499717184E+03 0.  0.
          2    1    1    2  501    0 -0.17997319558E+02  0.41690809024E+02 -0.15324604818E+04  0.15331331173E+04  0.00000000000E+00 0. -1.
          1    1    1    2  502    0  0.77008287121E+02  0.35241157084E+02  0.60029555022E+02  0.10380637222E+03  0.00000000000E+00 0. -1.
         22    1    3    3    0    0 -0.30443348256E+02  0.26510934453E+02 -0.11392754545E+03  0.12086816252E+03  0.00000000000E+00 0. -1.
         22    1    3    3    0    0 -0.28567619307E+02 -0.10344290056E+03 -0.11386468154E+03  0.15646631667E+03  0.00000000000E+00 0. -1.
</event>
<event>
 7    1  0.6597701E-006  0.8035033E+02  0.7818608E-02  0.1487682E+00
          2   -1    0    0  502    0  0.00000000000E+00  0.00000000000E+00  0.69362510050E+03  0.69362510050E+03  0.00000000000E+00 0. -1.
          1   -1    0    0  501    0 -0.00000000000E+00 -0.00000000000E+00 -0.36948828588E+04  0.36948828588E+04  0.00000000000E+00 0. -1.
         25    2    1    2    0    0  0.56898013818E+02  0.37347859268E+02 -0.18998803637E+02  0.14359029079E+03  0.12499988201E+03 0.  0.
          2    1    1    2  501    0 -0.53554206464E+02 -0.60041571949E+02 -0.36129319471E+04  0.36138276520E+04  0.00000000000E+00 0. -1.
          1    1    1    2  502    0 -0.33438073543E+01  0.22693712681E+02  0.63067299244E+03  0.63109001659E+03  0.00000000000E+00 0. -1.
         22    1    3    3    0    0  0.20540533437E+02  0.57455252299E+02 -0.59745884197E+02  0.85396663922E+02  0.00000000000E+00 0. -1.
         22    1    3    3    0    0  0.36357480381E+02 -0.20107393031E+02  0.40747080559E+02  0.58193626870E+02  0.00000000000E+00 0. -1.
</event>
<event>
 7    1  0.6597701E-006  0.1761107E+03  0.7818608E-02  0.1226063E+00
          2   -1    0    0  502    0  0.00000000000E+00  0.00000000000E+00  0.98545712981E+03  0.98545712981E+03  0.00000000000E+00 0. -1.
          1   -1    0    0  501    0 -0.00000000000E+00 -0.00000000000E+00 -0.36755420868E+03  0.36755420868E+03  0.00000000000E+00 0. -1.
         25    2    1    2    0    0 -0.87973180259E+02 -0.17333264929E+03 -0.18933412065E+03  0.29875767566E+03  0.12500100707E+03 0.  0.
          2    1    1    2  501    0 -0.59685233953E+02  0.76918797488E+02 -0.94353731087E+02  0.13557822513E+03  0.00000000000E+00 0. -1.
          1    1    1    2  502    0  0.14765841421E+03  0.96413851801E+02  0.90159077287E+03  0.91867543770E+03  0.00000000000E+00 0. -1.
         22    1    3    3    0    0 -0.10908054537E+03 -0.17772442047E+03 -0.17913706045E+03  0.27490838735E+03  0.00000000000E+00 0.  1.
         22    1    3    3    0    0  0.21107365111E+02  0.43917711822E+01 -0.10197060204E+02  0.23849288309E+02  0.00000000000E+00 0.  1.
</event>
<event>
 7    1  0.6597701E-006  0.1301864E+03  0.7818608E-02  0.1281522E+00
          2   -1    0    0  502    0  0.00000000000E+00  0.00000000000E+00  0.45774239774E+03  0.45774239774E+03  0.00000000000E+00 0. -1.
          1   -1    0    0  501    0 -0.00000000000E+00 -0.00000000000E+00 -0.22291091319E+03  0.22291091319E+03  0.00000000000E+00 0. -1.
         25    2    1    2    0    0  0.31040061580E+02 -0.78783939143E+02  0.12180007635E+03  0.19398690215E+03  0.12500106046E+03 0.  0.
          2    1    1    2  501    0  0.52000975947E+02 -0.55319646571E+02 -0.15674354024E+03  0.17416343532E+03  0.00000000000E+00 0. -1.
          1    1    1    2  502    0 -0.83041037527E+02  0.13410358571E+03  0.26977494844E+03  0.31250297346E+03  0.00000000000E+00 0. -1.
         22    1    3    3    0    0  0.37039186555E+02 -0.10819545277E+03  0.69896874091E+02  0.13402884148E+03  0.00000000000E+00 0. -1.
         22    1    3    3    0    0 -0.59991249741E+01  0.29411513628E+02  0.51903202262E+02  0.59958060671E+02  0.00000000000E+00 0. -1.
</event>
<event>
 7    1  0.6597701E-006  0.4834580E+02  0.7818608E-02  0.1479572E+00
          2   -1    0    0  502    0  0.00000000000E+00  0.00000000000E+00  0.52493452509E+03  0.52493452509E+03  0.00000000000E+00 0. -1.
          1   -1    0    0  501    0 -0.00000000000E+00 -0.00000000000E+00 -0.19305787810E+03  0.19305787810E+03  0.00000000000E+00 0. -1.
         25    2    1    2    0    0 -0.50834815329E+01 -0.12688649096E+02 -0.41623909271E+02  0.13245300488E+03  0.12499762030E+03 0.  0.
          2    1    1    2  501    0  0.88495523092E+01  0.52872845874E+02 -0.98325651049E+02  0.11199011591E+03  0.00000000000E+00 0. -1.
          1    1    1    2  502    0 -0.37660707763E+01 -0.40184196778E+02  0.47182620730E+03  0.47354928240E+03  0.00000000000E+00 0. -1.
         22    1    3    3    0    0 -0.45965011975E+02  0.34197083656E+02 -0.40636623104E+02  0.70239290954E+02  0.00000000000E+00 0.  1.
         22    1    3    3    0    0  0.40881530442E+02 -0.46885732753E+02 -0.98728616736E+00  0.62213713930E+02  0.00000000000E+00 0.  1.
</event>
<event>
 7    1  0.6597701E-006  0.9215085E+02  0.7818608E-02  0.1471720E+00
          2   -1    0    0  502    0  0.00000000000E+00  0.00000000000E+00  0.88077950936E+03  0.88077950936E+03  0.00000000000E+00 0. -1.
          1   -1    0    0  501    0 -0.00000000000E+00 -0.00000000000E+00 -0.20985566403E+03  0.20985566403E+03  0.00000000000E+00 0. -1.
         25    2    1    2    0    0 -0.69761742437E+02  0.16188364494E+02 -0.91621647155E+02  0.17073068730E+03  0.12500271000E+03 0.  0.
          2    1    1    2  501    0 -0.22005788021E+02 -0.41276696867E+01 -0.74482390010E+02  0.77774795307E+02  0.00000000000E+00 0. -1.
          1    1    1    2  502    0  0.91767530458E+02 -0.12060694808E+02  0.83702788250E+03  0.84212969077E+03  0.00000000000E+00 0. -1.
         22    1    3    3    0    0 -0.56206843686E+01  0.63655540567E+02 -0.34726113296E+02  0.72729106157E+02  0.00000000000E+00 0.  1.
         22    1    3    3    0    0 -0.64141058069E+02 -0.47467176073E+02 -0.56895533859E+02  0.98001581148E+02  0.00000000000E+00 0.  1.
</event>
<event>
 7    1  0.6597701E-006  0.7752698E+02  0.7818608E-02  0.1432653E+00
          2   -1    0    0  502    0  0.00000000000E+00  0.00000000000E+00  0.23758299243E+02  0.23758299243E+02  0.00000000000E+00 0. -1.
          1   -1    0    0  501    0 -0.00000000000E+00 -0.00000000000E+00 -0.14587735726E+04  0.14587735726E+04  0.00000000000E+00 0. -1.
         25    2    1    2    0    0 -0.42167740510E+02  0.32887860046E+02 -0.33095647153E+03  0.35779438509E+03  0.12499962510E+03 0.  0.
          2    1    1    2  501    0  0.42655275307E+02 -0.68343379219E+02 -0.10773172637E+04  0.10803253106E+04  0.00000000000E+00 0. -1.
          1    1    1    2  502    0 -0.48753479692E+00  0.35455519173E+02 -0.26741538074E+02  0.44412176129E+02  0.00000000000E+00 0. -1.
         22    1    3    3    0    0 -0.28766355625E+02 -0.10121366104E+02 -0.30352042506E+03  0.30504851040E+03  0.00000000000E+00 0. -1.
         22    1    3    3    0    0 -0.13401384885E+02  0.43009226150E+02 -0.27436046468E+02  0.52745874688E+02  0.00000000000E+00 0. -1.
</event>
<event>
 7    1  0.6597701E-006  0.1514999E+03  0.7818608E-02  0.1293136E+00
          2   -1    0    0  502    0  0.00000000000E+00  0.00000000000E+00  0.91063108314E+03  0.91063108314E+03  0.00000000000E+00 0. -1.
          1   -1    0    0  501    0 -0.00000000000E+00 -0.00000000000E+00 -0.11486392585E+03  0.11486392585E+03  0.00000000000E+00 0. -1.
         25    2    1    2    0    0 -0.13934478695E+03 -0.16196701956E+02  0.12699100070E+03  0.22678257549E+03  0.12499727791E+03 0.  0.
          2    1    1    2  501    0  0.15662625098E+03 -0.39683250909E+02  0.38986151003E+02  0.16621210205E+03  0.00000000000E+00 0. -1.
          1    1    1    2  502    0 -0.17281464028E+02  0.55879952865E+02  0.62979000559E+03  0.63250033144E+03  0.00000000000E+00 0. -1.
         22    1    3    3    0    0 -0.89259451332E+02  0.44564096402E+02  0.35080232824E+02  0.10575363386E+03  0.00000000000E+00 0. -1.
         22    1    3    3    0    0 -0.50085335620E+02 -0.60760798358E+02  0.91910767874E+02  0.12102894163E+03  0.00000000000E+00 0. -1.
</event>
<event>
 7    1  0.6597701E-006  0.2082376E+03  0.7818608E-02  0.1207501E+00
          2   -1    0    0  502    0  0.00000000000E+00  0.00000000000E+00  0.46160459005E+03  0.46160459005E+03  0.00000000000E+00 0. -1.
          1   -1    0    0  501    0 -0.00000000000E+00 -0.00000000000E+00 -0.33971191549E+03  0.33971191549E+03  0.00000000000E+00 0. -1.
         25    2    1    2    0    0  0.13138633402E+03  0.24869940569E+02  0.13036246577E+03  0.22472253419E+03  0.12499984873E+03 0.  0.
          2    1    1    2  501    0 -0.21201752795E+03 -0.84292415853E+02 -0.23583848210E+03  0.32814087396E+03  0.00000000000E+00 0. -1.
          1    1    1    2  502    0  0.80631193931E+02  0.59422475283E+02  0.22736869089E+03  0.24845309739E+03  0.00000000000E+00 0. -1.
         22    1    3    3    0    0  0.12051840155E+03 -0.31638735047E+02  0.99295286409E+02  0.15932748844E+03  0.00000000000E+00 0. -1.
         22    1    3    3    0    0  0.10867932464E+02  0.56508675617E+02  0.31067179357E+02  0.65395045754E+02  0.00000000000E+00 0. -1.
</event>
<event>
 7    1  0.9243274E-006  0.7222613E+02  0.7818608E-02  0.1363837E+00
          2   -1    0    0  502    0  0.00000000000E+00  0.00000000000E+00  0.68122442446E+03  0.68122442446E+03  0.00000000000E+00 0. -1.
          1   -1    0    0  501    0 -0.00000000000E+00 -0.00000000000E+00 -0.75386940960E+03  0.75386940960E+03  0.00000000000E+00 0. -1.
         25    2    1    2    0    0 -0.61322672096E+01  0.13339413754E+02 -0.25064742313E+03  0.28047278056E+03  0.12500122101E+03 0.  0.
          2    1    1    2  501    0 -0.65711688430E+02 -0.21730213143E+01 -0.48409709817E+03  0.48854145011E+03  0.00000000000E+00 0. -1.
          1    1    1    2  502    0  0.71843955639E+02 -0.11166392439E+02  0.66209953615E+03  0.66607960339E+03  0.00000000000E+00 0. -1.
         22    1    3    3    0    0  0.10826143691E+02  0.26043897644E+02  0.72021474379E+00  0.28213626158E+02  0.00000000000E+00 0.  1.
         22    1    3    3    0    0 -0.16958410901E+02 -0.12704483890E+02 -0.25136763787E+03  0.25225915440E+03  0.00000000000E+00 0.  1.
</event>
<event>
 7    1  0.6597701E-006  0.6954612E+02  0.7818608E-02  0.1492727E+00
          2   -1    0    0  502    0  0.00000000000E+00  0.00000000000E+00  0.20345998457E+04  0.20345998457E+04  0.00000000000E+00 0. -1.
          1   -1    0    0  501    0 -0.00000000000E+00 -0.00000000000E+00 -0.56319825882E+02  0.56319825882E+02  0.00000000000E+00 0. -1.
         25    2    1    2    0    0  0.39532726194E+02  0.51422601827E+02  0.14245739867E+04  0.14315190368E+04  0.12501435450E+03 0.  0.
          2    1    1    2  501    0 -0.59796875731E+02 -0.35799466483E+02 -0.29466293616E+02  0.75667236021E+02  0.00000000000E+00 0. -1.
          1    1    1    2  502    0  0.20264149536E+02 -0.15623135344E+02  0.58317232675E+03  0.58373339874E+03  0.00000000000E+00 0. -1.
         22    1    3    3    0    0 -0.37411323106E+02  0.46141236786E+02  0.79975773159E+03  0.80196075344E+03  0.00000000000E+00 0. -1.
         22    1    3    3    0    0  0.76944049300E+02  0.52813650411E+01  0.62481625512E+03  0.62955828341E+03  0.00000000000E+00 0. -1.
</event>
<event>
 7    1  0.6597701E-006  0.7284733E+02  0.7818608E-02  0.1491717E+00
          2   -1    0    0  502    0  0.00000000000E+00  0.00000000000E+00  0.89659240864E+02  0.89659240864E+02  0.00000000000E+00 0. -1.
          1   -1    0    0  501    0 -0.00000000000E+00 -0.00000000000E+00 -0.41602407499E+03  0.41602407499E+03  0.00000000000E+00 0. -1.
         25    2    1    2    0    0  0.37835300762E+02 -0.36413827126E+02 -0.28691321882E+02  0.13858663495E+03  0.12500234657E+03 0.  0.
          2    1    1    2  501    0 -0.61932005913E+02  0.41363554204E+02 -0.32318602726E+03  0.33165603446E+03  0.00000000000E+00 0. -1.
          1    1    1    2  502    0  0.24096705152E+02 -0.49497270783E+01  0.25512515024E+02  0.35440646441E+02  0.00000000000E+00 0. -1.
         22    1    3    3    0    0 -0.16249462936E+02  0.47579829577E+01 -0.61014323161E+02  0.63320068528E+02  0.00000000000E+00 0. -1.
         22    1    3    3    0    0  0.54084763698E+02 -0.41171810083E+02  0.32323001280E+02  0.75266566426E+02  0.00000000000E+00 0. -1.
</event>
<event>
 7    1  0.6597701E-006  0.1370581E+03  0.7818608E-02  0.1320765E+00
          2   -1    0    0  502    0  0.00000000000E+00  0.00000000000E+00  0.15603394103E+04  0.15603394103E+04  0.00000000000E+00 0. -1.
          1   -1    0    0  501    0 -0.00000000000E+00 -0.00000000000E+00 -0.29524447103E+03  0.29524447103E+03  0.00000000000E+00 0. -1.
         25    2    1    2    0    0  0.62717118456E+02  0.94633213165E+02  0.12634050843E+04  0.12746407954E+04  0.12501147295E+03 0.  0.
          2    1    1    2  501    0 -0.31285760592E+02 -0.13384616855E+03 -0.27089064836E+03  0.30376856160E+03  0.00000000000E+00 0. -1.
          1    1    1    2  502    0 -0.31431357864E+02  0.39212955380E+02  0.27258050329E+03  0.27717452426E+03  0.00000000000E+00 0. -1.
         22    1    3    3    0    0  0.58497405765E+02  0.11038717520E+03  0.12390326194E+04  0.12453148625E+04  0.00000000000E+00 0.  1.
         22    1    3    3    0    0  0.42197126916E+01 -0.15753962030E+02  0.24372464912E+02  0.29325932905E+02  0.00000000000E+00 0.  1.
</event>
<event>
 7    1  0.6597701E-006  0.1998280E+03  0.7818608E-02  0.1277883E+00
          2   -1    0    0  502    0  0.00000000000E+00  0.00000000000E+00  0.14695817833E+04  0.14695817833E+04  0.00000000000E+00 0. -1.
          1   -1    0    0  501    0 -0.00000000000E+00 -0.00000000000E+00 -0.71416835693E+03  0.71416835693E+03  0.00000000000E+00 0. -1.
         25    2    1    2    0    0  0.13245155527E+03  0.14092860875E+03  0.27387682800E+02  0.23190050651E+03  0.12499388983E+03 0.  0.
          2    1    1    2  501    0 -0.36831224354E+02  0.35575339282E+02 -0.60330279918E+03  0.60547205663E+03  0.00000000000E+00 0. -1.
          1    1    1    2  502    0 -0.95620330911E+02 -0.17650394803E+03  0.13313285428E+04  0.13463775771E+04  0.00000000000E+00 0. -1.
         22    1    3    3    0    0 -0.14858942162E+02 -0.67306088838E+01 -0.11198302741E+02  0.19786137632E+02  0.00000000000E+00 0. -1.
         22    1    3    3    0    0  0.14731049743E+03  0.14765921763E+03  0.38585985541E+02  0.21211436888E+03  0.00000000000E+00 0. -1.
</event>
<event>
 7    1  0.6597701E-006  0.4648884E+02  0.7818608E-02  0.1487660E+00
          2   -1    0    0  502    0  0.00000000000E+00  0.00000000000E+00  0.14644034813E+04  0.14644034813E+04  0.00000000000E+00 0. -1.
          1   -1    0    0  501    0 -0.00000000000E+00 -0.00000000000E+00 -0.40735144029E+02  0.40735144029E+02  0.00000000000E+00 0. -1.
         25    2    1    2    0    0 -0.12564178904E+02  0.27717938433E+01  0.10716567003E+04  0.10789992487E+04  0.12500301575E+03 0.  0.
          2    1    1    2  501    0 -0.39438820664E+02 -0.24612840655E+02 -0.19469162598E+02  0.50400999918E+02  0.00000000000E+00 0. -1.
          1    1    1    2  502    0  0.52002999568E+02  0.21841046812E+02  0.37148079954E+03  0.37573837668E+03  0.00000000000E+00 0. -1.
         22    1    3    3    0    0  0.50930710281E+02 -0.15138620153E+02  0.65504195842E+03  0.65719333712E+03  0.00000000000E+00 0. -1.
         22    1    3    3    0    0 -0.63494889184E+02  0.17910413996E+02  0.41661474190E+03  0.42180591159E+03  0.00000000000E+00 0. -1.
</event>
<event>
 7    1  0.6597701E-006  0.3448757E+02  0.7818608E-02  0.1605575E+00
          2   -1    0    0  502    0  0.00000000000E+00  0.00000000000E+00  0.62769849976E+01  0.62769849976E+01  0.00000000000E+00 0. -1.
          1   -1    0    0  501    0 -0.00000000000E+00 -0.00000000000E+00 -0.22664711946E+04  0.22664711946E+04  0.00000000000E+00 0. -1.
         25    2    1    2    0    0 -0.24363604747E+02 -0.13975191897E+02 -0.14273100763E+04  0.14330503101E+04  0.12502098257E+03 0.  0.
          2    1    1    2  501    0  0.14722844611E+02 -0.20142621041E+02 -0.73775614347E+03  0.73817790171E+03  0.00000000000E+00 0. -1.
          1    1    1    2  502    0  0.96407601361E+01  0.34117812938E+02 -0.95127989820E+02  0.10151996780E+03  0.00000000000E+00 0. -1.
         22    1    3    3    0    0 -0.69311168871E+01  0.13444314319E+02 -0.18637444423E+02  0.24003006133E+02  0.00000000000E+00 0.  1.
         22    1    3    3    0    0 -0.17432487860E+02 -0.27419506216E+02 -0.14086726319E+04  0.14090473039E+04  0.00000000000E+00 0.  1.
</event>
<event>
 7    1  0.6597701E-006  0.2176371E+03  0.7818608E-02  0.1307588E+00
          2   -1    0    0  502    0  0.00000000000E+00  0.00000000000E+00  0.26155867415E+03  0.26155867415E+03  0.00000000000E+00 0. -1.
          1   -1    0    0  501    0 -0.00000000000E+00 -0.00000000000E+00 -0.10486745258E+04  0.10486745258E+04  0.00000000000E+00 0. -1.
         25    2    1    2    0    0 -0.23669859587E+02  0.22919826596E+03 -0.29441783655E+03  0.39420653180E+03  0.12499927946E+03 0.  0.
          2    1    1    2  501    0 -0.29544982012E+02 -0.19933747457E+02 -0.64867790328E+03  0.64965628023E+03  0.00000000000E+00 0. -1.
          1    1    1    2  502    0  0.53214841599E+02 -0.20926451851E+03  0.15597988814E+03  0.26637038795E+03  0.00000000000E+00 0. -1.
         22    1    3    3    0    0 -0.39172553155E+02  0.23822711599E+03 -0.25644083355E+03  0.35220526518E+03  0.00000000000E+00 0. -1.
         22    1    3    3    0    0  0.15502693569E+02 -0.90288500243E+01 -0.37977003004E+02  0.42001266621E+02  0.00000000000E+00 0. -1.
</event>
<event>
 7    1  0.6597701E-006  0.8368006E+02  0.7818608E-02  0.1350277E+00
          2   -1    0    0  502    0  0.00000000000E+00  0.00000000000E+00  0.25336227342E+03  0.25336227342E+03  0.00000000000E+00 0. -1.
          1   -1    0    0  501    0 -0.00000000000E+00 -0.00000000000E+00 -0.34761451281E+03  0.34761451281E+03  0.00000000000E+00 0. -1.
         25    2    1    2    0    0  0.37745619751E+02 -0.52807613066E+01 -0.19723555582E+03  0.23659782344E+03  0.12499618924E+03 0.  0.
          2    1    1    2  501    0 -0.75897713371E+02 -0.69195879376E+02 -0.10090881564E+03  0.14398306043E+03  0.00000000000E+00 0. -1.
          1    1    1    2  502    0  0.38152093620E+02  0.74476640683E+02  0.20389213207E+03  0.22039590236E+03  0.00000000000E+00 0. -1.
         22    1    3    3    0    0  0.27861727649E+01 -0.52641776229E+02 -0.15615926123E+03  0.16481697191E+03  0.00000000000E+00 0. -1.
         22    1    3    3    0    0  0.34959446986E+02  0.47361014922E+02 -0.41076294594E+02  0.71780851524E+02  0.00000000000E+00 0. -1.
</event>
<event>
 7    1  0.6597701E-006  0.1387637E+03  0.7818608E-02  0.1305071E+00
          2   -1    0    0  502    0  0.00000000000E+00  0.00000000000E+00  0.44532596307E+04  0.44532596307E+04  0.00000000000E+00 0. -1.
          1   -1    0    0  501    0 -0.00000000000E+00 -0.00000000000E+00 -0.37965043688E+03  0.37965043688E+03  0.00000000000E+00 0. -1.
         25    2    1    2    0    0 -0.17753478696E+03 -0.79072373085E+02  0.27482995958E+03  0.35906539341E+03  0.12500163718E+03 0.  0.
          2    1    1    2  501    0  0.50956955606E+02  0.25980996335E+02 -0.33396191835E+03  0.33882471339E+03  0.00000000000E+00 0. -1.
          1    1    1    2  502    0  0.12657783135E+03  0.53091376749E+02  0.41327411526E+04  0.41350199608E+04  0.00000000000E+00 0. -1.
         22    1    3    3    0    0 -0.36390098269E+02 -0.59141436646E+02  0.16531936263E+03  0.17931101595E+03  0.00000000000E+00 0. -1.
         22    1    3    3    0    0 -0.14114468869E+03 -0.19930936439E+02  0.10951059695E+03  0.17975437746E+03  0.00000000000E+00 0. -1.
</event>
<event>
 7    1  0.6597701E-006  0.1062261E+03  0.7818608E-02  0.1290129E+00
          2   -1    0    0  502    0  0.00000000000E+00  0.00000000000E+00  0.91257321850E+03  0.91257321850E+03  0.00000000000E+00 0. -1.
          1   -1    0    0  501    0 -0.00000000000E+00 -0.00000000000E+00 -0.38387948564E+03  0.38387948564E+03  0.00000000000E+00 0. -1.
         25    2    1    2    0    0  0.35418635628E+00  0.11942299529E+03  0.18750942086E+03  0.25506774421E+03  0.12505116542E+03 0.  0.
          2    1    1    2  501    0 -0.74674625271E+02 -0.76556438248E+02 -0.33917573381E+03  0.35563656491E+03  0.00000000000E+00 0. -1.
          1    1    1    2  502    0  0.74320438915E+02 -0.42866557037E+02  0.68036004580E+03  0.68574839502E+03  0.00000000000E+00 0. -1.
         22    1    3    3    0    0  0.54158593915E+02  0.50535878544E+02  0.41536472693E+02  0.84925301759E+02  0.00000000000E+00 0. -1.
         22    1    3    3    0    0 -0.53804407559E+02  0.68887116742E+02  0.14597294817E+03  0.17014244245E+03  0.00000000000E+00 0. -1.
</event>
<event>
 7    1  0.6597701E-006  0.5323964E+02  0.7818608E-02  0.1543370E+00
          2   -1    0    0  502    0  0.00000000000E+00  0.00000000000E+00  0.72949039555E+03  0.72949039555E+03  0.00000000000E+00 0. -1.
          1   -1    0    0  501    0 -0.00000000000E+00 -0.00000000000E+00 -0.34590676180E+03  0.34590676180E+03  0.00000000000E+00 0. -1.
         25    2    1    2    0    0  0.56249345712E+02  0.31315185481E+02  0.11913153189E+03  0.18428801707E+03  0.12500048644E+03 0.  0.
          2    1    1    2  501    0 -0.21995181628E+02  0.90904115829E+01 -0.31165975365E+03  0.31256715382E+03  0.00000000000E+00 0. -1.
          1    1    1    2  502    0 -0.34254164084E+02 -0.40405597064E+02  0.57611185552E+03  0.57854198646E+03  0.00000000000E+00 0. -1.
         22    1    3    3    0    0  0.57877728145E+02 -0.36155854898E+02  0.35829089388E+02  0.77076591161E+02  0.00000000000E+00 0.  1.
         22    1    3    3    0    0 -0.16283824333E+01  0.67471040379E+02  0.83302442502E+02  0.10721142591E+03  0.00000000000E+00 0.  1.
</event>
<event>
 7    1  0.6597701E-006  0.9891286E+02  0.7818608E-02  0.1385088E+00
          2   -1    0    0  502    0  0.00000000000E+00  0.00000000000E+00  0.38159492864E+03  0.38159492864E+03  0.00000000000E+00 0. -1.
          1   -1    0    0  501    0 -0.00000000000E+00 -0.00000000000E+00 -0.37333314040E+03  0.37333314040E+03  0.00000000000E+00 0. -1.
         25    2    1    2    0    0 -0.10657591092E+03  0.35097701023E+02 -0.28067496680E+03  0.32709869335E+03  0.12499937918E+03 0.  0.
          2    1    1    2  501    0  0.85940289990E+02 -0.46869638844E+00 -0.41153529822E+02  0.95286757405E+02  0.00000000000E+00 0. -1.
          1    1    1    2  502    0  0.20635620930E+02 -0.34629004634E+02  0.33009028487E+03  0.33254261828E+03  0.00000000000E+00 0. -1.
         22    1    3    3    0    0  0.17533592115E+02 -0.15025853203E+02 -0.97709077696E+02  0.10040053277E+03  0.00000000000E+00 0. -1.
         22    1    3    3    0    0 -0.12410950304E+03  0.50123554226E+02 -0.18296588910E+03  0.22669816057E+03  0.00000000000E+00 0. -1.
</event>
<event>
 7    1  0.6597701E-006  0.8900125E+02  0.7818608E-02  0.1447333E+00
          2   -1    0    0  502    0  0.00000000000E+00  0.00000000000E+00  0.19510204526E+04  0.19510204526E+04  0.00000000000E+00 0. -1.
          1   -1    0    0  501    0 -0.00000000000E+00 -0.00000000000E+00 -0.10857760116E+04  0.10857760116E+04  0.00000000000E+00 0. -1.
         25    2    1    2    0    0 -0.18437930988E+02  0.10019790284E+03 -0.64669223199E+02  0.17374435610E+03  0.12500166325E+03 0.  0.
          2    1    1    2  501    0 -0.19406144158E+02 -0.19735534751E+02 -0.96532851163E+03  0.96572523272E+03  0.00000000000E+00 0. -1.
          1    1    1    2  502    0  0.37844075146E+02 -0.80462368086E+02  0.18952421759E+04  0.18973268753E+04  0.00000000000E+00 0. -1.
         22    1    3    3    0    0  0.47116565293E+02  0.16868411713E+02 -0.41976008636E+02  0.65318445632E+02  0.00000000000E+00 0.  1.
         22    1    3    3    0    0 -0.65554496281E+02  0.83329491124E+02 -0.22693214562E+02  0.10842591047E+03  0.00000000000E+00 0.  1.
</event>
<event>
 7    1  0.6597701E-006  0.8401309E+02  0.7818608E-02  0.1342758E+00
          2   -1    0    0  502    0  0.00000000000E+00  0.00000000000E+00  0.19038570549E+04  0.19038570549E+04  0.00000000000E+00 0. -1.
          1   -1    0    0  501    0 -0.00000000000E+00 -0.00000000000E+00 -0.98490426940E+03  0.98490426940E+03  0.00000000000E+00 0. -1.
         25    2    1    2    0    0  0.35566088515E+02  0.46074188118E+02  0.24804334497E+03  0.28379333330E+03  0.12500151031E+03 0.  0.
          2    1    1    2  501    0  0.51431722399E+02 -0.43868572740E+02 -0.96468970863E+03  0.96705527643E+03  0.00000000000E+00 0. -1.
          1    1    1    2  502    0 -0.86997810913E+02 -0.22056153783E+01  0.16355991492E+04  0.16379127146E+04  0.00000000000E+00 0. -1.
         22    1    3    3    0    0  0.59974485790E+02  0.68877156145E+02  0.22604414412E+03  0.24379695788E+03  0.00000000000E+00 0. -1.
         22    1    3    3    0    0 -0.24408397276E+02 -0.22802968026E+02  0.21999200850E+02  0.39996375416E+02  0.00000000000E+00 0. -1.
</event>
<event>
 7    1  0.6597701E-006  0.4150151E+02  0.7818608E-02  0.1574719E+00
          2   -1    0    0  502    0  0.00000000000E+00  0.00000000000E+00  0.18426015008E+04  0.18426015008E+04  0.00000000000E+00 0. -1.
          1   -1    0    0  501    0 -0.00000000000E+00 -0.00000000000E+00 -0.11704189690E+04  0.11704189690E+04  0.00000000000E+00 0. -1.
         25    2    1    2    0    0  0.45996764858E+02  0.46355940409E+02  0.10768374336E+03  0.17744422311E+03  0.12500435250E+03 0.  0.
          2    1    1    2  501    0 -0.24638144480E+02 -0.33320425539E+02 -0.11350685262E+04  0.11358247436E+04  0.00000000000E+00 0. -1.
          1    1    1    2  502    0 -0.21358620378E+02 -0.13035514870E+02  0.16995673146E+04  0.16997515031E+04  0.00000000000E+00 0. -1.
         22    1    3    3    0    0  0.20989305722E+02  0.84738386431E+02  0.40766537618E+02  0.96348615345E+02  0.00000000000E+00 0. -1.
         22    1    3    3    0    0  0.25007459136E+02 -0.38382446022E+02  0.66917205737E+02  0.81095607765E+02  0.00000000000E+00 0. -1.
</event>
<event>
 7    1  0.6607540E-006  0.6354946E+02  0.7818608E-02  0.1398299E+00
          2   -1    0    0  502    0  0.00000000000E+00  0.00000000000E+00  0.22495145722E+04  0.22495145722E+04  0.00000000000E+00 0. -1.
          1   -1    0    0  501    0 -0.00000000000E+00 -0.00000000000E+00 -0.95080898721E+03  0.95080898721E+03  0.00000000000E+00 0. -1.
         25    2    1    2    0    0 -0.19438620460E+02  0.30552094597E+02 -0.67311394980E+03  0.68557871066E+03  0.12499795456E+03 0.  0.
          2    1    1    2  501    0  0.50689799781E+02  0.24817775097E+02 -0.26807314390E+03  0.27394997398E+03  0.00000000000E+00 0. -1.
          1    1    1    2  502    0 -0.31251179320E+02 -0.55369869694E+02  0.22398926787E+04  0.22407948748E+04  0.00000000000E+00 0. -1.
         22    1    3    3    0    0  0.17159096646E+02 -0.11160927679E+02 -0.55175397650E+03  0.55213354498E+03  0.00000000000E+00 0.  1.
         22    1    3    3    0    0 -0.36597717106E+02  0.41713022276E+02 -0.12135997330E+03  0.13344516568E+03  0.00000000000E+00 0.  1.
</event>
<event>
 7    1  0.6597701E-006  0.4848967E+02  0.7818608E-02  0.1469828E+00
          2   -1    0    0  502    0  0.00000000000E+00  0.00000000000E+00  0.56369412216E+03  0.56369412216E+03  0.00000000000E+00 0. -1.
          1   -1    0    0  501    0 -0.00000000000E+00 -0.00000000000E+00 -0.35853359846E+02  0.35853359846E+02  0.00000000000E+00 0. -1.
         25    2    1    2    0    0  0.22382804964E+02 -0.12858613856E+02  0.16916169031E+03  0.21189537201E+03  0.12497054575E+03 0.  0.
          2    1    1    2  501    0 -0.17481706096E+02  0.55708900377E+02  0.52716442742E+02  0.78664572488E+02  0.00000000000E+00 0. -1.
          1    1    1    2  502    0 -0.49010988682E+01 -0.42850286521E+02  0.30596262927E+03  0.30898753751E+03  0.00000000000E+00 0. -1.
         22    1    3    3    0    0  0.56784575422E+02  0.34873466686E+02  0.70410046969E+02  0.96944424279E+02  0.00000000000E+00 0. -1.
         22    1    3    3    0    0 -0.34401770458E+02 -0.47732080542E+02  0.98751643337E+02  0.11495094774E+03  0.00000000000E+00 0. -1.
</event>
<event>
 7    1  0.6597701E-006  0.8986130E+02  0.7818608E-02  0.1322810E+00
          2   -1    0    0  502    0  0.00000000000E+00  0.00000000000E+00  0.13913454404E+04  0.13913454404E+04  0.00000000000E+00 0. -1.
          1   -1    0    0  501    0 -0.00000000000E+00 -0.00000000000E+00 -0.60063384758E+03  0.60063384758E+03  0.00000000000E+00 0. -1.
         25    2    1    2    0    0  0.93385605550E+01  0.30159788655E+02 -0.27308917818E+03  0.30199094357E+03  0.12499603672E+03 0.  0.
          2    1    1    2  501    0  0.75256637151E+02  0.12134139111E+01 -0.30706585525E+03  0.31615577374E+03  0.00000000000E+00 0. -1.
          1    1    1    2  502    0 -0.84595197706E+02 -0.31373202567E+02  0.13708666262E+04  0.13738325707E+04  0.00000000000E+00 0. -1.
         22    1    3    3    0    0 -0.38690234797E+02  0.30732080798E+02 -0.38786195122E+02  0.62815316531E+02  0.00000000000E+00 0. -1.
         22    1    3    3    0    0  0.48028795352E+02 -0.57229214259E+00 -0.23430298305E+03  0.23917562704E+03  0.00000000000E+00 0. -1.
</event>
<event>
 7    1  0.6597701E-006  0.9996235E+02  0.7818608E-02  0.1436267E+00
          2   -1    0    0  502    0  0.00000000000E+00  0.00000000000E+00  0.21232120228E+03  0.21232120228E+03  0.00000000000E+00 0. -1.
          1   -1    0    0  501    0 -0.00000000000E+00 -0.00000000000E+00 -0.11709546965E+04  0.11709546965E+04  0.00000000000E+00 0. -1.
         25    2    1    2    0    0  0.97914174456E+02 -0.44800620938E+02  0.88218737464E+02  0.18707699770E+03  0.12498390389E+03 0.  0.
          2    1    1    2  501    0 -0.77882836872E+02  0.62547658615E+02 -0.11168248663E+04  0.11212830721E+04  0.00000000000E+00 0. -1.
          1    1    1    2  502    0 -0.20031337584E+02 -0.17747037677E+02  0.69972634617E+02  0.74915828948E+02  0.00000000000E+00 0. -1.
         22    1    3    3    0    0  0.96145000312E+02 -0.27797281261E+02  0.29654601109E+01  0.10012663923E+03  0.00000000000E+00 0. -1.
         22    1    3    3    0    0  0.17691741438E+01 -0.17003339677E+02  0.85253277353E+02  0.86950358462E+02  0.00000000000E+00 0. -1.
</event>
<event>
 7    1  0.6597701E-006  0.2086284E+03  0.7818608E-02  0.1240956E+00
          2   -1    0    0  502    0  0.00000000000E+00  0.00000000000E+00  0.35570732071E+03  0.35570732071E+03  0.00000000000E+00 0. -1.
          1   -1    0    0  501    0 -0.00000000000E+00 -0.00000000000E+00 -0.13608434283E+04  0.13608434283E+04  0.00000000000E+00 0. -1.
         25    2    1    2    0    0  0.10824167664E+02 -0.23652685008E+03 -0.86817092220E+03  0.90851912323E+03  0.12499653483E+03 0.  0.
          2    1    1    2  501    0 -0.50965125844E+02  0.17852915079E+03 -0.45018578615E+03  0.48696749767E+03  0.00000000000E+00 0. -1.
          1    1    1    2  502    0  0.40140958180E+02  0.57997699288E+02  0.31322060073E+03  0.32106412813E+03  0.00000000000E+00 0. -1.
         22    1    3    3    0    0  0.27821877570E+02 -0.20672538450E+03 -0.83549717863E+03  0.86114167067E+03  0.00000000000E+00 0. -1.
         22    1    3    3    0    0 -0.16997709906E+02 -0.29801465575E+02 -0.32673743567E+02  0.47377452561E+02  0.00000000000E+00 0. -1.
</event>
<event>
 7    1  0.6597701E-006  0.1219045E+03  0.7818608E-02  0.1330986E+00
          2   -1    0    0  502    0  0.00000000000E+00  0.00000000000E+00  0.10562931359E+04  0.10562931359E+04  0.00000000000E+00 0. -1.
          1   -1    0    0  501    0 -0.00000000000E+00 -0.00000000000E+00 -0.13729318067E+04  0.13729318067E+04  0.00000000000E+00 0. -1.
         25    2    1    2    0    0  0.76861807722E+02  0.12927028145E+03  0.70450613874E+03  0.73114487602E+03  0.12500154821E+03 0.  0.
          2    1    1    2  501    0 -0.26289063771E+02 -0.11895440623E+03 -0.13548957752E+04  0.13603616531E+04  0.00000000000E+00 0. -1.
          1    1    1    2  502    0 -0.50572743951E+02 -0.10315875224E+02  0.33375096563E+03  0.33771841344E+03  0.00000000000E+00 0. -1.
         22    1    3    3    0    0 -0.21698453193E+02 -0.97215666783E+01  0.11887692008E+03  0.12123140623E+03  0.00000000000E+00 0. -1.
         22    1    3    3    0    0  0.98560260915E+02  0.13899184813E+03  0.58562921867E+03  0.60991346979E+03  0.00000000000E+00 0. -1.
</event>
<event>
 7    1  0.6597701E-006  0.1134363E+03  0.7818608E-02  0.1412416E+00
          2   -1    0    0  502    0  0.00000000000E+00  0.00000000000E+00  0.72630860830E+03  0.72630860830E+03  0.00000000000E+00 0. -1.
          1   -1    0    0  501    0 -0.00000000000E+00 -0.00000000000E+00 -0.82788150326E+03  0.82788150326E+03  0.00000000000E+00 0. -1.
         25    2    1    2    0    0 -0.80337559445E+02  0.42224993769E+02  0.10799904014E+02  0.15484963363E+03  0.12499879020E+03 0.  0.
          2    1    1    2  501    0 -0.13025229974E+02  0.25123424375E+02 -0.75043910737E+03  0.75097250079E+03  0.00000000000E+00 0. -1.
          1    1    1    2  502    0  0.93362789419E+02 -0.67348418144E+02  0.63806630839E+03  0.64836797714E+03  0.00000000000E+00 0. -1.
         22    1    3    3    0    0 -0.61219531141E+02  0.86482647319E+02  0.29095563751E+01  0.10599785280E+03  0.00000000000E+00 0.  1.
         22    1    3    3    0    0 -0.19118028304E+02 -0.44257653550E+02  0.78903476392E+01  0.48851780826E+02  0.00000000000E+00 0.  1.
</event>
<event>
 7    1  0.6597701E-006  0.3729180E+02  0.7818608E-02  0.1543154E+00
          2   -1    0    0  502    0  0.00000000000E+00  0.00000000000E+00  0.68762833884E+02  0.68762833884E+02  0.00000000000E+00 0. -1.
          1   -1    0    0  501    0 -0.00000000000E+00 -0.00000000000E+00 -0.28638061366E+04  0.28638061366E+04  0.00000000000E+00 0. -1.
         25    2    1    2    0    0 -0.36066172524E+02 -0.11013217025E+02 -0.12390329538E+04  0.12458934750E+04  0.12500332217E+03 0.  0.
          2    1    1    2  501    0  0.23833138182E+02 -0.24283580214E+02 -0.16158091124E+04  0.16161673176E+04  0.00000000000E+00 0. -1.
          1    1    1    2  502    0  0.12233034341E+02  0.35296797239E+02  0.59798763556E+02  0.70508177876E+02  0.00000000000E+00 0. -1.
         22    1    3    3    0    0 -0.79572724049E+02  0.90779500395E+01 -0.88805752331E+03  0.89166159068E+03  0.00000000000E+00 0. -1.
         22    1    3    3    0    0  0.43506551525E+02 -0.20091167064E+02 -0.35097543052E+03  0.35423188429E+03  0.00000000000E+00 0. -1.
</event>
<event>
 7    1  0.6597701E-006  0.4503993E+02  0.7818608E-02  0.1532739E+00
          2   -1    0    0  502    0  0.00000000000E+00  0.00000000000E+00  0.27888703269E+02  0.27888703269E+02  0.00000000000E+00 0. -1.
          1   -1    0    0  501    0 -0.00000000000E+00 -0.00000000000E+00 -0.19908085424E+04  0.19908085424E+04  0.00000000000E+00 0. -1.
         25    2    1    2    0    0 -0.15176727057E+02  0.58045538822E+02 -0.15006111739E+04  0.15070032946E+04  0.12500166889E+03 0.  0.
          2    1    1    2  501    0 -0.97061820389E+01 -0.41013843191E+02 -0.47650526617E+03  0.47836556522E+03  0.00000000000E+00 0. -1.
          1    1    1    2  502    0  0.24882909096E+02 -0.17031695631E+02  0.14196600944E+02  0.33328385792E+02  0.00000000000E+00 0. -1.
         22    1    3    3    0    0 -0.28126896886E+02 -0.25691729059E+02 -0.85596910056E+03  0.85681636795E+03  0.00000000000E+00 0.  1.
         22    1    3    3    0    0  0.12950169829E+02  0.83737267881E+02 -0.64464207334E+03  0.65018692670E+03  0.00000000000E+00 0.  1.
</event>
<event>
 7    1  0.6597701E-006  0.5877344E+02  0.7818608E-02  0.1469034E+00
          2   -1    0    0  502    0  0.00000000000E+00  0.00000000000E+00  0.25049214272E+04  0.25049214272E+04  0.00000000000E+00 0. -1.
          1   -1    0    0  501    0 -0.00000000000E+00 -0.00000000000E+00 -0.13394762618E+02  0.13394762618E+02  0.00000000000E+00 0. -1.
         25    2    1    2    0    0 -0.22743660843E+02  0.38580256331E+02  0.48633477855E+03  0.50413492253E+03  0.12499917199E+03 0.  0.
          2    1    1    2  501    0 -0.32428684738E+02 -0.15133836361E+02  0.75430753175E+02  0.83489227577E+02  0.00000000000E+00 0. -1.
          1    1    1    2  502    0  0.55172345580E+02 -0.23446419970E+02  0.19297611329E+04  0.19306920397E+04  0.00000000000E+00 0. -1.
         22    1    3    3    0    0 -0.33997021233E+02 -0.39575420043E+02  0.15597030456E+03  0.16446503345E+03  0.00000000000E+00 0. -1.
         22    1    3    3    0    0  0.11253360390E+02  0.78155676374E+02  0.33036447399E+03  0.33966988907E+03  0.00000000000E+00 0. -1.
</event>
<event>
 7    1  0.6597701E-006  0.9606355E+02  0.7818608E-02  0.1332868E+00
          2   -1    0    0  502    0  0.00000000000E+00  0.00000000000E+00  0.36280526869E+04  0.36280526869E+04  0.00000000000E+00 0. -1.
          1   -1    0    0  501    0 -0.00000000000E+00 -0.00000000000E+00 -0.33826803454E+02  0.33826803454E+02  0.00000000000E+00 0. -1.
         25    2    1    2    0    0 -0.24911849816E+02  0.12468941340E+03  0.48036922849E+03  0.51239406521E+03  0.12500012922E+03 0.  0.
          2    1    1    2  501    0 -0.37360024275E+02 -0.52488057457E+02  0.43700749067E+02  0.77849361323E+02  0.00000000000E+00 0. -1.
          1    1    1    2  502    0  0.62271874090E+02 -0.72201355945E+02  0.30701559059E+04  0.30716360638E+04  0.00000000000E+00 0. -1.
         22    1    3    3    0    0 -0.68004833115E+02  0.11361782552E+03  0.32982559555E+03  0.35541326802E+03  0.00000000000E+00 0. -1.
         22    1    3    3    0    0  0.43092983300E+02  0.11071587881E+02  0.15054363294E+03  0.15698079719E+03  0.00000000000E+00 0. -1.
</event>
<event>
 7    1  0.6597701E-006  0.8613365E+02  0.7818608E-02  0.1432801E+00
          2   -1    0    0  502    0  0.00000000000E+00  0.00000000000E+00  0.11345993756E+03  0.11345993756E+03  0.00000000000E+00 0. -1.
          1   -1    0    0  501    0 -0.00000000000E+00 -0.00000000000E+00 -0.57183917136E+03  0.57183917136E+03  0.00000000000E+00 0. -1.
         25    2    1    2    0    0 -0.55211716552E+02 -0.50892556498E+02 -0.12375746295E+03  0.19125728862E+03  0.12500021944E+03 0.  0.
          2    1    1    2  501    0 -0.26727768783E+02  0.17377129784E+02 -0.38889588253E+03  0.39020039174E+03  0.00000000000E+00 0. -1.
          1    1    1    2  502    0  0.81939485335E+02  0.33515426714E+02  0.54274111686E+02  0.10384142855E+03  0.00000000000E+00 0. -1.
         22    1    3    3    0    0 -0.92480840544E+02 -0.55918976377E+02 -0.88071552004E+02  0.13941390196E+03  0.00000000000E+00 0. -1.
         22    1    3    3    0    0  0.37269123992E+02  0.50264198787E+01 -0.35685910948E+02  0.51843386657E+02  0.00000000000E+00 0. -1.
</event>
<event>
 7    1  0.6597701E-006  0.1042713E+03  0.7818608E-02  0.1317788E+00
          2   -1    0    0  502    0  0.00000000000E+00  0.00000000000E+00  0.19492250484E+04  0.19492250484E+04  0.00000000000E+00 0. -1.
          1   -1    0    0  501    0 -0.00000000000E+00 -0.00000000000E+00 -0.23608792162E+03  0.23608792162E+03  0.00000000000E+00 0. -1.
         25    2    1    2    0    0  0.92153327411E+02  0.46538074611E+02  0.24195115446E+02  0.16391337880E+03  0.12499665594E+03 0.  0.
          2    1    1    2  501    0  0.10577880604E+02 -0.67010119586E+02 -0.15776060765E+03  0.17172843973E+03  0.00000000000E+00 0. -1.
          1    1    1    2  502    0 -0.10273120801E+03  0.20472044975E+02  0.18467026190E+04  0.18496711515E+04  0.00000000000E+00 0. -1.
         22    1    3    3    0    0  0.94795599005E+02  0.73072059782E+02 -0.10506012522E+02  0.12015035502E+03  0.00000000000E+00 0. -1.
         22    1    3    3    0    0 -0.26422715941E+01 -0.26533985172E+02  0.34701127968E+02  0.43763023782E+02  0.00000000000E+00 0. -1.
</event>
<event>
 7    1  0.6597701E-006  0.9383693E+02  0.7818608E-02  0.1482655E+00
          2   -1    0    0  502    0  0.00000000000E+00  0.00000000000E+00  0.21179159884E+04  0.21179159884E+04  0.00000000000E+00 0. -1.
          1   -1    0    0  501    0 -0.00000000000E+00 -0.00000000000E+00 -0.99749743859E+02  0.99749743859E+02  0.00000000000E+00 0. -1.
         25    2    1    2    0    0 -0.40849144965E+02  0.71802927663E+02  0.17514009919E+03  0.23048558400E+03  0.12500094808E+03 0.  0.
          2    1    1    2  501    0 -0.20346775533E+02  0.33122192713E-01 -0.69454102252E+02  0.72373093697E+02  0.00000000000E+00 0. -1.
          1    1    1    2  502    0  0.61195920498E+02 -0.71836049856E+02  0.19124802476E+04  0.19148070546E+04  0.00000000000E+00 0. -1.
         22    1    3    3    0    0 -0.32453536632E+01 -0.10934278095E+02 -0.15527391476E+02  0.19266308518E+02  0.00000000000E+00 0. -1.
         22    1    3    3    0    0 -0.37603791302E+02  0.82737205758E+02  0.19066749067E+03  0.21121927548E+03  0.00000000000E+00 0. -1.
</event>
<event>
 7    1  0.6597701E-006  0.9711408E+02  0.7818608E-02  0.1420212E+00
          2   -1    0    0  502    0  0.00000000000E+00  0.00000000000E+00  0.10872768156E+03  0.10872768156E+03  0.00000000000E+00 0. -1.
          1   -1    0    0  501    0 -0.00000000000E+00 -0.00000000000E+00 -0.13303280737E+04  0.13303280737E+04  0.00000000000E+00 0. -1.
         25    2    1    2    0    0 -0.54670700810E+01 -0.77830411369E+02 -0.46660424052E+03  0.48931752391E+03  0.12499864056E+03 0.  0.
          2    1    1    2  501    0 -0.27400062513E+02 -0.14758383754E+02 -0.82721597762E+03  0.82780121221E+03  0.00000000000E+00 0. -1.
          1    1    1    2  502    0  0.32867132594E+02  0.92588795123E+02  0.72219825954E+02  0.12193701919E+03  0.00000000000E+00 0. -1.
         22    1    3    3    0    0 -0.26344785328E+02 -0.58430170217E+02 -0.84035514094E+02  0.10568869445E+03  0.00000000000E+00 0. -1.
         22    1    3    3    0    0  0.20877715247E+02 -0.19400241152E+02 -0.38256872643E+03  0.38362882946E+03  0.00000000000E+00 0. -1.
</event>
<event>
 7    1  0.6597701E-006  0.9794166E+02  0.7818608E-02  0.1394073E+00
          2   -1    0    0  502    0  0.00000000000E+00  0.00000000000E+00  0.21549062823E+04  0.21549062823E+04  0.00000000000E+00 0. -1.
          1   -1    0    0  501    0 -0.00000000000E+00 -0.00000000000E+00 -0.24738180299E+02  0.24738180299E+02  0.00000000000E+00 0. -1.
         25    2    1    2    0    0  0.33477212773E+02  0.68617350622E+02  0.31679989727E+03  0.34902101285E+03  0.12499771165E+03 0.  0.
          2    1    1    2  501    0 -0.21890398935E+02  0.30906713652E+02  0.42515462541E+02  0.56938379581E+02  0.00000000000E+00 0. -1.
          1    1    1    2  502    0 -0.11586813838E+02 -0.99524064274E+02  0.17708527421E+04  0.17736850701E+04  0.00000000000E+00 0. -1.
         22    1    3    3    0    0  0.33028203100E+02  0.10103613470E+03  0.28243376409E+03  0.30177474018E+03  0.00000000000E+00 0. -1.
         22    1    3    3    0    0  0.44900967279E+00 -0.32418784079E+02  0.34366133186E+02  0.47246272668E+02  0.00000000000E+00 0. -1.
</event>
<event>
 7    1  0.6597701E-006  0.1087144E+03  0.7818608E-02  0.1332867E+00
          2   -1    0    0  502    0  0.00000000000E+00  0.00000000000E+00  0.17042000989E+04  0.17042000989E+04  0.00000000000E+00 0. -1.
          1   -1    0    0  501    0 -0.00000000000E+00 -0.00000000000E+00 -0.56727550898E+03  0.56727550898E+03  0.00000000000E+00 0. -1.
         25    2    1    2    0    0  0.15866146684E+03 -0.34522246163E+02  0.20856267596E+03  0.29238487304E+03  0.12500111054E+03 0.  0.
          2    1    1    2  501    0 -0.56752917404E+02  0.44786775336E+01 -0.52187316253E+03  0.52496909429E+03  0.00000000000E+00 0. -1.
          1    1    1    2  502    0 -0.10190854944E+03  0.30043568629E+02  0.14502350765E+04  0.14541216406E+04  0.00000000000E+00 0. -1.
         22    1    3    3    0    0  0.85161223439E+02  0.45126082066E+02  0.10390622227E+03  0.14172261741E+03  0.00000000000E+00 0. -1.
         22    1    3    3    0    0  0.73500243401E+02 -0.79648328229E+02  0.10465645369E+03  0.15066225562E+03  0.00000000000E+00 0. -1.
</event>
<event>
 7    1  0.6597701E-006  0.9628138E+02  0.7818608E-02  0.1338551E+00
          2   -1    0    0  502    0  0.00000000000E+00  0.00000000000E+00  0.85895527771E+03  0.85895527771E+03  0.00000000000E+00 0. -1.
          1   -1    0    0  501    0 -0.00000000000E+00 -0.00000000000E+00 -0.62430989514E+02  0.62430989514E+02  0.00000000000E+00 0. -1.
         25    2    1    2    0    0 -0.64225864708E+00 -0.49102461602E+02  0.23105972512E+03  0.26725444681E+03  0.12499951413E+03 0.  0.
          2    1    1    2  501    0  0.11176312472E+02 -0.60143247904E+02 -0.15324948210E+02  0.63063256074E+02  0.00000000000E+00 0. -1.
          1    1    1    2  502    0 -0.10534053825E+02  0.10924570951E+03  0.58078951129E+03  0.59106856435E+03  0.00000000000E+00 0. -1.
         22    1    3    3    0    0 -0.15414775687E+02 -0.62066192053E+02  0.23797578937E+03  0.24641895997E+03  0.00000000000E+00 0. -1.
         22    1    3    3    0    0  0.14772517040E+02  0.12963730451E+02 -0.69160642531E+01  0.20835486835E+02  0.00000000000E+00 0. -1.
</event>
<event>
 7    1  0.6597701E-006  0.1295482E+03  0.7818608E-02  0.1244376E+00
          2   -1    0    0  502    0  0.00000000000E+00  0.00000000000E+00  0.16138239959E+03  0.16138239959E+03  0.00000000000E+00 0. -1.
          1   -1    0    0  501    0 -0.00000000000E+00 -0.00000000000E+00 -0.67318044928E+03  0.67318044928E+03  0.00000000000E+00 0. -1.
         25    2    1    2    0    0  0.39301917428E+02  0.86465016661E+02 -0.24732365066E+03  0.29294070017E+03  0.12499770328E+03 0.  0.
          2    1    1    2  501    0  0.95692513251E+02 -0.53699970342E+02 -0.35781457511E+03  0.37426195915E+03  0.00000000000E+00 0. -1.
          1    1    1    2  502    0 -0.13499443068E+03 -0.32765046318E+02  0.93340176075E+02  0.16736018954E+03  0.00000000000E+00 0. -1.
         22    1    3    3    0    0  0.14448599029E+02 -0.21208750200E+02 -0.43639465739E+01  0.26031080052E+02  0.00000000000E+00 0. -1.
         22    1    3    3    0    0  0.24853318398E+02  0.10767376686E+03 -0.24295970408E+03  0.26690962012E+03  0.00000000000E+00 0. -1.
</event>
<event>
 7    1  0.6597701E-006  0.7384511E+02  0.7818608E-02  0.1423818E+00
          2   -1    0    0  502    0  0.00000000000E+00  0.00000000000E+00  0.11330499286E+03  0.11330499286E+03  0.00000000000E+00 0. -1.
          1   -1    0    0  501    0 -0.00000000000E+00 -0.00000000000E+00 -0.11805099609E+04  0.11805099609E+04  0.00000000000E+00 0. -1.
         25    2    1    2    0    0  0.71994655552E+02 -0.25089267281E+02  0.99916111015E+01  0.14675576173E+03  0.12499887819E+03 0.  0.
          2    1    1    2  501    0 -0.72494654936E+02 -0.14719754298E+02 -0.10991222371E+04  0.11016087501E+04  0.00000000000E+00 0. -1.
          1    1    1    2  502    0  0.49999938399E+00  0.39809021578E+02  0.21925657943E+02  0.45450441963E+02  0.00000000000E+00 0. -1.
         22    1    3    3    0    0  0.39317283996E+02  0.50443768150E+02  0.96518110211E+00  0.63963693925E+02  0.00000000000E+00 0.  1.
         22    1    3    3    0    0  0.32677371556E+02 -0.75533035431E+02  0.90264299994E+01  0.82792067807E+02  0.00000000000E+00 0.  1.
</event>
<event>
 7    1  0.6597701E-006  0.5146934E+02  0.7818608E-02  0.1474419E+00
          2   -1    0    0  502    0  0.00000000000E+00  0.00000000000E+00  0.52885755158E+03  0.52885755158E+03  0.00000000000E+00 0. -1.
          1   -1    0    0  501    0 -0.00000000000E+00 -0.00000000000E+00 -0.13430269908E+03  0.13430269908E+03  0.00000000000E+00 0. -1.
         25    2    1    2    0    0 -0.97441001702E+01 -0.77189943654E+02  0.19617557355E+03  0.24527908220E+03  0.12499495037E+03 0.  0.
          2    1    1    2  501    0  0.28188330897E+02  0.42461877709E+02 -0.10248475547E+03  0.11445836868E+03  0.00000000000E+00 0. -1.
          1    1    1    2  502    0 -0.18444230727E+02  0.34728065945E+02  0.30086403443E+03  0.30342279977E+03  0.00000000000E+00 0. -1.
         22    1    3    3    0    0 -0.32660316570E+02 -0.78235793839E+02  0.20410103866E+03  0.22100852857E+03  0.00000000000E+00 0.  1.
         22    1    3    3    0    0  0.22916216400E+02  0.10458501847E+01 -0.79254651087E+01  0.24270553638E+02  0.00000000000E+00 0.  1.
</event>
<event>
 7    1  0.6597701E-006  0.4843520E+02  0.7818608E-02  0.1584910E+00
          2   -1    0    0  502    0  0.00000000000E+00  0.00000000000E+00  0.45721447661E+03  0.45721447661E+03  0.00000000000E+00 0. -1.
          1   -1    0    0  501    0 -0.00000000000E+00 -0.00000000000E+00 -0.53894952752E+02  0.53894952752E+02  0.00000000000E+00 0. -1.
         25    2    1    2    0    0 -0.25375580525E+02  0.37892494316E+02  0.10511452000E+03  0.16957084094E+03  0.12500178626E+03 0.  0.
          2    1    1    2  501    0  0.17318664740E+02  0.10265477507E+02 -0.14648542639E+02  0.24897710302E+02  0.00000000000E+00 0. -1.
          1    1    1    2  502    0  0.80569157852E+01 -0.48157971824E+02  0.31285354650E+03  0.31664087812E+03  0.00000000000E+00 0. -1.
         22    1    3    3    0    0 -0.74330526477E+02  0.70087195646E+01  0.66573461168E+02  0.10003087048E+03  0.00000000000E+00 0.  1.
         22    1    3    3    0    0  0.48954945951E+02  0.30883774752E+02  0.38541058831E+02  0.69539970462E+02  0.00000000000E+00 0.  1.
</event>
<event>
 7    1  0.6597701E-006  0.7024581E+02  0.7818608E-02  0.1438938E+00
          2   -1    0    0  502    0  0.00000000000E+00  0.00000000000E+00  0.88371404878E+01  0.88371404878E+01  0.00000000000E+00 0. -1.
          1   -1    0    0  501    0 -0.00000000000E+00 -0.00000000000E+00 -0.38659819028E+04  0.38659819028E+04  0.00000000000E+00 0. -1.
         25    2    1    2    0    0  0.32173557446E+01  0.90535850957E+02 -0.20177328870E+04  0.20236290702E+04  0.12498607413E+03 0.  0.
          2    1    1    2  501    0  0.24913753768E+02 -0.27797755315E+02 -0.16368776730E+04  0.16373032482E+04  0.00000000000E+00 0. -1.
          1    1    1    2  502    0 -0.28131109512E+02 -0.62738095641E+02 -0.20253420230E+03  0.21388672485E+03  0.00000000000E+00 0. -1.
         22    1    3    3    0    0  0.38996136448E+02  0.69381915260E+02 -0.18115958128E+04  0.18133433039E+04  0.00000000000E+00 0.  1.
         22    1    3    3    0    0 -0.35778780704E+02  0.21153935697E+02 -0.20613707418E+03  0.21028576627E+03  0.00000000000E+00 0.  1.
</event>
<event>
 7    1  0.6597701E-006  0.6417674E+02  0.7818608E-02  0.1474131E+00
          2   -1    0    0  502    0  0.00000000000E+00  0.00000000000E+00  0.18357849812E+04  0.18357849812E+04  0.00000000000E+00 0. -1.
          1   -1    0    0  501    0 -0.00000000000E+00 -0.00000000000E+00 -0.11938350459E+03  0.11938350459E+03  0.00000000000E+00 0. -1.
         25    2    1    2    0    0  0.91320778214E+02  0.23771669194E+02  0.35996644270E+03  0.39256022724E+03  0.12499246119E+03 0.  0.
          2    1    1    2  501    0 -0.29829854566E+02 -0.10430335070E+02 -0.99969479659E+02  0.10484516668E+03  0.00000000000E+00 0. -1.
          1    1    1    2  502    0 -0.61490923648E+02 -0.13341334124E+02  0.14564045136E+04  0.14577630919E+04  0.00000000000E+00 0. -1.
         22    1    3    3    0    0 -0.31200266771E+02  0.75412868353E+01  0.58187069861E+02  0.66453463060E+02  0.00000000000E+00 0.  1.
         22    1    3    3    0    0  0.12252104498E+03  0.16230382359E+02  0.30177937284E+03  0.32610676418E+03  0.00000000000E+00 0.  1.
</event>
<event>
 7    1  0.6597701E-006  0.1027913E+03  0.7818608E-02  0.1441869E+00
          2   -1    0    0  502    0  0.00000000000E+00  0.00000000000E+00  0.68009052215E+03  0.68009052215E+03  0.00000000000E+00 0. -1.
          1   -1    0    0  501    0 -0.00000000000E+00 -0.00000000000E+00 -0.44430715781E+02  0.44430715781E+02  0.00000000000E+00 0. -1.
         25    2    1    2    0    0  0.34140879923E+02 -0.78003189143E+02  0.12481515221E+03  0.19609695761E+03  0.12500038945E+03 0.  0.
          2    1    1    2  501    0 -0.62002181745E+01 -0.24174667714E+02  0.54439085401E+02  0.59887154581E+02  0.00000000000E+00 0. -1.
          1    1    1    2  502    0 -0.27940661748E+02  0.10217785686E+03  0.45640556876E+03  0.46853712575E+03  0.00000000000E+00 0. -1.
         22    1    3    3    0    0  0.25977563494E+02 -0.11228862267E+03  0.86998026387E+02  0.14440299575E+03  0.00000000000E+00 0. -1.
         22    1    3    3    0    0  0.81633164284E+01  0.34285433523E+02  0.37817125826E+02  0.51693961860E+02  0.00000000000E+00 0. -1.
</event>
<event>
 7    1  0.6597701E-006  0.3779564E+02  0.7818608E-02  0.1535659E+00
          2   -1    0    0  502    0  0.00000000000E+00  0.00000000000E+00  0.61440756893E+03  0.61440756893E+03  0.00000000000E+00 0. -1.
          1   -1    0    0  501    0 -0.00000000000E+00 -0.00000000000E+00 -0.27140608972E+03  0.27140608972E+03  0.00000000000E+00 0. -1.
         25    2    1    2    0    0 -0.95895039808E+01 -0.52793065747E+02  0.10835021503E+02  0.13646102188E+03  0.12500058570E+03 0.  0.
          2    1    1    2  501    0  0.28824033423E+02  0.20293551803E+02 -0.20643785660E+03  0.20942598163E+03  0.00000000000E+00 0. -1.
          1    1    1    2  502    0 -0.19234529442E+02  0.32499513945E+02  0.53860431430E+03  0.53992665513E+03  0.00000000000E+00 0. -1.
         22    1    3    3    0    0 -0.64662378346E+02 -0.41911521636E+02  0.19926865802E+02  0.79591951854E+02  0.00000000000E+00 0.  1.
         22    1    3    3    0    0  0.55072874365E+02 -0.10881544112E+02 -0.90918442995E+01  0.56869070028E+02  0.00000000000E+00 0.  1.
</event>
<event>
 7    1  0.6597701E-006  0.9625642E+02  0.7818608E-02  0.1336562E+00
          2   -1    0    0  502    0  0.00000000000E+00  0.00000000000E+00  0.66375956854E+03  0.66375956854E+03  0.00000000000E+00 0. -1.
          1   -1    0    0  501    0 -0.00000000000E+00 -0.00000000000E+00 -0.41377365743E+03  0.41377365743E+03  0.00000000000E+00 0. -1.
         25    2    1    2    0    0  0.55973997448E+02  0.32018648711E+02  0.22748229096E+03  0.26745432189E+03  0.12500135736E+03 0.  0.
          2    1    1    2  501    0  0.54425129787E+02 -0.30227476866E+02 -0.38391448516E+03  0.38892946278E+03  0.00000000000E+00 0. -1.
          1    1    1    2  502    0 -0.11039912724E+03 -0.17911718449E+01  0.40641810530E+03  0.42114944129E+03  0.00000000000E+00 0. -1.
         22    1    3    3    0    0  0.22199283371E+02  0.79223195105E+02  0.12418300386E+03  0.14896489947E+03  0.00000000000E+00 0.  1.
         22    1    3    3    0    0  0.33774714077E+02 -0.47204546394E+02  0.10329928710E+03  0.11848942242E+03  0.00000000000E+00 0.  1.
</event>
<event>
 7    1  0.6597701E-006  0.4584707E+02  0.7818608E-02  0.1523906E+00
          2   -1    0    0  502    0  0.00000000000E+00  0.00000000000E+00  0.54573414683E+03  0.54573414683E+03  0.00000000000E+00 0. -1.
          1   -1    0    0  501    0 -0.00000000000E+00 -0.00000000000E+00 -0.37631533766E+03  0.37631533766E+03  0.00000000000E+00 0. -1.
         25    2    1    2    0    0 -0.29103928333E+02 -0.56708969843E+02  0.10114698760E+03  0.17296902668E+03  0.12499850074E+03 0.  0.
          2    1    1    2  501    0  0.29319269674E+02  0.11251849852E+02 -0.33841097845E+03  0.33986499383E+03  0.00000000000E+00 0. -1.
          1    1    1    2  502    0 -0.21534134168E+00  0.45457119991E+02  0.40668280001E+03  0.40921546397E+03  0.00000000000E+00 0. -1.
         22    1    3    3    0    0  0.35014279144E+02 -0.50999920307E+02  0.12008886781E+02  0.63017497388E+02  0.00000000000E+00 0. -1.
         22    1    3    3    0    0 -0.64118207477E+02 -0.57090495360E+01  0.89138100821E+02  0.10995152930E+03  0.00000000000E+00 0. -1.
</event>
<event>
 7    1  0.1135704E-005  0.5951535E+02  0.7818608E-02  0.1420930E+00
          2   -1    0    0  502    0  0.00000000000E+00  0.00000000000E+00  0.22616898884E+04  0.22616898884E+04  0.00000000000E+00 0. -1.
          1   -1    0    0  501    0 -0.00000000000E+00 -0.00000000000E+00 -0.20394073580E+04  0.20394073580E+04  0.00000000000E+00 0. -1.
         25    2    1    2    0    0  0.52867520067E+02  0.46312227700E+02 -0.39872456799E+03  0.42372276845E+03  0.12497962341E+03 0.  0.
          2    1    1    2  501    0 -0.48782639470E+02  0.13072052120E+02 -0.16273980618E+04  0.16281815243E+04  0.00000000000E+00 0. -1.
          1    1    1    2  502    0 -0.40848805978E+01 -0.59384279821E+02  0.22484051602E+04  0.22491929538E+04  0.00000000000E+00 0. -1.
         22    1    3    3    0    0  0.31108362903E+02  0.24276240971E+02 -0.20941047193E+02  0.44672067064E+02  0.00000000000E+00 0.  1.
         22    1    3    3    0    0  0.21759157165E+02  0.22035986729E+02 -0.37778352080E+03  0.37905070138E+03  0.00000000000E+00 0.  1.
</event>
<event>
 7    1  0.6597701E-006  0.1207330E+03  0.7818608E-02  0.1355108E+00
          2   -1    0    0  502    0  0.00000000000E+00  0.00000000000E+00  0.89796175148E+03  0.89796175148E+03  0.00000000000E+00 0. -1.
          1   -1    0    0  501    0 -0.00000000000E+00 -0.00000000000E+00 -0.78181222188E+03  0.78181222188E+03  0.00000000000E+00 0. -1.
         25    2    1    2    0    0  0.43177872565E+02  0.14136209939E+03  0.32593604515E+02  0.19630301038E+03  0.12499982802E+03 0.  0.
          2    1    1    2  501    0 -0.36081197709E+02 -0.22131790868E+02 -0.69475765559E+03  0.69604588139E+03  0.00000000000E+00 0. -1.
          1    1    1    2  502    0 -0.70966748553E+01 -0.11923030853E+03  0.77831358067E+03  0.78742508159E+03  0.00000000000E+00 0. -1.
         22    1    3    3    0    0 -0.34411260476E+01  0.48861792196E+02 -0.45284930293E+02  0.66708627603E+02  0.00000000000E+00 0.  1.
         22    1    3    3    0    0  0.46618998612E+02  0.92500307199E+02  0.77878534808E+02  0.12959438278E+03  0.00000000000E+00 0.  1.
</event>
<event>
 7    1  0.6597701E-006  0.7014100E+02  0.7818608E-02  0.1470337E+00
          2   -1    0    0  502    0  0.00000000000E+00  0.00000000000E+00  0.16259554240E+04  0.16259554240E+04  0.00000000000E+00 0. -1.
          1   -1    0    0  501    0 -0.00000000000E+00 -0.00000000000E+00 -0.30939395596E+03  0.30939395596E+03  0.00000000000E+00 0. -1.
         25    2    1    2    0    0  0.32620793255E+02 -0.25026132887E+02  0.18792861229E+03  0.22942010298E+03  0.12500398735E+03 0.  0.
          2    1    1    2  501    0 -0.54373185382E+02  0.45259296708E+02 -0.28415498119E+03  0.29282913202E+03  0.00000000000E+00 0. -1.
          1    1    1    2  502    0  0.21752392127E+02 -0.20233163821E+02  0.14127878369E+04  0.14131001450E+04  0.00000000000E+00 0. -1.
         22    1    3    3    0    0  0.37098150694E+02 -0.66358405667E+02  0.66267901536E+02  0.10085209746E+03  0.00000000000E+00 0. -1.
         22    1    3    3    0    0 -0.44773574390E+01  0.41332272780E+02  0.12166071076E+03  0.12856800553E+03  0.00000000000E+00 0. -1.
</event>
<event>
 7    1  0.6597701E-006  0.1164539E+03  0.7818608E-02  0.1381192E+00
          2   -1    0    0  502    0  0.00000000000E+00  0.00000000000E+00  0.12314583624E+04  0.12314583624E+04  0.00000000000E+00 0. -1.
          1   -1    0    0  501    0 -0.00000000000E+00 -0.00000000000E+00 -0.50806682613E+02  0.50806682613E+02  0.00000000000E+00 0. -1.
         25    2    1    2    0    0 -0.75926944321E+02 -0.47914584490E+02  0.32613090975E+03  0.36061990455E+03  0.12499854793E+03 0.  0.
          2    1    1    2  501    0 -0.34775257813E+02 -0.62888399154E+01 -0.18553005072E+02  0.39913432083E+02  0.00000000000E+00 0. -1.
          1    1    1    2  502    0  0.11070220213E+03  0.54203424405E+02  0.87307377516E+03  0.88173170843E+03  0.00000000000E+00 0. -1.
         22    1    3    3    0    0  0.13256711431E+01 -0.68144727786E+02  0.20038622998E+03  0.21166034701E+03  0.00000000000E+00 0.  1.
         22    1    3    3    0    0 -0.77252615464E+02  0.20230143296E+02  0.12574467977E+03  0.14895955754E+03  0.00000000000E+00 0.  1.
</event>
<event>
 7    1  0.6597701E-006  0.3631996E+02  0.7818608E-02  0.1559979E+00
          2   -1    0    0  502    0  0.00000000000E+00  0.00000000000E+00  0.30260048500E+02  0.30260048500E+02  0.00000000000E+00 0. -1.
          1   -1    0    0  501    0 -0.00000000000E+00 -0.00000000000E+00 -0.10283652577E+04  0.10283652577E+04  0.00000000000E+00 0. -1.
         25    2    1    2    0    0 -0.62638548063E+01  0.31931020128E+01 -0.48890375682E+03  0.50467982759E+03  0.12500165264E+03 0.  0.
          2    1    1    2  501    0 -0.30983246080E+02 -0.48718343703E+01 -0.51522360895E+03  0.51617735665E+03  0.00000000000E+00 0. -1.
          1    1    1    2  502    0  0.37247100887E+02  0.16787323576E+01  0.60221565629E+01  0.37768121961E+02  0.00000000000E+00 0. -1.
         22    1    3    3    0    0 -0.52251222024E+02 -0.28701933842E+02 -0.15407776807E+03  0.16520880674E+03  0.00000000000E+00 0.  1.
         22    1    3    3    0    0  0.45987367218E+02  0.31895035855E+02 -0.33482598875E+03  0.33947102085E+03  0.00000000000E+00 0.  1.
</event>
<event>
 7    1  0.6597701E-006  0.4777663E+02  0.7818608E-02  0.1460275E+00
          2   -1    0    0  502    0  0.00000000000E+00  0.00000000000E+00  0.24574265652E+04  0.24574265652E+04  0.00000000000E+00 0. -1.
          1   -1    0    0  501    0 -0.00000000000E+00 -0.00000000000E+00 -0.68437321735E+03  0.68437321735E+03  0.00000000000E+00 0. -1.
         25    2    1    2    0    0  0.57783165319E+02 -0.55150750352E+02  0.68803750789E+03  0.70384720833E+03  0.12499912378E+03 0.  0.
          2    1    1    2  501    0 -0.45873512004E+02  0.97384314669E+01 -0.67534226878E+03  0.67696853410E+03  0.00000000000E+00 0. -1.
          1    1    1    2  502    0 -0.11909653315E+02  0.45412318885E+02  0.17603581087E+04  0.17609840401E+04  0.00000000000E+00 0. -1.
         22    1    3    3    0    0  0.29110538504E+02 -0.56746032115E+02  0.66205724360E+03  0.66512204100E+03  0.00000000000E+00 0. -1.
         22    1    3    3    0    0  0.28672626815E+02  0.15952817629E+01  0.25980264292E+02  0.38725167334E+02  0.00000000000E+00 0. -1.
</event>
<event>
 7    1  0.6597701E-006  0.5270709E+02  0.7818608E-02  0.1441057E+00
          2   -1    0    0  502    0  0.00000000000E+00  0.00000000000E+00  0.25556090998E+03  0.25556090998E+03  0.00000000000E+00 0. -1.
          1   -1    0    0  501    0 -0.00000000000E+00 -0.00000000000E+00 -0.35079059513E+03  0.35079059513E+03  0.00000000000E+00 0. -1.
         25    2    1    2    0    0 -0.21415654235E+02 -0.69875985747E+02  0.40819473597E+02  0.15043972797E+03  0.12499839477E+03 0.  0.
          2    1    1    2  501    0  0.45171460477E+02  0.27056125777E+02 -0.28980345355E+03  0.29454802066E+03  0.00000000000E+00 0. -1.
          1    1    1    2  502    0 -0.23755806242E+02  0.42819859970E+02  0.15375429481E+03  0.16136375649E+03  0.00000000000E+00 0. -1.
         22    1    3    3    0    0 -0.18061032841E+02  0.21761507059E+02  0.50859110563E+02  0.58192896680E+02  0.00000000000E+00 0. -1.
         22    1    3    3    0    0 -0.33546213946E+01 -0.91637492805E+02 -0.10039636966E+02  0.92246831288E+02  0.00000000000E+00 0. -1.
</event>
<event>
 7    1  0.6597701E-006  0.7228219E+02  0.7818608E-02  0.1360557E+00
          2   -1    0    0  502    0  0.00000000000E+00  0.00000000000E+00  0.91637413670E+03  0.91637413670E+03  0.00000000000E+00 0. -1.
          1   -1    0    0  501    0 -0.00000000000E+00 -0.00000000000E+00 -0.60674720113E+03  0.60674720113E+03  0.00000000000E+00 0. -1.
         25    2    1    2    0    0  0.11506660636E+03 -0.73557311359E+02  0.14843391029E+02  0.18572920870E+03  0.12499604295E+03 0.  0.
          2    1    1    2  501    0 -0.62464099228E+02  0.25652594352E+02 -0.51755618014E+03  0.52194273526E+03  0.00000000000E+00 0. -1.
          1    1    1    2  502    0 -0.52602507133E+02  0.47904717008E+02  0.81233972468E+03  0.81544939387E+03  0.00000000000E+00 0. -1.
         22    1    3    3    0    0  0.52021701878E+02  0.31866780683E+02  0.15283862678E+02  0.62891538665E+02  0.00000000000E+00 0.  1.
         22    1    3    3    0    0  0.63044904483E+02 -0.10542409204E+03 -0.44047164912E+00  0.12283767003E+03  0.00000000000E+00 0.  1.
</event>
<event>
 7    1  0.6597701E-006  0.2532680E+03  0.7818608E-02  0.1274471E+00
          2   -1    0    0  502    0  0.00000000000E+00  0.00000000000E+00  0.33238847214E+03  0.33238847214E+03  0.00000000000E+00 0. -1.
          1   -1    0    0  501    0 -0.00000000000E+00 -0.00000000000E+00 -0.12497482140E+04  0.12497482140E+04  0.00000000000E+00 0. -1.
         25    2    1    2    0    0  0.16460797678E+03 -0.22814735417E+03 -0.49608838726E+03  0.58384400026E+03  0.12499250950E+03 0.  0.
          2    1    1    2  501    0 -0.14615574829E+03  0.19070308242E+03 -0.68777722560E+03  0.72853735694E+03  0.00000000000E+00 0. -1.
          1    1    1    2  502    0 -0.18452228490E+02  0.37444271750E+02  0.26650587099E+03  0.26975532895E+03  0.00000000000E+00 0. -1.
         22    1    3    3    0    0  0.92590605943E+01  0.94618346558E+01 -0.11742868133E+01  0.13290427670E+02  0.00000000000E+00 0. -1.
         22    1    3    3    0    0  0.15534891619E+03 -0.23760918882E+03 -0.49491410045E+03  0.57055357259E+03  0.00000000000E+00 0. -1.
</event>
<event>
 7    1  0.6597701E-006  0.5002205E+02  0.7818608E-02  0.1449584E+00
          2   -1    0    0  502    0  0.00000000000E+00  0.00000000000E+00  0.84547107219E+03  0.84547107219E+03  0.00000000000E+00 0. -1.
          1   -1    0    0  501    0 -0.00000000000E+00 -0.00000000000E+00 -0.33707659097E+04  0.33707659097E+04  0.00000000000E+00 0. -1.
         25    2    1    2    0    0 -0.81108498890E+02 -0.47404135460E+02 -0.15982384597E+03  0.22359278236E+03  0.12499731969E+03 0.  0.
          2    1    1    2  501    0  0.33936698712E+02  0.36415723126E+02 -0.31781416662E+04  0.31785314620E+04  0.00000000000E+00 0. -1.
          1    1    1    2  502    0  0.47171800178E+02  0.10988412334E+02  0.81267067467E+03  0.81411273753E+03  0.00000000000E+00 0. -1.
         22    1    3    3    0    0 -0.10709109409E+03 -0.20177114342E+02 -0.79509064215E+02  0.13489740423E+03  0.00000000000E+00 0.  1.
         22    1    3    3    0    0  0.25982595198E+02 -0.27227021118E+02 -0.80314781757E+02  0.88695378126E+02  0.00000000000E+00 0.  1.
</event>
<event>
 7    1  0.6597701E-006  0.1006678E+03  0.7818608E-02  0.1316628E+00
          2   -1    0    0  502    0  0.00000000000E+00  0.00000000000E+00  0.64415569081E+03  0.64415569081E+03  0.00000000000E+00 0. -1.
          1   -1    0    0  501    0 -0.00000000000E+00 -0.00000000000E+00 -0.14684252445E+04  0.14684252445E+04  0.00000000000E+00 0. -1.
         25    2    1    2    0    0 -0.10193645745E+03 -0.48716450462E+02  0.51451617523E+02  0.17617129432E+03  0.12499888837E+03 0.  0.
          2    1    1    2  501    0  0.98378770588E+02 -0.22197828125E+02 -0.14018692322E+04  0.14054922519E+04  0.00000000000E+00 0. -1.
          1    1    1    2  502    0  0.35576868654E+01  0.70914278586E+02  0.52614806093E+03  0.53091738911E+03  0.00000000000E+00 0. -1.
         22    1    3    3    0    0  0.68803903960E+01 -0.55997740979E+02  0.20823466890E+01  0.56457266446E+02  0.00000000000E+00 0.  1.
         22    1    3    3    0    0 -0.10881684785E+03  0.72812905177E+01  0.49369270834E+02  0.11971402788E+03  0.00000000000E+00 0.  1.
</event>
<event>
 7    1  0.6597701E-006  0.6090714E+02  0.7818608E-02  0.1488407E+00
          2   -1    0    0  502    0  0.00000000000E+00  0.00000000000E+00  0.38890060833E+03  0.38890060833E+03  0.00000000000E+00 0. -1.
          1   -1    0    0  501    0 -0.00000000000E+00 -0.00000000000E+00 -0.18520135063E+03  0.18520135063E+03  0.00000000000E+00 0. -1.
         25    2    1    2    0    0  0.63245058487E+02 -0.50725960258E+02 -0.27275635410E+02  0.15146703994E+03  0.12500097373E+03 0.  0.
          2    1    1    2  501    0 -0.33259675907E+02  0.48004829868E+02 -0.86152567761E+02  0.10408138481E+03  0.00000000000E+00 0. -1.
          1    1    1    2  502    0 -0.29985382580E+02  0.27211303900E+01  0.31712746087E+03  0.31855353421E+03  0.00000000000E+00 0. -1.
         22    1    3    3    0    0 -0.55189664164E+01 -0.16401172388E+02  0.43607223403E+02  0.46915321367E+02  0.00000000000E+00 0.  1.
         22    1    3    3    0    0  0.68764024903E+02 -0.34324787870E+02 -0.70882858813E+02  0.10455171857E+03  0.00000000000E+00 0.  1.
</event>
<event>
 7    1  0.6597701E-006  0.1990048E+03  0.7818608E-02  0.1332396E+00
          2   -1    0    0  502    0  0.00000000000E+00  0.00000000000E+00  0.25971588647E+04  0.25971588647E+04  0.00000000000E+00 0. -1.
          1   -1    0    0  501    0 -0.00000000000E+00 -0.00000000000E+00 -0.95800233964E+03  0.95800233964E+03  0.00000000000E+00 0. -1.
         25    2    1    2    0    0 -0.15850374699E+03 -0.89077840361E+02  0.15832822076E+03  0.27157200339E+03  0.12500091233E+03 0.  0.
          2    1    1    2  501    0 -0.27565768984E+02  0.14675059341E+02 -0.89689388649E+03  0.89743739203E+03  0.00000000000E+00 0. -1.
          1    1    1    2  502    0  0.18606951597E+03  0.74402781020E+02  0.23777221908E+04  0.23861518089E+04  0.00000000000E+00 0. -1.
         22    1    3    3    0    0 -0.14985883657E+03 -0.21283952607E+02  0.97236733594E+02  0.17990458553E+03  0.00000000000E+00 0.  1.
         22    1    3    3    0    0 -0.86449104244E+01 -0.67793887753E+02  0.61091487163E+02  0.91667417858E+02  0.00000000000E+00 0.  1.
</event>
<event>
 7    1  0.6597701E-006  0.6536944E+02  0.7818608E-02  0.1395244E+00
          2   -1    0    0  502    0  0.00000000000E+00  0.00000000000E+00  0.24262585806E+04  0.24262585806E+04  0.00000000000E+00 0. -1.
          1   -1    0    0  501    0 -0.00000000000E+00 -0.00000000000E+00 -0.13979263097E+03  0.13979263097E+03  0.00000000000E+00 0. -1.
         25    2    1    2    0    0  0.11790511854E+03  0.21550378194E+02  0.33972552561E+03  0.38131825264E+03  0.12499656503E+03 0.  0.
          2    1    1    2  501    0 -0.54162434548E+02 -0.15061275146E+02 -0.11183017734E+03  0.12516549001E+03  0.00000000000E+00 0. -1.
          1    1    1    2  502    0 -0.63742683991E+02 -0.64891030475E+01  0.20585706013E+04  0.20595674689E+04  0.00000000000E+00 0. -1.
         22    1    3    3    0    0  0.36263668989E+02  0.36898155928E+02  0.28230229792E+02  0.58936181362E+02  0.00000000000E+00 0.  1.
         22    1    3    3    0    0  0.81641449550E+02 -0.15347777734E+02  0.31149529582E+03  0.32238207128E+03  0.00000000000E+00 0.  1.
</event>
<event>
 7    1  0.6754240E-006  0.9705775E+02  0.7818608E-02  0.1312131E+00
          2   -1    0    0  502    0  0.00000000000E+00  0.00000000000E+00  0.16408700897E+04  0.16408700897E+04  0.00000000000E+00 0. -1.
          1   -1    0    0  501    0 -0.00000000000E+00 -0.00000000000E+00 -0.82782462416E+03  0.82782462416E+03  0.00000000000E+00 0. -1.
         25    2    1    2    0    0 -0.12569705728E+03  0.69098604307E+02 -0.15387688470E+03  0.24468314553E+03  0.12496951122E+03 0.  0.
          2    1    1    2  501    0  0.49863099360E+02 -0.80530114906E+02 -0.62404736439E+03  0.63119453506E+03  0.00000000000E+00 0. -1.
          1    1    1    2  502    0  0.75833957921E+02  0.11431510598E+02  0.15909697147E+04  0.15928170333E+04  0.00000000000E+00 0. -1.
         22    1    3    3    0    0 -0.90117929526E+02 -0.14255928421E+02 -0.11306815869E+03  0.14528895769E+03  0.00000000000E+00 0.  1.
         22    1    3    3    0    0 -0.35579127755E+02  0.83354532728E+02 -0.40808726017E+02  0.99394187844E+02  0.00000000000E+00 0.  1.
</event>
<event>
 7    1  0.6597701E-006  0.4556273E+03  0.7818608E-02  0.1170536E+00
          2   -1    0    0  502    0  0.00000000000E+00  0.00000000000E+00  0.18753192174E+04  0.18753192174E+04  0.00000000000E+00 0. -1.
          1   -1    0    0  501    0 -0.00000000000E+00 -0.00000000000E+00 -0.18205606310E+03  0.18205606310E+03  0.00000000000E+00 0. -1.
         25    2    1    2    0    0 -0.18237468094E+03 -0.44486508116E+03  0.12602905148E+04  0.13546673099E+04  0.12500349682E+03 0.  0.
          2    1    1    2  501    0  0.22339355894E+03  0.38948122806E+03  0.26553479910E+03  0.52164071805E+03  0.00000000000E+00 0. -1.
          1    1    1    2  502    0 -0.41018878000E+02  0.55383853101E+02  0.16743784037E+03  0.18106725249E+03  0.00000000000E+00 0. -1.
         22    1    3    3    0    0 -0.16949832195E+03 -0.44140733101E+03  0.12534824688E+04  0.13396971347E+04  0.00000000000E+00 0. -1.
         22    1    3    3    0    0 -0.12876358987E+02 -0.34577501544E+01  0.68080459581E+01  0.14970175238E+02  0.00000000000E+00 0. -1.
</event>
<event>
 7    1  0.6597701E-006  0.2206236E+03  0.7818608E-02  0.1168503E+00
          2   -1    0    0  502    0  0.00000000000E+00  0.00000000000E+00  0.14338971532E+04  0.14338971532E+04  0.00000000000E+00 0. -1.
          1   -1    0    0  501    0 -0.00000000000E+00 -0.00000000000E+00 -0.25672150167E+03  0.25672150167E+03  0.00000000000E+00 0. -1.
         25    2    1    2    0    0  0.10992193285E+03 -0.29084582695E+02 -0.48465442637E+02  0.17579128260E+03  0.12499972655E+03 0.  0.
          2    1    1    2  501    0  0.11296971330E+03  0.91982968649E+02 -0.95074001686E+02  0.17396001966E+03  0.00000000000E+00 0. -1.
          1    1    1    2  502    0 -0.22289164615E+03 -0.62898385953E+02  0.13207150959E+04  0.13408673526E+04  0.00000000000E+00 0. -1.
         22    1    3    3    0    0  0.44675676326E+02 -0.39162990664E+02 -0.82381089701E+02  0.10156918742E+03  0.00000000000E+00 0. -1.
         22    1    3    3    0    0  0.65246256521E+02  0.10078407969E+02  0.33915647064E+02  0.74222095180E+02  0.00000000000E+00 0. -1.
</event>
<event>
 7    1  0.6597701E-006  0.3272482E+02  0.7818608E-02  0.1602053E+00
          2   -1    0    0  502    0  0.00000000000E+00  0.00000000000E+00  0.31374069561E+03  0.31374069561E+03  0.00000000000E+00 0. -1.
          1   -1    0    0  501    0 -0.00000000000E+00 -0.00000000000E+00 -0.72175540241E+03  0.72175540241E+03  0.00000000000E+00 0. -1.
         25    2    1    2    0    0  0.33592016224E+02  0.17159807489E+02  0.15784908812E+03  0.20485797039E+03  0.12501028303E+03 0.  0.
          2    1    1    2  501    0 -0.31298721053E+02  0.95960080458E+01 -0.69650074901E+03  0.69726966569E+03  0.00000000000E+00 0. -1.
          1    1    1    2  502    0 -0.22932951712E+01 -0.26755815535E+02  0.13063695409E+03  0.13336846195E+03  0.00000000000E+00 0. -1.
         22    1    3    3    0    0 -0.42414449281E+02 -0.15106001334E+02  0.35903340268E+02  0.57586687928E+02  0.00000000000E+00 0.  1.
         22    1    3    3    0    0  0.76006465505E+02  0.32265808824E+02  0.12194574785E+03  0.14727128246E+03  0.00000000000E+00 0.  1.
</event>
<event>
 7    1  0.6597701E-006  0.1172126E+03  0.7818608E-02  0.1290625E+00
          2   -1    0    0  502    0  0.00000000000E+00  0.00000000000E+00  0.56851068142E+03  0.56851068142E+03  0.00000000000E+00 0. -1.
          1   -1    0    0  501    0 -0.00000000000E+00 -0.00000000000E+00 -0.88693105755E+03  0.88693105755E+03  0.00000000000E+00 0. -1.
         25    2    1    2    0    0  0.85826822200E+02  0.11738785270E+03  0.28712649994E+02  0.19389611281E+03  0.12500053969E+03 0.  0.
          2    1    1    2  501    0 -0.84357835093E+01 -0.11663958093E+03 -0.79676494833E+03  0.80530139524E+03  0.00000000000E+00 0. -1.
          1    1    1    2  502    0 -0.77391038691E+02 -0.74827177725E+00  0.44963192221E+03  0.45624423092E+03  0.00000000000E+00 0. -1.
         22    1    3    3    0    0  0.36316163847E+02  0.12699545802E+03 -0.67241147869E+01  0.13225703699E+03  0.00000000000E+00 0. -1.
         22    1    3    3    0    0  0.49510658354E+02 -0.96076053133E+01  0.35436764781E+02  0.61639075825E+02  0.00000000000E+00 0. -1.
</event>
<event>
 7    1  0.6597701E-006  0.3085787E+03  0.7818608E-02  0.1272045E+00
          2   -1    0    0  502    0  0.00000000000E+00  0.00000000000E+00  0.19957543926E+04  0.19957543926E+04  0.00000000000E+00 0. -1.
          1   -1    0    0  501    0 -0.00000000000E+00 -0.00000000000E+00 -0.24341352965E+03  0.24341352965E+03  0.00000000000E+00 0. -1.
         25    2    1    2    0    0  0.12690516881E+03  0.28474871539E+03  0.30698528047E+03  0.45502993039E+03  0.12500208935E+03 0.  0.
          2    1    1    2  501    0 -0.92963688452E+02 -0.29357489585E+03 -0.29055369403E+02  0.30931000846E+03  0.00000000000E+00 0. -1.
          1    1    1    2  502    0 -0.33941480361E+02  0.88261804649E+01  0.14744109518E+04  0.14748279833E+04  0.00000000000E+00 0. -1.
         22    1    3    3    0    0  0.10786482826E+03  0.24872907853E+03  0.31272906728E+03  0.41388457957E+03  0.00000000000E+00 0. -1.
         22    1    3    3    0    0  0.19040340553E+02  0.36019636852E+02 -0.57437868094E+01  0.41145350822E+02  0.00000000000E+00 0. -1.
</event>
<event>
 7    1  0.6597701E-006  0.5919079E+02  0.7818608E-02  0.1449452E+00
          2   -1    0    0  502    0  0.00000000000E+00  0.00000000000E+00  0.11591041249E+04  0.11591041249E+04  0.00000000000E+00 0. -1.
          1   -1    0    0  501    0 -0.00000000000E+00 -0.00000000000E+00 -0.56870460409E+02  0.56870460409E+02  0.00000000000E+00 0. -1.
         25    2    1    2    0    0  0.41870736032E+02 -0.55878080787E+02  0.40154383717E+03  0.42630703766E+03  0.12499887495E+03 0.  0.
          2    1    1    2  501    0 -0.40827731727E+02 -0.34330109447E+01 -0.33598921666E+02  0.52986571688E+02  0.00000000000E+00 0. -1.
          1    1    1    2  502    0 -0.10430043048E+01  0.59311091732E+02  0.73428874897E+03  0.73668097595E+03  0.00000000000E+00 0. -1.
         22    1    3    3    0    0  0.38038843856E+02 -0.95680374375E+02  0.27813801759E+03  0.29658463297E+03  0.00000000000E+00 0.  1.
         22    1    3    3    0    0  0.38318921755E+01  0.39802293588E+02  0.12340581958E+03  0.12972240469E+03  0.00000000000E+00 0.  1.
</event>
<event>
 7    1  0.6597701E-006  0.4415303E+02  0.7818608E-02  0.1575663E+00
          2   -1    0    0  502    0  0.00000000000E+00  0.00000000000E+00  0.16417755531E+04  0.16417755531E+04  0.00000000000E+00 0. -1.
          1   -1    0    0  501    0 -0.00000000000E+00 -0.00000000000E+00 -0.56935693363E+03  0.56935693363E+03  0.00000000000E+00 0. -1.
         25    2    1    2    0    0 -0.17591523994E+02 -0.29579418626E+02  0.32930050294E+03  0.35390372017E+03  0.12499847275E+03 0.  0.
          2    1    1    2  501    0 -0.21756278132E+02  0.85667019126E+01 -0.55642712096E+03  0.55691818516E+03  0.00000000000E+00 0. -1.
          1    1    1    2  502    0  0.39347802127E+02  0.21012716713E+02  0.12995452375E+04  0.13003105814E+04  0.00000000000E+00 0. -1.
         22    1    3    3    0    0 -0.54662817557E+02 -0.38842043077E+02  0.29509845135E+03  0.30262158535E+03  0.00000000000E+00 0.  1.
         22    1    3    3    0    0  0.37071293563E+02  0.92626244509E+01  0.34202051587E+02  0.51282134812E+02  0.00000000000E+00 0.  1.
</event>
<event>
 7    1  0.6597701E-006  0.1000174E+03  0.7818608E-02  0.1337518E+00
          2   -1    0    0  502    0  0.00000000000E+00  0.00000000000E+00  0.11449881674E+04  0.11449881674E+04  0.00000000000E+00 0. -1.
          1   -1    0    0  501    0 -0.00000000000E+00 -0.00000000000E+00 -0.18253620634E+03  0.18253620634E+03  0.00000000000E+00 0. -1.
         25    2    1    2    0    0  0.12131533916E+03  0.93400020641E+02  0.19101889395E+03  0.27487121602E+03  0.12499996871E+03 0.  0.
          2    1    1    2  501    0 -0.36276910293E+02 -0.47059016771E+02 -0.13162603114E+03  0.14441598718E+03  0.00000000000E+00 0. -1.
          1    1    1    2  502    0 -0.85038428863E+02 -0.46341003870E+02  0.90305909822E+03  0.90823717051E+03  0.00000000000E+00 0. -1.
         22    1    3    3    0    0  0.14628788574E+03  0.71598844057E+02  0.14437979765E+03  0.21765124846E+03  0.00000000000E+00 0. -1.
         22    1    3    3    0    0 -0.24972546587E+02  0.21801176584E+02  0.46639096302E+02  0.57219967558E+02  0.00000000000E+00 0. -1.
</event>
<event>
 7    1  0.6597701E-006  0.1077538E+03  0.7818608E-02  0.1419490E+00
          2   -1    0    0  502    0  0.00000000000E+00  0.00000000000E+00  0.58855668795E+03  0.58855668795E+03  0.00000000000E+00 0. -1.
          1   -1    0    0  501    0 -0.00000000000E+00 -0.00000000000E+00 -0.52380632063E+03  0.52380632063E+03  0.00000000000E+00 0. -1.
         25    2    1    2    0    0 -0.40160073799E+02 -0.10597533003E+03 -0.14929751649E+02  0.16938967783E+03  0.12500545335E+03 0.  0.
          2    1    1    2  501    0  0.28188191694E+02 -0.97252538990E+00 -0.42551223983E+03  0.42644599447E+03  0.00000000000E+00 0. -1.
          1    1    1    2  502    0  0.11971882105E+02  0.10694785542E+03  0.50519235880E+03  0.51652733628E+03  0.00000000000E+00 0. -1.
         22    1    3    3    0    0 -0.52282078786E+02  0.84139646774E+01  0.26660798422E+01  0.53021868559E+02  0.00000000000E+00 0.  1.
         22    1    3    3    0    0  0.12122004988E+02 -0.11438929470E+03 -0.17595831491E+02  0.11636780927E+03  0.00000000000E+00 0.  1.
</event>
<event>
 7    1  0.6597701E-006  0.5500572E+02  0.7818608E-02  0.1460536E+00
          2   -1    0    0  502    0  0.00000000000E+00  0.00000000000E+00  0.37603667411E+02  0.37603667411E+02  0.00000000000E+00 0. -1.
          1   -1    0    0  501    0 -0.00000000000E+00 -0.00000000000E+00 -0.11386626853E+04  0.11386626853E+04  0.00000000000E+00 0. -1.
         25    2    1    2    0    0 -0.41597638132E+02  0.70367809813E+02 -0.38922911273E+03  0.41690101887E+03  0.12500066074E+03 0.  0.
          2    1    1    2  501    0  0.44536024397E+02 -0.29818748732E+02 -0.71644668066E+03  0.71844864916E+03  0.00000000000E+00 0. -1.
          1    1    1    2  502    0 -0.29383862646E+01 -0.40549061081E+02  0.46167755100E+01  0.40916684671E+02  0.00000000000E+00 0. -1.
         22    1    3    3    0    0 -0.58367979600E+02  0.43308105891E+02 -0.88625069086E+02  0.11461594980E+03  0.00000000000E+00 0. -1.
         22    1    3    3    0    0  0.16770341468E+02  0.27059703921E+02 -0.30060404364E+03  0.30228506907E+03  0.00000000000E+00 0. -1.
</event>
<event>
 7    1  0.6597701E-006  0.5993534E+02  0.7818608E-02  0.1422231E+00
          2   -1    0    0  502    0  0.00000000000E+00  0.00000000000E+00  0.10720106685E+03  0.10720106685E+03  0.00000000000E+00 0. -1.
          1   -1    0    0  501    0 -0.00000000000E+00 -0.00000000000E+00 -0.58429943187E+03  0.58429943187E+03  0.00000000000E+00 0. -1.
         25    2    1    2    0    0 -0.22556872600E+02  0.32234800449E+01 -0.15693614268E+03  0.20192336569E+03  0.12499955763E+03 0.  0.
          2    1    1    2  501    0  0.43379702059E+02 -0.48297583633E+02 -0.39470720418E+03  0.40001029008E+03  0.00000000000E+00 0. -1.
          1    1    1    2  502    0 -0.20822829459E+02  0.45074103588E+02  0.74544981836E+02  0.89566842961E+02  0.00000000000E+00 0. -1.
         22    1    3    3    0    0 -0.67010003455E+02  0.21994668208E+02 -0.56036112390E+02  0.90078587269E+02  0.00000000000E+00 0.  1.
         22    1    3    3    0    0  0.44453130855E+02 -0.18771188163E+02 -0.10090003028E+03  0.11184477842E+03  0.00000000000E+00 0.  1.
</event>
<event>
 7    1  0.6597701E-006  0.9514497E+02  0.7818608E-02  0.1372406E+00
          2   -1    0    0  502    0  0.00000000000E+00  0.00000000000E+00  0.55507423312E+02  0.55507423312E+02  0.00000000000E+00 0. -1.
          1   -1    0    0  501    0 -0.00000000000E+00 -0.00000000000E+00 -0.18161884979E+04  0.18161884979E+04  0.00000000000E+00 0. -1.
         25    2    1    2    0    0  0.49354548445E+02  0.10947318593E+03 -0.47482855368E+03  0.50547861340E+03  0.12500489319E+03 0.  0.
          2    1    1    2  501    0 -0.43441076440E+02 -0.16539035413E+02 -0.12710813194E+04  0.12719309680E+04  0.00000000000E+00 0. -1.
          1    1    1    2  502    0 -0.59134720047E+01 -0.92934150516E+02 -0.14771201513E+02  0.94286339824E+02  0.00000000000E+00 0. -1.
         22    1    3    3    0    0  0.51267274648E+01  0.34627974330E+02 -0.35875105845E+03  0.36045485415E+03  0.00000000000E+00 0.  1.
         22    1    3    3    0    0  0.44227820980E+02  0.74845211600E+02 -0.11607749524E+03  0.14502375926E+03  0.00000000000E+00 0.  1.
</event>
<event>
 7    1  0.6597701E-006  0.6417602E+02  0.7818608E-02  0.1383205E+00
          2   -1    0    0  502    0  0.00000000000E+00  0.00000000000E+00  0.13403313637E+04  0.13403313637E+04  0.00000000000E+00 0. -1.
          1   -1    0    0  501    0 -0.00000000000E+00 -0.00000000000E+00 -0.14825699633E+04  0.14825699633E+04  0.00000000000E+00 0. -1.
         25    2    1    2    0    0  0.45177201913E+01 -0.27140240987E+02  0.25401977834E+03  0.28443939969E+03  0.12499088700E+03 0.  0.
          2    1    1    2  501    0  0.61848645410E+02  0.12434543774E+02 -0.14656023987E+04  0.14669595304E+04  0.00000000000E+00 0. -1.
          1    1    1    2  502    0 -0.66366365601E+02  0.14705697213E+02  0.10693440207E+04  0.10715023970E+04  0.00000000000E+00 0. -1.
         22    1    3    3    0    0 -0.20004457915E+02  0.27723715463E+01  0.24352563684E+03  0.24436161765E+03  0.00000000000E+00 0. -1.
         22    1    3    3    0    0  0.24522178106E+02 -0.29912612533E+02  0.10494141494E+02  0.40077782041E+02  0.00000000000E+00 0. -1.
</event>
<event>
 7    1  0.6597701E-006  0.9279576E+02  0.7818608E-02  0.1388552E+00
          2   -1    0    0  502    0  0.00000000000E+00  0.00000000000E+00  0.33751750253E+04  0.33751750253E+04  0.00000000000E+00 0. -1.
          1   -1    0    0  501    0 -0.00000000000E+00 -0.00000000000E+00 -0.91233649085E+03  0.91233649085E+03  0.00000000000E+00 0. -1.
         25    2    1    2    0    0  0.13254740157E+03 -0.21547012869E+02  0.87643472008E+03  0.89543129823E+03  0.12500521529E+03 0.  0.
          2    1    1    2  501    0 -0.90910746277E+02  0.18046122609E+02 -0.90028350219E+03  0.90504188336E+03  0.00000000000E+00 0. -1.
          1    1    1    2  502    0 -0.41636655290E+02  0.35008902599E+01  0.24866873166E+04  0.24870383346E+04  0.00000000000E+00 0. -1.
         22    1    3    3    0    0  0.13873208187E+03 -0.55125395899E+02  0.72034662411E+03  0.73565253937E+03  0.00000000000E+00 0. -1.
         22    1    3    3    0    0 -0.61846803023E+01  0.33578383031E+02  0.15608809598E+03  0.15977875886E+03  0.00000000000E+00 0. -1.
</event>
<event>
 7    1  0.6597701E-006  0.7022272E+02  0.7818608E-02  0.1400050E+00
          2   -1    0    0  502    0  0.00000000000E+00  0.00000000000E+00  0.79088656456E+03  0.79088656456E+03  0.00000000000E+00 0. -1.
          1   -1    0    0  501    0 -0.00000000000E+00 -0.00000000000E+00 -0.35712408262E+03  0.35712408262E+03  0.00000000000E+00 0. -1.
         25    2    1    2    0    0 -0.17320731669E+02 -0.90373261690E+02 -0.19951598552E+02  0.15649347072E+03  0.12499922368E+03 0.  0.
          2    1    1    2  501    0 -0.25985880237E+02  0.64647114031E+02 -0.26349003718E+03  0.27254635388E+03  0.00000000000E+00 0. -1.
          1    1    1    2  502    0  0.43306611907E+02  0.25726147658E+02  0.71720411767E+03  0.71897082257E+03  0.00000000000E+00 0. -1.
         22    1    3    3    0    0  0.51142008250E+02 -0.14813584619E+02 -0.76629591161E+01  0.53792827027E+02  0.00000000000E+00 0. -1.
         22    1    3    3    0    0 -0.68462739920E+02 -0.75559677071E+02 -0.12288639436E+02  0.10270064370E+03  0.00000000000E+00 0. -1.
</event>
<event>
 7    1  0.6597701E-006  0.7206664E+02  0.7818608E-02  0.1358034E+00
          2   -1    0    0  502    0  0.00000000000E+00  0.00000000000E+00  0.24864955807E+03  0.24864955807E+03  0.00000000000E+00 0. -1.
          1   -1    0    0  501    0 -0.00000000000E+00 -0.00000000000E+00 -0.10166205195E+04  0.10166205195E+04  0.00000000000E+00 0. -1.
         25    2    1    2    0    0 -0.11409148729E+03 -0.77022507503E+02 -0.31001458145E+01  0.18596453019E+03  0.12499544572E+03 0.  0.
          2    1    1    2  501    0  0.50288544960E+02  0.50278749438E+02 -0.91302755343E+03  0.91579266416E+03  0.00000000000E+00 0. -1.
          1    1    1    2  502    0  0.63802942330E+02  0.26743758066E+02  0.14815673777E+03  0.16351288326E+03  0.00000000000E+00 0. -1.
         22    1    3    3    0    0 -0.12490042919E+03 -0.33475915934E+02 -0.31205341039E+02  0.13302077833E+03  0.00000000000E+00 0. -1.
         22    1    3    3    0    0  0.10808941897E+02 -0.43546591569E+02  0.28105195224E+02  0.52943751858E+02  0.00000000000E+00 0. -1.
</event>
<event>
 7    1  0.6597701E-006  0.1345003E+03  0.7818608E-02  0.1230810E+00
          2   -1    0    0  502    0  0.00000000000E+00  0.00000000000E+00  0.76487444103E+03  0.76487444103E+03  0.00000000000E+00 0. -1.
          1   -1    0    0  501    0 -0.00000000000E+00 -0.00000000000E+00 -0.17144174101E+03  0.17144174101E+03  0.00000000000E+00 0. -1.
         25    2    1    2    0    0  0.40248028188E+02 -0.12661554277E+03 -0.75982022815E+02  0.19760618022E+03  0.12499414076E+03 0.  0.
          2    1    1    2  501    0 -0.15823058759E+03  0.98153049856E+02  0.46622953049E+03  0.50203676673E+03  0.00000000000E+00 0. -1.
          1    1    1    2  502    0  0.11798255940E+03  0.28462492915E+02  0.20318519234E+03  0.23667323510E+03  0.00000000000E+00 0. -1.
         22    1    3    3    0    0 -0.14846945999E+02 -0.12335277930E+03 -0.68598897143E+02  0.14192303779E+03  0.00000000000E+00 0.  1.
         22    1    3    3    0    0  0.55094974187E+02 -0.32627634744E+01 -0.73831256713E+01  0.55683142430E+02  0.00000000000E+00 0.  1.
</event>
<event>
 7    1  0.6597701E-006  0.4898169E+02  0.7818608E-02  0.1461365E+00
          2   -1    0    0  502    0  0.00000000000E+00  0.00000000000E+00  0.28653259805E+04  0.28653259805E+04  0.00000000000E+00 0. -1.
          1   -1    0    0  501    0 -0.00000000000E+00 -0.00000000000E+00 -0.22065056542E+03  0.22065056542E+03  0.00000000000E+00 0. -1.
         25    2    1    2    0    0  0.24069975874E+02  0.57859022580E+02  0.36760146958E+03  0.39329227091E+03  0.12498375769E+03 0.  0.
          2    1    1    2  501    0  0.21605998585E+02 -0.39908264470E+02 -0.20508204121E+03  0.21004316789E+03  0.00000000000E+00 0. -1.
          1    1    1    2  502    0 -0.45675974459E+02 -0.17950758111E+02  0.24821559867E+04  0.24826411071E+04  0.00000000000E+00 0. -1.
         22    1    3    3    0    0 -0.14873417971E+02  0.33859847026E+02  0.33520278682E+03  0.33723673598E+03  0.00000000000E+00 0. -1.
         22    1    3    3    0    0  0.38943393845E+02  0.23999175554E+02  0.32398682762E+02  0.56055534929E+02  0.00000000000E+00 0. -1.
</event>
<event>
 7    1  0.6597701E-006  0.6485648E+02  0.7818608E-02  0.1390881E+00
          2   -1    0    0  502    0  0.00000000000E+00  0.00000000000E+00  0.16175351699E+03  0.16175351699E+03  0.00000000000E+00 0. -1.
          1   -1    0    0  501    0 -0.00000000000E+00 -0.00000000000E+00 -0.43130517305E+03  0.43130517305E+03  0.00000000000E+00 0. -1.
         25    2    1    2    0    0 -0.42276979145E+02  0.61156317180E+02 -0.15525065496E+03  0.21272262959E+03  0.12498285152E+03 0.  0.
          2    1    1    2  501    0  0.66429671403E+02 -0.76833299618E+01 -0.23596754294E+03  0.24526030279E+03  0.00000000000E+00 0. -1.
          1    1    1    2  502    0 -0.24152692258E+02 -0.53472987218E+02  0.12166654185E+03  0.13507575767E+03  0.00000000000E+00 0. -1.
         22    1    3    3    0    0 -0.31249117950E+01  0.19619845450E+02  0.20132430556E+02  0.28284592436E+02  0.00000000000E+00 0.  1.
         22    1    3    3    0    0 -0.39152067350E+02  0.41536471730E+02 -0.17538308552E+03  0.18443803715E+03  0.00000000000E+00 0.  1.
</event>
<event>
 7    1  0.6597701E-006  0.1557637E+03  0.7818608E-02  0.1244341E+00
          2   -1    0    0  502    0  0.00000000000E+00  0.00000000000E+00  0.98021715778E+03  0.98021715778E+03  0.00000000000E+00 0. -1.
          1   -1    0    0  501    0 -0.00000000000E+00 -0.00000000000E+00 -0.32689962209E+03  0.32689962209E+03  0.00000000000E+00 0. -1.
         25    2    1    2    0    0 -0.74960098786E+01  0.17047240022E+03  0.48481400598E+03  0.52894877486E+03  0.12500062652E+03 0.  0.
          2    1    1    2  501    0  0.88616961678E+02 -0.12859203337E+03 -0.27992456134E+03  0.32054116270E+03  0.00000000000E+00 0. -1.
          1    1    1    2  502    0 -0.81120951799E+02 -0.41880366842E+02  0.44842809106E+03  0.45762684230E+03  0.00000000000E+00 0. -1.
         22    1    3    3    0    0 -0.27676766265E+02  0.38222054049E+02  0.28242648682E+03  0.28634183987E+03  0.00000000000E+00 0. -1.
         22    1    3    3    0    0  0.20180756387E+02  0.13225034617E+03  0.20238751917E+03  0.24260693499E+03  0.00000000000E+00 0. -1.
</event>
<event>
 7    1  0.6597701E-006  0.1348484E+03  0.7818608E-02  0.1275048E+00
          2   -1    0    0  502    0  0.00000000000E+00  0.00000000000E+00  0.10754684588E+04  0.10754684588E+04  0.00000000000E+00 0. -1.
          1   -1    0    0  501    0 -0.00000000000E+00 -0.00000000000E+00 -0.25093229955E+03  0.25093229955E+03  0.00000000000E+00 0. -1.
         25    2    1    2    0    0 -0.22613250738E+02 -0.92798645691E+02 -0.36646155796E+01  0.15735576644E+03  0.12499784028E+03 0.  0.
          2    1    1    2  501    0  0.93636481061E+02  0.12496752308E+03 -0.13273762834E+03  0.20494865305E+03  0.00000000000E+00 0. -1.
          1    1    1    2  502    0 -0.71023230323E+02 -0.32168877390E+02  0.96093840317E+03  0.96409633886E+03  0.00000000000E+00 0. -1.
         22    1    3    3    0    0  0.12185421282E+02 -0.92186474671E+02  0.40246637245E+02  0.10132434265E+03  0.00000000000E+00 0. -1.
         22    1    3    3    0    0 -0.34798672019E+02 -0.61217101954E+00 -0.43911252824E+02  0.56031423793E+02  0.00000000000E+00 0. -1.
</event>
<event>
 7    1  0.6597701E-006  0.2302239E+03  0.7818608E-02  0.1323970E+00
          2   -1    0    0  502    0  0.00000000000E+00  0.00000000000E+00  0.59812650145E+03  0.59812650145E+03  0.00000000000E+00 0. -1.
          1   -1    0    0  501    0 -0.00000000000E+00 -0.00000000000E+00 -0.13066253571E+04  0.13066253571E+04  0.00000000000E+00 0. -1.
         25    2    1    2    0    0  0.16953159263E+03  0.18740297053E+03  0.52182018382E+02  0.28672096843E+03  0.12500046574E+03 0.  0.
          2    1    1    2  501    0 -0.13707304111E+02 -0.25643037433E+02 -0.11597405592E+04  0.11601050040E+04  0.00000000000E+00 0. -1.
          1    1    1    2  502    0 -0.15582428852E+03 -0.16175993309E+03  0.39905968520E+03  0.45792588614E+03  0.00000000000E+00 0. -1.
         22    1    3    3    0    0  0.16779898128E+03  0.16333567490E+03  0.55716188102E+01  0.23423510359E+03  0.00000000000E+00 0. -1.
         22    1    3    3    0    0  0.17326113487E+01  0.24067295624E+02  0.46610399572E+02  0.52485864850E+02  0.00000000000E+00 0. -1.
</event>
<event>
 7    1  0.6597701E-006  0.1686558E+03  0.7818608E-02  0.1262718E+00
          2   -1    0    0  502    0  0.00000000000E+00  0.00000000000E+00  0.91678942933E+02  0.91678942933E+02  0.00000000000E+00 0. -1.
          1   -1    0    0  501    0 -0.00000000000E+00 -0.00000000000E+00 -0.57314455768E+03  0.57314455768E+03  0.00000000000E+00 0. -1.
         25    2    1    2    0    0 -0.14734321327E+03 -0.92713971540E+02 -0.20030016588E+03  0.29334457236E+03  0.12499991465E+03 0.  0.
          2    1    1    2  501    0  0.16885488489E+03  0.25839297067E+02 -0.21844365197E+03  0.27730357104E+03  0.00000000000E+00 0. -1.
          1    1    1    2  502    0 -0.21511671619E+02  0.66874674473E+02 -0.62721796897E+02  0.94175357221E+02  0.00000000000E+00 0. -1.
         22    1    3    3    0    0 -0.11391176478E+03 -0.73133508331E+02 -0.21317039967E+03  0.25251934479E+03  0.00000000000E+00 0.  1.
         22    1    3    3    0    0 -0.33431448496E+02 -0.19580463209E+02  0.12870233794E+02  0.40825227567E+02  0.00000000000E+00 0.  1.
</event>
<event>
 7    1  0.6597701E-006  0.7052988E+02  0.7818608E-02  0.1374859E+00
          2   -1    0    0  502    0  0.00000000000E+00  0.00000000000E+00  0.25278095108E+03  0.25278095108E+03  0.00000000000E+00 0. -1.
          1   -1    0    0  501    0 -0.00000000000E+00 -0.00000000000E+00 -0.29626747359E+04  0.29626747359E+04  0.00000000000E+00 0. -1.
         25    2    1    2    0    0 -0.30057421438E+02 -0.46077412530E+01 -0.66718233197E+03  0.67947187795E+03  0.12500035589E+03 0.  0.
          2    1    1    2  501    0 -0.14680849898E+02  0.59672604361E+02 -0.22838234562E+04  0.22846500664E+04  0.00000000000E+00 0. -1.
          1    1    1    2  502    0  0.44738271336E+02 -0.55064863108E+02  0.24111200327E+03  0.25133374264E+03  0.00000000000E+00 0. -1.
         22    1    3    3    0    0  0.48138290311E+02 -0.22463838054E+01 -0.31819728227E+03  0.32182580953E+03  0.00000000000E+00 0.  1.
         22    1    3    3    0    0 -0.78195711749E+02 -0.23613574476E+01 -0.34898504970E+03  0.35764606842E+03  0.00000000000E+00 0.  1.
</event>
<event>
 7    1  0.6597701E-006  0.3762022E+02  0.7818608E-02  0.1575486E+00
          2   -1    0    0  502    0  0.00000000000E+00  0.00000000000E+00  0.16971292157E+04  0.16971292157E+04  0.00000000000E+00 0. -1.
          1   -1    0    0  501    0 -0.00000000000E+00 -0.00000000000E+00 -0.34219972827E+02  0.34219972827E+02  0.00000000000E+00 0. -1.
         25    2    1    2    0    0  0.14599984873E+02 -0.34931722368E+02  0.10816498060E+04  0.10895060949E+04  0.12499537245E+03 0.  0.
          2    1    1    2  501    0 -0.34276609292E+02  0.15759437749E+02 -0.18107775119E+02  0.41846592962E+02  0.00000000000E+00 0. -1.
          1    1    1    2  502    0  0.19676624419E+02  0.19172284618E+02  0.59936721198E+03  0.59999650069E+03  0.00000000000E+00 0. -1.
         22    1    3    3    0    0  0.11574004215E+02 -0.75295953355E+02  0.43728293880E+03  0.44386913244E+03  0.00000000000E+00 0. -1.
         22    1    3    3    0    0  0.30259806576E+01  0.40364230988E+02  0.64436686724E+03  0.64563696246E+03  0.00000000000E+00 0. -1.
</event>
<event>
 7    1  0.6597701E-006  0.3740865E+02  0.7818608E-02  0.1561373E+00
          2   -1    0    0  502    0  0.00000000000E+00  0.00000000000E+00  0.60497835398E+03  0.60497835398E+03  0.00000000000E+00 0. -1.
          1   -1    0    0  501    0 -0.00000000000E+00 -0.00000000000E+00 -0.14001858989E+04  0.14001858989E+04  0.00000000000E+00 0. -1.
         25    2    1    2    0    0  0.37875746013E+02  0.36934236909E+02  0.50372721094E+03  0.52169371943E+03  0.12499809543E+03 0.  0.
          2    1    1    2  501    0 -0.29918442674E+02 -0.39918798582E+01 -0.13879211068E+04  0.13882492741E+04  0.00000000000E+00 0. -1.
          1    1    1    2  502    0 -0.79573033399E+01 -0.32942357050E+02  0.88986350987E+02  0.95221259320E+02  0.00000000000E+00 0. -1.
         22    1    3    3    0    0 -0.12441941522E+02  0.61914161286E+02  0.13910102464E+03  0.15276537674E+03  0.00000000000E+00 0. -1.
         22    1    3    3    0    0  0.50317687535E+02 -0.24979924377E+02  0.36462618630E+03  0.36892834268E+03  0.00000000000E+00 0. -1.
</event>
<event>
 7    1  0.6597701E-006  0.1017991E+03  0.7818608E-02  0.1375854E+00
          2   -1    0    0  502    0  0.00000000000E+00  0.00000000000E+00  0.83706544127E+02  0.83706544127E+02  0.00000000000E+00 0. -1.
          1   -1    0    0  501    0 -0.00000000000E+00 -0.00000000000E+00 -0.36832149318E+04  0.36832149318E+04  0.00000000000E+00 0. -1.
         25    2    1    2    0    0  0.11266610301E+03  0.19880071798E+02 -0.13438593743E+03  0.21627407027E+03  0.12500410101E+03 0.  0.
          2    1    1    2  501    0 -0.99666536723E+02  0.20299069856E+02 -0.34965359934E+04  0.34980150692E+04  0.00000000000E+00 0. -1.
          1    1    1    2  502    0 -0.12999566283E+02 -0.40179141654E+02  0.31413543195E+02  0.52632336483E+02  0.00000000000E+00 0. -1.
         22    1    3    3    0    0  0.90618545322E+02 -0.29186589122E+02 -0.13157849627E+03  0.16240836931E+03  0.00000000000E+00 0. -1.
         22    1    3    3    0    0  0.22047557683E+02  0.49066660920E+02 -0.28074411576E+01  0.53865700956E+02  0.00000000000E+00 0. -1.
</event>
<event>
 7    1  0.6597701E-006  0.8250211E+02  0.7818608E-02  0.1367582E+00
          2   -1    0    0  502    0  0.00000000000E+00  0.00000000000E+00  0.14563481721E+04  0.14563481721E+04  0.00000000000E+00 0. -1.
          1   -1    0    0  501    0 -0.00000000000E+00 -0.00000000000E+00 -0.51374081034E+02  0.51374081034E+02  0.00000000000E+00 0. -1.
         25    2    1    2    0    0 -0.11005732506E+03  0.24649551880E+02  0.56430834595E+03  0.58888522965E+03  0.12498675605E+03 0.  0.
          2    1    1    2  501    0  0.33137296228E+02 -0.44882793170E+02 -0.16351410713E+02  0.58137029133E+02  0.00000000000E+00 0. -1.
          1    1    1    2  502    0  0.76920028832E+02  0.20233241290E+02  0.85701715588E+03  0.86069999440E+03  0.00000000000E+00 0. -1.
         22    1    3    3    0    0 -0.11579295663E+03  0.47290863400E+02  0.54316507159E+03  0.55738023786E+03  0.00000000000E+00 0. -1.
         22    1    3    3    0    0  0.57356315731E+01 -0.22641311521E+02  0.21143274363E+02  0.31504991790E+02  0.00000000000E+00 0. -1.
</event>
<event>
 7    1  0.6597701E-006  0.8250186E+02  0.7818608E-02  0.1347650E+00
          2   -1    0    0  502    0  0.00000000000E+00  0.00000000000E+00  0.36714258569E+03  0.36714258569E+03  0.00000000000E+00 0. -1.
          1   -1    0    0  501    0 -0.00000000000E+00 -0.00000000000E+00 -0.17771829102E+04  0.17771829102E+04  0.00000000000E+00 0. -1.
         25    2    1    2    0    0  0.41995172714E+02 -0.18626157491E+02 -0.81809747081E+03  0.82886669208E+03  0.12500397281E+03 0.  0.
          2    1    1    2  501    0  0.30601823228E+02  0.58480382781E+02 -0.94779821335E+03  0.95009361644E+03  0.00000000000E+00 0. -1.
          1    1    1    2  502    0 -0.72596995942E+02 -0.39854225290E+02  0.35585535969E+03  0.36536518733E+03  0.00000000000E+00 0. -1.
         22    1    3    3    0    0 -0.38203418254E+02 -0.27472648365E+02 -0.19656011456E+03  0.20211414154E+03  0.00000000000E+00 0. -1.
         22    1    3    3    0    0  0.80198590968E+02  0.88464908738E+01 -0.62153735625E+03  0.62675255054E+03  0.00000000000E+00 0. -1.
</event>
<event>
 7    1  0.6597701E-006  0.1743179E+03  0.7818608E-02  0.1269123E+00
          2   -1    0    0  502    0  0.00000000000E+00  0.00000000000E+00  0.33327728192E+03  0.33327728192E+03  0.00000000000E+00 0. -1.
          1   -1    0    0  501    0 -0.00000000000E+00 -0.00000000000E+00 -0.64042934399E+03  0.64042934399E+03  0.00000000000E+00 0. -1.
         25    2    1    2    0    0 -0.10072158746E+03 -0.14042038153E+03 -0.10333185293E+03  0.23699155179E+03  0.12499920823E+03 0.  0.
          2    1    1    2  501    0 -0.46625511393E+02  0.43636075108E+02 -0.43853980053E+03  0.44316498284E+03  0.00000000000E+00 0. -1.
          1    1    1    2  502    0  0.14734709886E+03  0.96784306427E+02  0.23471959139E+03  0.29355009129E+03  0.00000000000E+00 0. -1.
         22    1    3    3    0    0 -0.44798762990E+02  0.41107379335E+01  0.86278834902E+01  0.45806852166E+02  0.00000000000E+00 0.  1.
         22    1    3    3    0    0 -0.55922824475E+02 -0.14453111947E+03 -0.11195973642E+03  0.19118469962E+03  0.00000000000E+00 0.  1.
</event>
<event>
 7    1  0.6597701E-006  0.1036034E+03  0.7818608E-02  0.1329123E+00
          2   -1    0    0  502    0  0.00000000000E+00  0.00000000000E+00  0.24710542847E+04  0.24710542847E+04  0.00000000000E+00 0. -1.
          1   -1    0    0  501    0 -0.00000000000E+00 -0.00000000000E+00 -0.56174384500E+02  0.56174384500E+02  0.00000000000E+00 0. -1.
         25    2    1    2    0    0  0.41602461497E+02 -0.20417065043E+02  0.76740334370E+03  0.77889783316E+03  0.12500528480E+03 0.  0.
          2    1    1    2  501    0 -0.93930151716E+02  0.53174218291E+02  0.85858804910E+01  0.10827782892E+03  0.00000000000E+00 0. -1.
          1    1    1    2  502    0  0.52327690219E+02 -0.32757153248E+02  0.16388906760E+04  0.16400530071E+04  0.00000000000E+00 0. -1.
         22    1    3    3    0    0  0.70161350268E+01 -0.61403300052E+02  0.20958255231E+03  0.21850500599E+03  0.00000000000E+00 0.  1.
         22    1    3    3    0    0  0.34586326470E+02  0.40986235010E+02  0.55782079139E+03  0.56039282717E+03  0.00000000000E+00 0.  1.
</event>
<event>
 7    1  0.6597701E-006  0.5642098E+02  0.7818608E-02  0.1456853E+00
          2   -1    0    0  502    0  0.00000000000E+00  0.00000000000E+00  0.77947562267E+02  0.77947562267E+02  0.00000000000E+00 0. -1.
          1   -1    0    0  501    0 -0.00000000000E+00 -0.00000000000E+00 -0.16616480171E+04  0.16616480171E+04  0.00000000000E+00 0. -1.
         25    2    1    2    0    0  0.15010838284E+01 -0.83383409299E+02 -0.19042180181E+03  0.24257045931E+03  0.12499967570E+03 0.  0.
          2    1    1    2  501    0  0.23175658996E+02  0.51002303907E+02 -0.14365328430E+04  0.14376247616E+04  0.00000000000E+00 0. -1.
          1    1    1    2  502    0 -0.24676742824E+02  0.32381105392E+02  0.43254190029E+02  0.59400358398E+02  0.00000000000E+00 0. -1.
         22    1    3    3    0    0  0.37567547200E+02 -0.45608201290E+02 -0.17981739161E+03  0.18927684210E+03  0.00000000000E+00 0. -1.
         22    1    3    3    0    0 -0.36066463371E+02 -0.37775208009E+02 -0.10604410201E+02  0.53293617216E+02  0.00000000000E+00 0. -1.
</event>
<event>
 7    1  0.6597701E-006  0.7897739E+02  0.7818608E-02  0.1367505E+00
          2   -1    0    0  502    0  0.00000000000E+00  0.00000000000E+00  0.28363182739E+04  0.28363182739E+04  0.00000000000E+00 0. -1.
          1   -1    0    0  501    0 -0.00000000000E+00 -0.00000000000E+00 -0.34392150849E+02  0.34392150849E+02  0.00000000000E+00 0. -1.
         25    2    1    2    0    0 -0.35337717837E+02 -0.43682982118E+02  0.32172825335E+03  0.34970185378E+03  0.12500144123E+03 0.  0.
          2    1    1    2  501    0  0.87292450758E+02  0.17195412218E+02  0.78640794977E+02  0.11874354212E+03  0.00000000000E+00 0. -1.
          1    1    1    2  502    0 -0.51954732920E+02  0.26487569900E+02  0.24015570747E+04  0.24022650288E+04  0.00000000000E+00 0. -1.
         22    1    3    3    0    0  0.63894214840E+01 -0.80553985543E+02  0.17473350506E+03  0.19251381011E+03  0.00000000000E+00 0. -1.
         22    1    3    3    0    0 -0.41727139321E+02  0.36871003425E+02  0.14699474829E+03  0.15718804367E+03  0.00000000000E+00 0. -1.
</event>
<event>
 7    1  0.6597701E-006  0.9082108E+02  0.7818608E-02  0.1339896E+00
          2   -1    0    0  502    0  0.00000000000E+00  0.00000000000E+00  0.81232968407E+03  0.81232968407E+03  0.00000000000E+00 0. -1.
          1   -1    0    0  501    0 -0.00000000000E+00 -0.00000000000E+00 -0.29752400362E+03  0.29752400362E+03  0.00000000000E+00 0. -1.
         25    2    1    2    0    0  0.15112507120E+02  0.38530472486E+02 -0.20899919602E+02  0.13332148362E+03  0.12499930470E+03 0.  0.
          2    1    1    2  501    0 -0.66433972479E+02 -0.76932496551E+02 -0.20724050681E+03  0.23082614538E+03  0.00000000000E+00 0. -1.
          1    1    1    2  502    0  0.51321465359E+02  0.38402024065E+02  0.74294610687E+03  0.74570605869E+03  0.00000000000E+00 0. -1.
         22    1    3    3    0    0  0.15529930995E+02 -0.36520658557E+02  0.23498019641E+02  0.46120431321E+02  0.00000000000E+00 0.  1.
         22    1    3    3    0    0 -0.41742387516E+00  0.75051131043E+02 -0.44397939243E+02  0.87201052302E+02  0.00000000000E+00 0.  1.
</event>
<event>
 7    1  0.6597701E-006  0.1698420E+03  0.7818608E-02  0.1240413E+00
          2   -1    0    0  502    0  0.00000000000E+00  0.00000000000E+00  0.21200162869E+04  0.21200162869E+04  0.00000000000E+00 0. -1.
          1   -1    0    0  501    0 -0.00000000000E+00 -0.00000000000E+00 -0.41979693331E+03  0.41979693331E+03  0.00000000000E+00 0. -1.
         25    2    1    2    0    0 -0.75061822690E+02 -0.80606874166E+02  0.14362966878E+03  0.21996757936E+03  0.12499803529E+03 0.  0.
          2    1    1    2  501    0  0.14744838294E+02 -0.85863302361E+02 -0.37254829015E+03  0.38259919687E+03  0.00000000000E+00 0. -1.
          1    1    1    2  502    0  0.60316984395E+02  0.16647017653E+03  0.19291379749E+04  0.19372464440E+04  0.00000000000E+00 0. -1.
         22    1    3    3    0    0  0.91074144661E+01 -0.77735215578E+02  0.93596598257E+02  0.12200832736E+03  0.00000000000E+00 0.  1.
         22    1    3    3    0    0 -0.84169237156E+02 -0.28716585883E+01  0.50033070528E+02  0.97959252002E+02  0.00000000000E+00 0.  1.
</event>
<event>
 7    1  0.6597701E-006  0.1689532E+03  0.7818608E-02  0.1245621E+00
          2   -1    0    0  502    0  0.00000000000E+00  0.00000000000E+00  0.32751517572E+04  0.32751517572E+04  0.00000000000E+00 0. -1.
          1   -1    0    0  501    0 -0.00000000000E+00 -0.00000000000E+00 -0.17959182489E+03  0.17959182489E+03  0.00000000000E+00 0. -1.
         25    2    1    2    0    0  0.12023793990E+02 -0.22218416716E+03  0.78980566969E+03  0.83001725090E+03  0.12500106058E+03 0.  0.
          2    1    1    2  501    0 -0.61004008652E+02  0.15506621978E+03 -0.11505208692E+03  0.20249445497E+03  0.00000000000E+00 0. -1.
          1    1    1    2  502    0  0.48980214662E+02  0.67117947377E+02  0.24208063495E+04  0.24222318762E+04  0.00000000000E+00 0. -1.
         22    1    3    3    0    0  0.45443412119E+02 -0.28734316813E+02  0.24748183975E+03  0.25325486308E+03  0.00000000000E+00 0. -1.
         22    1    3    3    0    0 -0.33419618129E+02 -0.19344985034E+03  0.54232382995E+03  0.57676238782E+03  0.00000000000E+00 0. -1.
</event>
<event>
 7    1  0.6597701E-006  0.1548968E+03  0.7818608E-02  0.1341567E+00
          2   -1    0    0  502    0  0.00000000000E+00  0.00000000000E+00  0.30851648403E+04  0.30851648403E+04  0.00000000000E+00 0. -1.
          1   -1    0    0  501    0 -0.00000000000E+00 -0.00000000000E+00 -0.35482732554E+03  0.35482732554E+03  0.00000000000E+00 0. -1.
         25    2    1    2    0    0 -0.10166380739E+03 -0.62530848765E+02  0.16914444121E+04  0.17002503287E+04  0.12498537523E+03 0.  0.
          2    1    1    2  501    0  0.13739245727E+03  0.72312118201E+02 -0.33296454318E+03  0.36738415421E+03  0.00000000000E+00 0. -1.
          1    1    1    2  502    0 -0.35728649880E+02 -0.97812694355E+01  0.13718576458E+04  0.13723576830E+04  0.00000000000E+00 0. -1.
         22    1    3    3    0    0  0.13491691358E+02 -0.35137711633E+02  0.81249216025E+03  0.81336350728E+03  0.00000000000E+00 0. -1.
         22    1    3    3    0    0 -0.11515549875E+03 -0.27393137132E+02  0.87895225188E+03  0.88688682138E+03  0.00000000000E+00 0. -1.
</event>
<event>
 7    1  0.6597701E-006  0.8697970E+02  0.7818608E-02  0.1392890E+00
          2   -1    0    0  502    0  0.00000000000E+00  0.00000000000E+00  0.72996393375E+03  0.72996393375E+03  0.00000000000E+00 0. -1.
          1   -1    0    0  501    0 -0.00000000000E+00 -0.00000000000E+00 -0.80918708185E+03  0.80918708185E+03  0.00000000000E+00 0. -1.
         25    2    1    2    0    0 -0.12130523425E+03  0.59392723946E+01 -0.89940700243E+02  0.19612667458E+03  0.12500443235E+03 0.  0.
          2    1    1    2  501    0  0.83946485972E+02  0.15457124258E+02 -0.66272888245E+03  0.66820319277E+03  0.00000000000E+00 0. -1.
          1    1    1    2  502    0  0.37358748282E+02 -0.21396396653E+02  0.67344643459E+03  0.67482114825E+03  0.00000000000E+00 0. -1.
         22    1    3    3    0    0 -0.10151543993E+02 -0.36610327112E+02 -0.63823858448E+02  0.74275533009E+02  0.00000000000E+00 0.  1.
         22    1    3    3    0    0 -0.11115369026E+03  0.42549599507E+02 -0.26116841795E+02  0.12185114157E+03  0.00000000000E+00 0.  1.
</event>
<event>
 7    1  0.6597701E-006  0.8141378E+02  0.7818608E-02  0.1465436E+00
          2   -1    0    0  502    0  0.00000000000E+00  0.00000000000E+00  0.96124028027E+03  0.96124028027E+03  0.00000000000E+00 0. -1.
          1   -1    0    0  501    0 -0.00000000000E+00 -0.00000000000E+00 -0.19290468809E+04  0.19290468809E+04  0.00000000000E+00 0. -1.
         25    2    1    2    0    0 -0.63168394018E+02 -0.25656370769E+02  0.30789730027E+03  0.33922652718E+03  0.12500157543E+03 0.  0.
          2    1    1    2  501    0  0.62566929786E+02  0.52160970572E+02 -0.19122392437E+04  0.19139734358E+04  0.00000000000E+00 0. -1.
          1    1    1    2  502    0  0.60146423170E+00 -0.26504599803E+02  0.63653534279E+03  0.63708719826E+03  0.00000000000E+00 0. -1.
         22    1    3    3    0    0  0.33226526866E+02 -0.26549557552E+02  0.13150429947E+03  0.13821093254E+03  0.00000000000E+00 0. -1.
         22    1    3    3    0    0 -0.96394920884E+02  0.89318678246E+00  0.17639300080E+03  0.20101559464E+03  0.00000000000E+00 0. -1.
</event>
<event>
 7    1  0.6597701E-006  0.5073884E+02  0.7818608E-02  0.1452321E+00
          2   -1    0    0  502    0  0.00000000000E+00  0.00000000000E+00  0.23774607432E+03  0.23774607432E+03  0.00000000000E+00 0. -1.
          1   -1    0    0  501    0 -0.00000000000E+00 -0.00000000000E+00 -0.27842290222E+03  0.27842290222E+03  0.00000000000E+00 0. -1.
         25    2    1    2    0    0  0.66984982424E+02 -0.27367479610E+02 -0.94010688792E+02  0.17233315356E+03  0.12499895758E+03 0.  0.
          2    1    1    2  501    0 -0.18801895069E+02  0.42855368274E+02 -0.13810562052E+03  0.14581925891E+03  0.00000000000E+00 0. -1.
          1    1    1    2  502    0 -0.48183087355E+02 -0.15487888664E+02  0.19143948142E+03  0.19801656407E+03  0.00000000000E+00 0. -1.
         22    1    3    3    0    0  0.10887803041E+02 -0.52147503820E+02 -0.97288916261E+02  0.11091906796E+03  0.00000000000E+00 0. -1.
         22    1    3    3    0    0  0.56097179383E+02  0.24780024209E+02  0.32782274687E+01  0.61414085598E+02  0.00000000000E+00 0. -1.
</event>
<event>
 7    1  0.6597701E-006  0.1110341E+03  0.7818608E-02  0.1368042E+00
          2   -1    0    0  502    0  0.00000000000E+00  0.00000000000E+00  0.14321642912E+04  0.14321642912E+04  0.00000000000E+00 0. -1.
          1   -1    0    0  501    0 -0.00000000000E+00 -0.00000000000E+00 -0.36265753129E+03  0.36265753129E+03  0.00000000000E+00 0. -1.
         25    2    1    2    0    0 -0.22773584463E+02 -0.10114979860E+03 -0.25790274090E+02  0.16443827367E+03  0.12499955881E+03 0.  0.
          2    1    1    2  501    0 -0.17047147156E+02  0.11208888682E+03 -0.25520182361E+03  0.27925345933E+03  0.00000000000E+00 0. -1.
          1    1    1    2  502    0  0.39820731619E+02 -0.10939088214E+02  0.13504988576E+04  0.13511300895E+04  0.00000000000E+00 0. -1.
         22    1    3    3    0    0 -0.71695060205E+02 -0.66850934843E+02 -0.34789844791E+02  0.10401712574E+03  0.00000000000E+00 0.  1.
         22    1    3    3    0    0  0.48921475742E+02 -0.34298863760E+02  0.89995707007E+01  0.60421147927E+02  0.00000000000E+00 0.  1.
</event>
<event>
 7    1  0.6597701E-006  0.1604810E+03  0.7818608E-02  0.1238849E+00
          2   -1    0    0  502    0  0.00000000000E+00  0.00000000000E+00  0.44581499703E+03  0.44581499703E+03  0.00000000000E+00 0. -1.
          1   -1    0    0  501    0 -0.00000000000E+00 -0.00000000000E+00 -0.14077663028E+04  0.14077663028E+04  0.00000000000E+00 0. -1.
         25    2    1    2    0    0  0.48789617702E+02 -0.52710216126E+02  0.41831659807E+02  0.15011823003E+03  0.12500720598E+03 0.  0.
          2    1    1    2  501    0 -0.10307399390E+03  0.12905762183E+03 -0.13421975549E+04  0.13523218531E+04  0.00000000000E+00 0. -1.
          1    1    1    2  502    0  0.54284376203E+02 -0.76347405701E+02  0.33841458929E+03  0.35114121675E+03  0.00000000000E+00 0. -1.
         22    1    3    3    0    0  0.90878005167E+02 -0.37438797143E+02  0.37255819183E+02  0.10511170923E+03  0.00000000000E+00 0. -1.
         22    1    3    3    0    0 -0.42088387465E+02 -0.15271418983E+02  0.45758406248E+01  0.45006520801E+02  0.00000000000E+00 0. -1.
</event>
<event>
 7    1  0.6597701E-006  0.8936098E+02  0.7818608E-02  0.1325922E+00
          2   -1    0    0  502    0  0.00000000000E+00  0.00000000000E+00  0.27104464766E+02  0.27104464766E+02  0.00000000000E+00 0. -1.
          1   -1    0    0  501    0 -0.00000000000E+00 -0.00000000000E+00 -0.18917013100E+04  0.18917013100E+04  0.00000000000E+00 0. -1.
         25    2    1    2    0    0 -0.52251963086E+02  0.11774540108E+02 -0.63337743891E+03  0.64781226078E+03  0.12499935062E+03 0.  0.
          2    1    1    2  501    0  0.61400664682E+02 -0.84830712409E+02 -0.11715572011E+04  0.11762281101E+04  0.00000000000E+00 0. -1.
          1    1    1    2  502    0 -0.91487015956E+01  0.73056172301E+02 -0.59662205204E+02  0.94765403930E+02  0.00000000000E+00 0. -1.
         22    1    3    3    0    0 -0.37179729574E+02  0.49061944454E+02 -0.56604775801E+03  0.56938516931E+03  0.00000000000E+00 0. -1.
         22    1    3    3    0    0 -0.15072233512E+02 -0.37287404346E+02 -0.67329680899E+02  0.78427091466E+02  0.00000000000E+00 0. -1.
</event>
<event>
 7    1  0.6597701E-006  0.3668451E+02  0.7818608E-02  0.1570462E+00
          2   -1    0    0  502    0  0.00000000000E+00  0.00000000000E+00  0.19857109238E+04  0.19857109238E+04  0.00000000000E+00 0. -1.
          1   -1    0    0  501    0 -0.00000000000E+00 -0.00000000000E+00 -0.31943720384E+03  0.31943720384E+03  0.00000000000E+00 0. -1.
         25    2    1    2    0    0 -0.12361096650E+01 -0.84140339391E+01 -0.10650968870E+02  0.12573235077E+03  0.12499142753E+03 0.  0.
          2    1    1    2  501    0 -0.17736337698E+01  0.37327007621E+02 -0.24974576769E+03  0.25252603777E+03  0.00000000000E+00 0. -1.
          1    1    1    2  502    0  0.30097434348E+01 -0.28912973682E+02  0.19266704566E+04  0.19268897391E+04  0.00000000000E+00 0. -1.
         22    1    3    3    0    0 -0.19173233123E+02  0.80032678563E+00  0.54369449658E+02  0.57656660045E+02  0.00000000000E+00 0. -1.
         22    1    3    3    0    0  0.17937123459E+02 -0.92143607247E+01 -0.65020418528E+02  0.68075690721E+02  0.00000000000E+00 0. -1.
</event>
<event>
 7    1  0.6597701E-006  0.5734910E+02  0.7818608E-02  0.1451881E+00
          2   -1    0    0  502    0  0.00000000000E+00  0.00000000000E+00  0.22449638285E+04  0.22449638285E+04  0.00000000000E+00 0. -1.
          1   -1    0    0  501    0 -0.00000000000E+00 -0.00000000000E+00 -0.20502756344E+04  0.20502756344E+04  0.00000000000E+00 0. -1.
         25    2    1    2    0    0  0.21500322070E+02  0.19612999412E+02  0.14046821650E+03  0.19027285483E+03  0.12500202336E+03 0.  0.
          2    1    1    2  501    0 -0.57425038911E+02  0.12397061215E+01 -0.20247585800E+04  0.20255731236E+04  0.00000000000E+00 0. -1.
          1    1    1    2  502    0  0.35924716841E+02 -0.20852705534E+02  0.20789785575E+04  0.20793934845E+04  0.00000000000E+00 0. -1.
         22    1    3    3    0    0  0.65109564702E+02  0.42970068825E+02  0.96490572745E+02  0.12408107373E+03  0.00000000000E+00 0. -1.
         22    1    3    3    0    0 -0.43609242632E+02 -0.23357069413E+02  0.43977643753E+02  0.66191781096E+02  0.00000000000E+00 0. -1.
</event>
<event>
 7    1  0.6597701E-006  0.6510361E+02  0.7818608E-02  0.1430177E+00
          2   -1    0    0  502    0  0.00000000000E+00  0.00000000000E+00  0.14247709195E+04  0.14247709195E+04  0.00000000000E+00 0. -1.
          1   -1    0    0  501    0 -0.00000000000E+00 -0.00000000000E+00 -0.69603718363E+02  0.69603718363E+02  0.00000000000E+00 0. -1.
         25    2    1    2    0    0  0.90918997645E+01 -0.26031487751E+02  0.53297780221E+03  0.54813409316E+03  0.12500138174E+03 0.  0.
          2    1    1    2  501    0  0.65548081971E+01  0.66109296133E+02 -0.43548186728E+02  0.79434558681E+02  0.00000000000E+00 0. -1.
          1    1    1    2  502    0 -0.15646707962E+02 -0.40077808382E+02  0.86573758570E+03  0.86680598608E+03  0.00000000000E+00 0. -1.
         22    1    3    3    0    0  0.26798215712E+02  0.82759221336E+01  0.48822412919E+03  0.48902907436E+03  0.00000000000E+00 0. -1.
         22    1    3    3    0    0 -0.17706315948E+02 -0.34307409885E+02  0.44753673022E+02  0.59105018792E+02  0.00000000000E+00 0. -1.
</event>
<event>
 7    1  0.6597701E-006  0.5357723E+02  0.7818608E-02  0.1514870E+00
          2   -1    0    0  502    0  0.00000000000E+00  0.00000000000E+00  0.11784014087E+04  0.11784014087E+04  0.00000000000E+00 0. -1.
          1   -1    0    0  501    0 -0.00000000000E+00 -0.00000000000E+00 -0.24373833711E+03  0.24373833711E+03  0.00000000000E+00 0. -1.
         25    2    1    2    0    0  0.19474007613E+02  0.66421523766E+02 -0.15939781881E+02  0.14377440709E+03  0.12500379072E+03 0.  0.
          2    1    1    2  501    0  0.14134435759E+02 -0.24803704005E+02 -0.16199043621E+03  0.16448680017E+03  0.00000000000E+00 0. -1.
          1    1    1    2  502    0 -0.33608443373E+02 -0.41617819760E+02  0.11125932897E+04  0.11138785386E+04  0.00000000000E+00 0. -1.
         22    1    3    3    0    0  0.50822531811E+02 -0.51347509626E+01 -0.36751048502E+02  0.62928014215E+02  0.00000000000E+00 0.  1.
         22    1    3    3    0    0 -0.31348524197E+02  0.71556274728E+02  0.20811266621E+02  0.80846392874E+02  0.00000000000E+00 0.  1.
</event>
<event>
 7    1  0.6597701E-006  0.1332233E+03  0.7818608E-02  0.1399372E+00
          2   -1    0    0  502    0  0.00000000000E+00  0.00000000000E+00  0.83934510248E+03  0.83934510248E+03  0.00000000000E+00 0. -1.
          1   -1    0    0  501    0 -0.00000000000E+00 -0.00000000000E+00 -0.53214192352E+03  0.53214192352E+03  0.00000000000E+00 0. -1.
         25    2    1    2    0    0 -0.10322807302E+03 -0.32001788464E+02  0.10791492542E+03  0.19735801592E+03  0.12499762316E+03 0.  0.
          2    1    1    2  501    0  0.12895428586E+03  0.39124714690E+02 -0.47783804788E+03  0.49647673776E+03  0.00000000000E+00 0. -1.
          1    1    1    2  502    0 -0.25726212841E+02 -0.71229262260E+01  0.67712630142E+03  0.67765227231E+03  0.00000000000E+00 0. -1.
         22    1    3    3    0    0 -0.35695799885E+02  0.48433744783E+02  0.37019353710E+02  0.70643119356E+02  0.00000000000E+00 0.  1.
         22    1    3    3    0    0 -0.67532273133E+02 -0.80435533248E+02  0.70895571714E+02  0.12671489657E+03  0.00000000000E+00 0.  1.
</event>
<event>
 7    1  0.6597701E-006  0.7087920E+02  0.7818608E-02  0.1460481E+00
          2   -1    0    0  502    0  0.00000000000E+00  0.00000000000E+00  0.25161906380E+03  0.25161906380E+03  0.00000000000E+00 0. -1.
          1   -1    0    0  501    0 -0.00000000000E+00 -0.00000000000E+00 -0.11800092452E+04  0.11800092452E+04  0.00000000000E+00 0. -1.
         25    2    1    2    0    0 -0.30883600199E+02  0.38069608086E+02  0.12570073219E+03  0.18392433751E+03  0.12499758411E+03 0.  0.
          2    1    1    2  501    0  0.20751427274E+02 -0.67962301624E+02 -0.11471957992E+04  0.11493944919E+04  0.00000000000E+00 0. -1.
          1    1    1    2  502    0  0.10132172924E+02  0.29892693538E+02  0.93104885638E+02  0.98309479628E+02  0.00000000000E+00 0. -1.
         22    1    3    3    0    0 -0.43219112005E+01  0.29250754025E+02  0.14624616628E+03  0.14920531720E+03  0.00000000000E+00 0. -1.
         22    1    3    3    0    0 -0.26561688998E+02  0.88188540606E+01 -0.20545434093E+02  0.34719020313E+02  0.00000000000E+00 0. -1.
</event>
<event>
 7    1  0.6597701E-006  0.1491217E+03  0.7818608E-02  0.1255649E+00
          2   -1    0    0  502    0  0.00000000000E+00  0.00000000000E+00  0.18754835865E+04  0.18754835865E+04  0.00000000000E+00 0. -1.
          1   -1    0    0  501    0 -0.00000000000E+00 -0.00000000000E+00 -0.43943724018E+03  0.43943724018E+03  0.00000000000E+00 0. -1.
         25    2    1    2    0    0 -0.39100474026E+02  0.20679866808E+03  0.24919211908E+03  0.34930758048E+03  0.12499814952E+03 0.  0.
          2    1    1    2  501    0 -0.31196703887E+02 -0.79256365336E+02 -0.38130698172E+03  0.39070426167E+03  0.00000000000E+00 0. -1.
          1    1    1    2  502    0  0.70297177913E+02 -0.12754230274E+03  0.15681612090E+04  0.15749089845E+04  0.00000000000E+00 0. -1.
         22    1    3    3    0    0 -0.24636784138E+02  0.56029092931E+01 -0.40066144823E+01  0.25581569241E+02  0.00000000000E+00 0. -1.
         22    1    3    3    0    0 -0.14463689887E+02  0.20119575879E+03  0.25319873356E+03  0.32372601124E+03  0.00000000000E+00 0. -1.
</event>
<event>
 7    1  0.6597701E-006  0.9764816E+02  0.7818608E-02  0.1353668E+00
          2   -1    0    0  502    0  0.00000000000E+00  0.00000000000E+00  0.33463820286E+04  0.33463820286E+04  0.00000000000E+00 0. -1.
          1   -1    0    0  501    0 -0.00000000000E+00 -0.00000000000E+00 -0.10613251359E+03  0.10613251359E+03  0.00000000000E+00 0. -1.
         25    2    1    2    0    0 -0.45422541758E+02 -0.81696761464E+02  0.15855623286E+04  0.15932260925E+04  0.12499566307E+03 0.  0.
          2    1    1    2  501    0 -0.43787161145E+02  0.29821281112E+02 -0.93817002651E+02  0.10774160884E+03  0.00000000000E+00 0. -1.
          1    1    1    2  502    0  0.89209702903E+02  0.51875480352E+02  0.17485041891E+04  0.17515468409E+04  0.00000000000E+00 0. -1.
         22    1    3    3    0    0  0.11069443238E+02 -0.18250310261E+02  0.40068524593E+02  0.45399262784E+02  0.00000000000E+00 0.  1.
         22    1    3    3    0    0 -0.56491984996E+02 -0.63446451203E+02  0.15454938040E+04  0.15478268297E+04  0.00000000000E+00 0.  1.
</event>
<event>
 7    1  0.6597701E-006  0.4843956E+02  0.7818608E-02  0.1552504E+00
          2   -1    0    0  502    0  0.00000000000E+00  0.00000000000E+00  0.11117493156E+04  0.11117493156E+04  0.00000000000E+00 0. -1.
          1   -1    0    0  501    0 -0.00000000000E+00 -0.00000000000E+00 -0.37616989739E+03  0.37616989739E+03  0.00000000000E+00 0. -1.
         25    2    1    2    0    0  0.25765124601E+02  0.12699860359E+02 -0.13718159859E+03  0.18779903985E+03  0.12499824110E+03 0.  0.
          2    1    1    2  501    0 -0.37632764422E+02 -0.34320424981E+02 -0.21050216335E+03  0.21657626210E+03  0.00000000000E+00 0. -1.
          1    1    1    2  502    0  0.11867639821E+02  0.21620564622E+02  0.10832631802E+04  0.10835439110E+04  0.00000000000E+00 0. -1.
         22    1    3    3    0    0  0.89656188275E+01  0.64120013603E+02 -0.38672186678E+02  0.75414166361E+02  0.00000000000E+00 0.  1.
         22    1    3    3    0    0  0.16799505774E+02 -0.51420153244E+02 -0.98509411911E+02  0.11238487349E+03  0.00000000000E+00 0.  1.
</event>
<event>
 7    1  0.7053425E-006  0.5539800E+02  0.7818608E-02  0.1485082E+00
          2   -1    0    0  502    0  0.00000000000E+00  0.00000000000E+00  0.11508509520E+04  0.11508509520E+04  0.00000000000E+00 0. -1.
          1   -1    0    0  501    0 -0.00000000000E+00 -0.00000000000E+00 -0.15269139102E+04  0.15269139102E+04  0.00000000000E+00 0. -1.
         25    2    1    2    0    0 -0.34195477811E+02  0.31777766798E+02 -0.16756333991E+03  0.21420081953E+03  0.12500144415E+03 0.  0.
          2    1    1    2  501    0  0.95495169126E+01 -0.55027803576E+02 -0.13351933734E+04  0.13363609530E+04  0.00000000000E+00 0. -1.
          1    1    1    2  502    0  0.24645960899E+02  0.23250036778E+02  0.11266937550E+04  0.11272030896E+04  0.00000000000E+00 0. -1.
         22    1    3    3    0    0 -0.47731141159E+02 -0.32227030592E+02 -0.37828046560E+02  0.68904313680E+02  0.00000000000E+00 0.  1.
         22    1    3    3    0    0  0.13535663348E+02  0.64004797391E+02 -0.12973529335E+03  0.14529650585E+03  0.00000000000E+00 0.  1.
</event>
<event>
 7    1  0.6597701E-006  0.8484276E+02  0.7818608E-02  0.1375630E+00
          2   -1    0    0  502    0  0.00000000000E+00  0.00000000000E+00  0.14909371319E+03  0.14909371319E+03  0.00000000000E+00 0. -1.
          1   -1    0    0  501    0 -0.00000000000E+00 -0.00000000000E+00 -0.23232699710E+04  0.23232699710E+04  0.00000000000E+00 0. -1.
         25    2    1    2    0    0 -0.16691177524E+02  0.55102108127E+02 -0.77172790723E+03  0.78390294109E+03  0.12500008209E+03 0.  0.
          2    1    1    2  501    0  0.43587480047E+02  0.26018542160E+02 -0.15322279563E+04  0.15330686035E+04  0.00000000000E+00 0. -1.
          1    1    1    2  502    0 -0.26896302523E+02 -0.81120650286E+02  0.12977960571E+03  0.15539213961E+03  0.00000000000E+00 0. -1.
         22    1    3    3    0    0 -0.32078295534E+02  0.88003224021E+02 -0.65474638191E+03  0.66141243496E+03  0.00000000000E+00 0. -1.
         22    1    3    3    0    0  0.15387118009E+02 -0.32901115895E+02 -0.11698152531E+03  0.12249050613E+03  0.00000000000E+00 0. -1.
</event>
<event>
 7    1  0.6597701E-006  0.6286272E+02  0.7818608E-02  0.1484674E+00
          2   -1    0    0  502    0  0.00000000000E+00  0.00000000000E+00  0.13201913553E+04  0.13201913553E+04  0.00000000000E+00 0. -1.
          1   -1    0    0  501    0 -0.00000000000E+00 -0.00000000000E+00 -0.27005655198E+02  0.27005655198E+02  0.00000000000E+00 0. -1.
         25    2    1    2    0    0 -0.16523921313E+01  0.44041397988E+02  0.36815303208E+03  0.39128513299E+03  0.12500010055E+03 0.  0.
          2    1    1    2  501    0 -0.21001469981E+02 -0.63623643390E+02  0.58744622514E+02  0.89106455512E+02  0.00000000000E+00 0. -1.
          1    1    1    2  502    0  0.22653862113E+02  0.19582245402E+02  0.86628804548E+03  0.86680542197E+03  0.00000000000E+00 0. -1.
         22    1    3    3    0    0 -0.20149816335E+02  0.85123437996E+02  0.24049398745E+03  0.25590891503E+03  0.00000000000E+00 0. -1.
         22    1    3    3    0    0  0.18497424203E+02 -0.41082040008E+02  0.12765904463E+03  0.13537621796E+03  0.00000000000E+00 0. -1.
</event>
<event>
 7    1  0.6597701E-006  0.1208180E+03  0.7818608E-02  0.1254174E+00
          2   -1    0    0  502    0  0.00000000000E+00  0.00000000000E+00  0.38880239550E+03  0.38880239550E+03  0.00000000000E+00 0. -1.
          1   -1    0    0  501    0 -0.00000000000E+00 -0.00000000000E+00 -0.72160346499E+03  0.72160346499E+03  0.00000000000E+00 0. -1.
         25    2    1    2    0    0 -0.30038733260E+02 -0.54178950429E+02  0.57019704536E+02  0.15070941470E+03  0.12499758721E+03 0.  0.
          2    1    1    2  501    0 -0.10622413144E+03 -0.98101026945E+01 -0.65022087969E+03  0.65891349706E+03  0.00000000000E+00 0. -1.
          1    1    1    2  502    0  0.13626286470E+03  0.63989053124E+02  0.26040010567E+03  0.30078294874E+03  0.00000000000E+00 0. -1.
         22    1    3    3    0    0  0.38016229116E+02  0.18898635564E+01 -0.10688841271E+02  0.39535510470E+02  0.00000000000E+00 0. -1.
         22    1    3    3    0    0 -0.68054962376E+02 -0.56068813986E+02  0.67708545807E+02  0.11117390423E+03  0.00000000000E+00 0. -1.
</event>
<event>
 7    1  0.6597701E-006  0.2964822E+03  0.7818608E-02  0.1279899E+00
          2   -1    0    0  502    0  0.00000000000E+00  0.00000000000E+00  0.95226186207E+03  0.95226186207E+03  0.00000000000E+00 0. -1.
          1   -1    0    0  501    0 -0.00000000000E+00 -0.00000000000E+00 -0.18239660926E+03  0.18239660926E+03  0.00000000000E+00 0. -1.
         25    2    1    2    0    0 -0.23093088289E+03  0.15708665146E+03  0.35560324127E+03  0.46913124126E+03  0.12500067033E+03 0.  0.
          2    1    1    2  501    0  0.26427734414E+03 -0.15123308790E+03  0.60866423837E+02  0.31051357950E+03  0.00000000000E+00 0. -1.
          1    1    1    2  502    0 -0.33346461245E+02 -0.58535635630E+01  0.35339558770E+03  0.35501365057E+03  0.00000000000E+00 0. -1.
         22    1    3    3    0    0 -0.15996625732E+03  0.10747299950E+03  0.14423323158E+03  0.24071326136E+03  0.00000000000E+00 0.  1.
         22    1    3    3    0    0 -0.70964625569E+02  0.49613651963E+02  0.21137000970E+03  0.22841797990E+03  0.00000000000E+00 0.  1.
</event>
<event>
 7    1  0.6597701E-006  0.4442916E+02  0.7818608E-02  0.1482119E+00
          2   -1    0    0  502    0  0.00000000000E+00  0.00000000000E+00  0.16516715965E+04  0.16516715965E+04  0.00000000000E+00 0. -1.
          1   -1    0    0  501    0 -0.00000000000E+00 -0.00000000000E+00 -0.22394258530E+03  0.22394258530E+03  0.00000000000E+00 0. -1.
         25    2    1    2    0    0 -0.36085376576E+02 -0.64282708553E+02 -0.13648711005E+03  0.19922634583E+03  0.12501193800E+03 0.  0.
          2    1    1    2  501    0 -0.28981163843E+01  0.43038458524E+02 -0.47440700190E+02  0.64119638374E+02  0.00000000000E+00 0. -1.
          1    1    1    2  502    0  0.38983492960E+02  0.21244250029E+02  0.16116568214E+04  0.16122681976E+04  0.00000000000E+00 0. -1.
         22    1    3    3    0    0 -0.39303445546E+02 -0.89964284105E+02 -0.52478093164E+02  0.11132063380E+03  0.00000000000E+00 0. -1.
         22    1    3    3    0    0  0.32180689705E+01  0.25681575552E+02 -0.84009016883E+02  0.87905712036E+02  0.00000000000E+00 0. -1.
</event>
<event>
 7    1  0.6597701E-006  0.9074580E+02  0.7818608E-02  0.1351650E+00
          2   -1    0    0  502    0  0.00000000000E+00  0.00000000000E+00  0.60326851752E+03  0.60326851752E+03  0.00000000000E+00 0. -1.
          1   -1    0    0  501    0 -0.00000000000E+00 -0.00000000000E+00 -0.29421510789E+03  0.29421510789E+03  0.00000000000E+00 0. -1.
         25    2    1    2    0    0 -0.39343587137E+02 -0.13445309638E+03  0.78864202382E+02  0.20363889214E+03  0.12499473190E+03 0.  0.
          2    1    1    2  501    0  0.34012742846E+02  0.46971488431E+02 -0.22394421732E+03  0.23133136379E+03  0.00000000000E+00 0. -1.
          1    1    1    2  502    0  0.53308442909E+01  0.87481607945E+02  0.45413342457E+03  0.46251336947E+03  0.00000000000E+00 0. -1.
         22    1    3    3    0    0 -0.45727345637E+02 -0.14718524135E+02  0.67981691334E+02  0.83241428677E+02  0.00000000000E+00 0.  1.
         22    1    3    3    0    0  0.63837584997E+01 -0.11973457224E+03  0.10882511048E+02  0.12039746347E+03  0.00000000000E+00 0.  1.
</event>
<event>
 7    1  0.6597701E-006  0.9157999E+02  0.7818608E-02  0.1428030E+00
          2   -1    0    0  502    0  0.00000000000E+00  0.00000000000E+00  0.18376925872E+04  0.18376925872E+04  0.00000000000E+00 0. -1.
          1   -1    0    0  501    0 -0.00000000000E+00 -0.00000000000E+00 -0.15121036315E+04  0.15121036315E+04  0.00000000000E+00 0. -1.
         25    2    1    2    0    0 -0.81550742927E+02 -0.86924046874E+02 -0.80964706915E+02  0.19075309180E+03  0.12500057868E+03 0.  0.
          2    1    1    2  501    0  0.69811214500E+02  0.58137990971E+02 -0.13746096424E+04  0.13776085441E+04  0.00000000000E+00 0. -1.
          1    1    1    2  502    0  0.11739528427E+02  0.28786055903E+02  0.17811633050E+04  0.17814345828E+04  0.00000000000E+00 0. -1.
         22    1    3    3    0    0  0.15884073777E+01  0.26866244165E+02 -0.31420574661E+02  0.41371132757E+02  0.00000000000E+00 0.  1.
         22    1    3    3    0    0 -0.83139150305E+02 -0.11379029104E+03 -0.49544132253E+02  0.14938195905E+03  0.00000000000E+00 0.  1.
</event>
<event>
 7    1  0.6597701E-006  0.7788453E+02  0.7818608E-02  0.1359742E+00
          2   -1    0    0  502    0  0.00000000000E+00  0.00000000000E+00  0.85616782400E+03  0.85616782400E+03  0.00000000000E+00 0. -1.
          1   -1    0    0  501    0 -0.00000000000E+00 -0.00000000000E+00 -0.13970601259E+04  0.13970601259E+04  0.00000000000E+00 0. -1.
         25    2    1    2    0    0 -0.12471204778E+02  0.12731185817E+02  0.59519393815E+03  0.60843967012E+03  0.12500157646E+03 0.  0.
          2    1    1    2  501    0  0.20072325941E+02 -0.75371236898E+02 -0.13854099147E+04  0.13876038172E+04  0.00000000000E+00 0. -1.
          1    1    1    2  502    0 -0.76011211632E+01  0.62640051081E+02  0.24932367468E+03  0.25718446259E+03  0.00000000000E+00 0. -1.
         22    1    3    3    0    0  0.36110913516E+02 -0.39934635526E+02  0.22257748709E+03  0.22899674877E+03  0.00000000000E+00 0.  1.
         22    1    3    3    0    0 -0.48582118294E+02  0.52665821343E+02  0.37261645106E+03  0.37944292135E+03  0.00000000000E+00 0.  1.
</event>
<event>
 7    1  0.6597701E-006  0.1202833E+03  0.7818608E-02  0.1289204E+00
          2   -1    0    0  502    0  0.00000000000E+00  0.00000000000E+00  0.97750631319E+03  0.97750631319E+03  0.00000000000E+00 0. -1.
          1   -1    0    0  501    0 -0.00000000000E+00 -0.00000000000E+00 -0.54819845043E+03  0.54819845043E+03  0.00000000000E+00 0. -1.
         25    2    1    2    0    0 -0.29352625334E+02  0.57857408454E+02 -0.10894517333E+03  0.17805723338E+03  0.12500508486E+03 0.  0.
          2    1    1    2  501    0  0.81125615686E+02 -0.11408004234E+03 -0.39097609385E+03  0.41528054078E+03  0.00000000000E+00 0. -1.
          1    1    1    2  502    0 -0.51772990352E+02  0.56222633889E+02  0.92922912994E+03  0.93236698946E+03  0.00000000000E+00 0. -1.
         22    1    3    3    0    0 -0.17700612808E+02  0.76529752321E+02 -0.12717541056E+03  0.14947809115E+03  0.00000000000E+00 0. -1.
         22    1    3    3    0    0 -0.11652012526E+02 -0.18672343867E+02  0.18230237223E+02  0.28579142230E+02  0.00000000000E+00 0. -1.
</event>
<event>
 7    1  0.6597701E-006  0.4088996E+02  0.7818608E-02  0.1596807E+00
          2   -1    0    0  502    0  0.00000000000E+00  0.00000000000E+00  0.66941489259E+03  0.66941489259E+03  0.00000000000E+00 0. -1.
          1   -1    0    0  501    0 -0.00000000000E+00 -0.00000000000E+00 -0.39253971456E+02  0.39253971456E+02  0.00000000000E+00 0. -1.
         25    2    1    2    0    0 -0.22381858321E+01 -0.25303526944E+02  0.38838358254E+03  0.40879354971E+03  0.12500032459E+03 0.  0.
          2    1    1    2  501    0 -0.17110186471E+02 -0.14115605918E+02 -0.22723169111E+02  0.31754546540E+02  0.00000000000E+00 0. -1.
          1    1    1    2  502    0  0.19348372303E+02  0.39419132862E+02  0.26450050770E+03  0.26812076779E+03  0.00000000000E+00 0. -1.
         22    1    3    3    0    0  0.57214528575E+02 -0.29892919691E+02  0.15483200912E+03  0.16774993286E+03  0.00000000000E+00 0. -1.
         22    1    3    3    0    0 -0.59452714407E+02  0.45893927463E+01  0.23355157343E+03  0.24104361685E+03  0.00000000000E+00 0. -1.
</event>
<event>
 7    1  0.6597701E-006  0.5580687E+02  0.7818608E-02  0.1457221E+00
          2   -1    0    0  502    0  0.00000000000E+00  0.00000000000E+00  0.10115573047E+04  0.10115573047E+04  0.00000000000E+00 0. -1.
          1   -1    0    0  501    0 -0.00000000000E+00 -0.00000000000E+00 -0.14541482981E+04  0.14541482981E+04  0.00000000000E+00 0. -1.
         25    2    1    2    0    0 -0.38596754452E+02 -0.49214077255E+02  0.10477342197E+03  0.17468441299E+03  0.12500175734E+03 0.  0.
          2    1    1    2  501    0  0.54654467755E+02  0.11435085013E+02 -0.14181598681E+04  0.14192587091E+04  0.00000000000E+00 0. -1.
          1    1    1    2  502    0 -0.16057713303E+02  0.37778992241E+02  0.87079545267E+03  0.87176248072E+03  0.00000000000E+00 0. -1.
         22    1    3    3    0    0 -0.74616932232E+02  0.78125783338E+00  0.76569797615E+02  0.10691693433E+03  0.00000000000E+00 0. -1.
         22    1    3    3    0    0  0.36020177779E+02 -0.49995335088E+02  0.28203624356E+02  0.67767478665E+02  0.00000000000E+00 0. -1.
</event>
<event>
 7    1  0.6597701E-006  0.6274175E+02  0.7818608E-02  0.1459450E+00
          2   -1    0    0  502    0  0.00000000000E+00  0.00000000000E+00  0.36811244781E+03  0.36811244781E+03  0.00000000000E+00 0. -1.
          1   -1    0    0  501    0 -0.00000000000E+00 -0.00000000000E+00 -0.51736007245E+03  0.51736007245E+03  0.00000000000E+00 0. -1.
         25    2    1    2    0    0 -0.21577640188E+02  0.83575375720E+02 -0.66254343540E+02  0.16572482063E+03  0.12499856060E+03 0.  0.
          2    1    1    2  501    0  0.35680721223E+02 -0.50534573926E+02 -0.39795971428E+03  0.40273911061E+03  0.00000000000E+00 0. -1.
          1    1    1    2  502    0 -0.14103081035E+02 -0.33040801794E+02  0.31496643319E+03  0.31700858902E+03  0.00000000000E+00 0. -1.
         22    1    3    3    0    0 -0.69749513908E+02  0.35517131404E+02 -0.13057544065E+02  0.79353391677E+02  0.00000000000E+00 0. -1.
         22    1    3    3    0    0  0.48171873720E+02  0.48058244316E+02 -0.53196799475E+02  0.86371428950E+02  0.00000000000E+00 0. -1.
</event>
<event>
 7    1  0.6597701E-006  0.1071397E+03  0.7818608E-02  0.1436431E+00
          2   -1    0    0  502    0  0.00000000000E+00  0.00000000000E+00  0.11814011935E+03  0.11814011935E+03  0.00000000000E+00 0. -1.
          1   -1    0    0  501    0 -0.00000000000E+00 -0.00000000000E+00 -0.61632991497E+03  0.61632991497E+03  0.00000000000E+00 0. -1.
         25    2    1    2    0    0 -0.91590562143E+02  0.28376666497E+02 -0.24084860691E+03  0.28779532666E+03  0.12499612922E+03 0.  0.
          2    1    1    2  501    0 -0.32580371646E+01  0.24724748669E+02 -0.32015814264E+03  0.32112795628E+03  0.00000000000E+00 0. -1.
          1    1    1    2  502    0  0.94848599308E+02 -0.53101415166E+02  0.62816953934E+02  0.12554675139E+03  0.00000000000E+00 0. -1.
         22    1    3    3    0    0  0.61816565880E+01  0.28194415504E+02 -0.15505433076E+03  0.15771805042E+03  0.00000000000E+00 0.  1.
         22    1    3    3    0    0 -0.97772218731E+02  0.18225099360E+00 -0.85794276154E+02  0.13007727623E+03  0.00000000000E+00 0.  1.
</event>
<event>
 7    1  0.6597701E-006  0.1638154E+03  0.7818608E-02  0.1323192E+00
          2   -1    0    0  502    0  0.00000000000E+00  0.00000000000E+00  0.12752336663E+03  0.12752336663E+03  0.00000000000E+00 0. -1.
          1   -1    0    0  501    0 -0.00000000000E+00 -0.00000000000E+00 -0.10671751989E+04  0.10671751989E+04  0.00000000000E+00 0. -1.
         25    2    1    2    0    0 -0.10377124095E+03 -0.73741788072E+02 -0.62065440859E+03  0.64578915160E+03  0.12500164664E+03 0.  0.
          2    1    1    2  501    0 -0.38570282404E+02 -0.14334213584E+02 -0.37127525828E+03  0.37354846242E+03  0.00000000000E+00 0. -1.
          1    1    1    2  502    0  0.14234152336E+03  0.88076001655E+02  0.52277834573E+02  0.17536095154E+03  0.00000000000E+00 0. -1.
         22    1    3    3    0    0 -0.77065882813E+02 -0.65290786878E+02 -0.60564671585E+03  0.61401138554E+03  0.00000000000E+00 0. -1.
         22    1    3    3    0    0 -0.26705358139E+02 -0.84510011933E+01 -0.15007692734E+02  0.31777766059E+02  0.00000000000E+00 0. -1.
</event>
<event>
 7    1  0.6597701E-006  0.4650217E+02  0.7818608E-02  0.1528552E+00
          2   -1    0    0  502    0  0.00000000000E+00  0.00000000000E+00  0.39479062421E+03  0.39479062421E+03  0.00000000000E+00 0. -1.
          1   -1    0    0  501    0 -0.00000000000E+00 -0.00000000000E+00 -0.28863882733E+02  0.28863882733E+02  0.00000000000E+00 0. -1.
         25    2    1    2    0    0 -0.44361913265E+01 -0.49612315862E+02  0.22613199460E+03  0.26313836720E+03  0.12500023853E+03 0.  0.
          2    1    1    2  501    0 -0.26781597268E+02  0.13568234581E+02  0.41009295245E+02  0.50824337068E+02  0.00000000000E+00 0. -1.
          1    1    1    2  502    0  0.31217788595E+02  0.36044081281E+02  0.98785451633E+02  0.10969180268E+03  0.00000000000E+00 0. -1.
         22    1    3    3    0    0 -0.48947180073E+02 -0.70141194483E+02  0.14215147826E+03  0.16589953699E+03  0.00000000000E+00 0. -1.
         22    1    3    3    0    0  0.44510988746E+02  0.20528878620E+02  0.83980516336E+02  0.97238830211E+02  0.00000000000E+00 0. -1.
</event>
<event>
 7    1  0.6597701E-006  0.5084967E+02  0.7818608E-02  0.1463048E+00
          2   -1    0    0  502    0  0.00000000000E+00  0.00000000000E+00  0.22845313683E+03  0.22845313683E+03  0.00000000000E+00 0. -1.
          1   -1    0    0  501    0 -0.00000000000E+00 -0.00000000000E+00 -0.50537319624E+03  0.50537319624E+03  0.00000000000E+00 0. -1.
         25    2    1    2    0    0 -0.22446585164E+02  0.82387185721E+02  0.10482329021E+03  0.18411535655E+03  0.12497617689E+03 0.  0.
          2    1    1    2  501    0  0.22858637781E+02 -0.36639093107E+02 -0.45840558191E+03  0.46043524843E+03  0.00000000000E+00 0. -1.
          1    1    1    2  502    0 -0.41205261699E+00 -0.45748092614E+02  0.76662232294E+02  0.89275728087E+02  0.00000000000E+00 0. -1.
         22    1    3    3    0    0 -0.42417383383E+02  0.89919412041E+02  0.26439484397E+02  0.10287750682E+03  0.00000000000E+00 0. -1.
         22    1    3    3    0    0  0.19970798218E+02 -0.75322263205E+01  0.78383805812E+02  0.81237849728E+02  0.00000000000E+00 0. -1.
</event>
<event>
 7    1  0.6597701E-006  0.1366857E+03  0.7818608E-02  0.1399103E+00
          2   -1    0    0  502    0  0.00000000000E+00  0.00000000000E+00  0.18082574261E+04  0.18082574261E+04  0.00000000000E+00 0. -1.
          1   -1    0    0  501    0 -0.00000000000E+00 -0.00000000000E+00 -0.96684230079E+03  0.96684230079E+03  0.00000000000E+00 0. -1.
         25    2    1    2    0    0  0.15697401489E+03 -0.17155003164E+02 -0.79298234431E+03  0.81815676532E+03  0.12499743507E+03 0.  0.
          2    1    1    2  501    0 -0.20356877978E+02  0.16291715830E+02 -0.15760147592E+03  0.15974369377E+03  0.00000000000E+00 0. -1.
          1    1    1    2  502    0 -0.13661713692E+03  0.86328733444E+00  0.17919989456E+04  0.17971992678E+04  0.00000000000E+00 0. -1.
         22    1    3    3    0    0  0.27395445566E+02 -0.92601488004E+01 -0.45780182912E+03  0.45871426350E+03  0.00000000000E+00 0.  1.
         22    1    3    3    0    0  0.12957856933E+03 -0.78948543638E+01 -0.33518051519E+03  0.35944250182E+03  0.00000000000E+00 0.  1.
</event>
<event>
 7    1  0.6597701E-006  0.1130996E+03  0.7818608E-02  0.1347615E+00
          2   -1    0    0  502    0  0.00000000000E+00  0.00000000000E+00  0.10252833690E+04  0.10252833690E+04  0.00000000000E+00 0. -1.
          1   -1    0    0  501    0 -0.00000000000E+00 -0.00000000000E+00 -0.57771922675E+03  0.57771922675E+03  0.00000000000E+00 0. -1.
         25    2    1    2    0    0  0.81509634780E+02  0.67772600101E+02  0.52027948804E+03  0.54548374567E+03  0.12499930093E+03 0.  0.
          2    1    1    2  501    0  0.34297076630E+02 -0.33811793826E+02 -0.55666705146E+03  0.55874657319E+03  0.00000000000E+00 0. -1.
          1    1    1    2  502    0 -0.11580671141E+03 -0.33960806274E+02  0.48395170571E+03  0.49877227692E+03  0.00000000000E+00 0. -1.
         22    1    3    3    0    0  0.71962070213E+02  0.99590881988E+02  0.32603055195E+03  0.34841470137E+03  0.00000000000E+00 0. -1.
         22    1    3    3    0    0  0.95475645670E+01 -0.31818281887E+02  0.19424893608E+03  0.19706904430E+03  0.00000000000E+00 0. -1.
</event>
<event>
 7    1  0.6597701E-006  0.6666109E+02  0.7818608E-02  0.1394548E+00
          2   -1    0    0  502    0  0.00000000000E+00  0.00000000000E+00  0.61028443475E+03  0.61028443475E+03  0.00000000000E+00 0. -1.
          1   -1    0    0  501    0 -0.00000000000E+00 -0.00000000000E+00 -0.28448307851E+03  0.28448307851E+03  0.00000000000E+00 0. -1.
         25    2    1    2    0    0 -0.14283631236E+02 -0.32992116254E+02  0.36303950420E+03  0.38563836159E+03  0.12500704965E+03 0.  0.
          2    1    1    2  501    0 -0.11286235662E+02 -0.54274231199E+02 -0.26140589631E+03  0.26721922445E+03  0.00000000000E+00 0. -1.
          1    1    1    2  502    0  0.25569866898E+02  0.87266347453E+02  0.22416774835E+03  0.24190992723E+03  0.00000000000E+00 0. -1.
         22    1    3    3    0    0 -0.54700235130E+02 -0.59559624138E+02  0.20539148174E+03  0.22073768441E+03  0.00000000000E+00 0.  1.
         22    1    3    3    0    0  0.40416603894E+02  0.26567507884E+02  0.15764802246E+03  0.16490067717E+03  0.00000000000E+00 0.  1.
</event>
<event>
 7    1  0.6597701E-006  0.2288071E+03  0.7818608E-02  0.1229112E+00
          2   -1    0    0  502    0  0.00000000000E+00  0.00000000000E+00  0.69087611900E+03  0.69087611900E+03  0.00000000000E+00 0. -1.
          1   -1    0    0  501    0 -0.00000000000E+00 -0.00000000000E+00 -0.56153167646E+03  0.56153167646E+03  0.00000000000E+00 0. -1.
         25    2    1    2    0    0  0.56000719974E+02 -0.19043357300E+03  0.15544799324E+03  0.28140698551E+03  0.12499914611E+03 0.  0.
          2    1    1    2  501    0 -0.46275811083E+02 -0.55947263770E+02 -0.46335976780E+03  0.46901366870E+03  0.00000000000E+00 0. -1.
          1    1    1    2  502    0 -0.97249088913E+01  0.24638083677E+03  0.43725621710E+03  0.50198714124E+03  0.00000000000E+00 0. -1.
         22    1    3    3    0    0 -0.36995817713E+02 -0.46867393683E+02  0.63665594137E+02  0.87284311280E+02  0.00000000000E+00 0. -1.
         22    1    3    3    0    0  0.92996537687E+02 -0.14356617932E+03  0.91782399103E+02  0.19412267423E+03  0.00000000000E+00 0. -1.
</event>
<event>
 7    1  0.6597701E-006  0.7874762E+02  0.7818608E-02  0.1360384E+00
          2   -1    0    0  502    0  0.00000000000E+00  0.00000000000E+00  0.18739996960E+04  0.18739996960E+04  0.00000000000E+00 0. -1.
          1   -1    0    0  501    0 -0.00000000000E+00 -0.00000000000E+00 -0.13127662368E+03  0.13127662368E+03  0.00000000000E+00 0. -1.
         25    2    1    2    0    0 -0.52643367434E+02  0.27527786940E+02  0.15488370394E+04  0.15550085710E+04  0.12500551197E+03 0.  0.
          2    1    1    2  501    0  0.72650465936E+02  0.31231416253E+02 -0.11258037919E+03  0.13757846249E+03  0.00000000000E+00 0. -1.
          1    1    1    2  502    0 -0.20007098502E+02 -0.58759203193E+02  0.30646641214E+03  0.31268928623E+03  0.00000000000E+00 0. -1.
         22    1    3    3    0    0  0.36460143087E+00  0.64197532935E+02  0.48643789021E+03  0.49065596624E+03  0.00000000000E+00 0.  1.
         22    1    3    3    0    0 -0.53007968865E+02 -0.36669745995E+02  0.10623991492E+04  0.10643526047E+04  0.00000000000E+00 0.  1.
</event>
<event>
 7    1  0.6597701E-006  0.1475968E+03  0.7818608E-02  0.1277917E+00
          2   -1    0    0  502    0  0.00000000000E+00  0.00000000000E+00  0.26259967432E+02  0.26259967432E+02  0.00000000000E+00 0. -1.
          1   -1    0    0  501    0 -0.00000000000E+00 -0.00000000000E+00 -0.33372689764E+04  0.33372689764E+04  0.00000000000E+00 0. -1.
         25    2    1    2    0    0  0.15395210264E+03  0.90716271262E+02 -0.18864768251E+04  0.18990392630E+04  0.12499847625E+03 0.  0.
          2    1    1    2  501    0 -0.65206605453E+02  0.23481293613E+02 -0.11675523996E+04  0.11696075745E+04  0.00000000000E+00 0. -1.
          1    1    1    2  502    0 -0.88745497185E+02 -0.11419756488E+03 -0.25697978425E+03  0.29488210629E+03  0.00000000000E+00 0. -1.
         22    1    3    3    0    0  0.11367409512E+03  0.27822825917E+02 -0.15481552798E+04  0.15525722785E+04  0.00000000000E+00 0.  1.
         22    1    3    3    0    0  0.40278007518E+02  0.62893445345E+02 -0.33832154525E+03  0.34646698448E+03  0.00000000000E+00 0.  1.
</event>
<event>
 7    1  0.6597701E-006  0.9699422E+02  0.7818608E-02  0.1440964E+00
          2   -1    0    0  502    0  0.00000000000E+00  0.00000000000E+00  0.42352420814E+03  0.42352420814E+03  0.00000000000E+00 0. -1.
          1   -1    0    0  501    0 -0.00000000000E+00 -0.00000000000E+00 -0.24780423194E+03  0.24780423194E+03  0.00000000000E+00 0. -1.
         25    2    1    2    0    0  0.11441202228E+02 -0.74766377576E+02 -0.98467774948E+02  0.17618506668E+03  0.12499745075E+03 0.  0.
          2    1    1    2  501    0  0.19356278906E+02 -0.18285988637E+02 -0.10250513602E+03  0.10590725105E+03  0.00000000000E+00 0. -1.
          1    1    1    2  502    0 -0.30797481134E+02  0.93052366213E+02  0.37669288717E+03  0.38923612236E+03  0.00000000000E+00 0. -1.
         22    1    3    3    0    0 -0.44417272276E+02 -0.51731506399E+02 -0.93277306086E+02  0.11554089606E+03  0.00000000000E+00 0.  1.
         22    1    3    3    0    0  0.55858474504E+02 -0.23034871177E+02 -0.51904688616E+01  0.60644170627E+02  0.00000000000E+00 0.  1.
</event>
<event>
 7    1  0.6597701E-006  0.4275712E+02  0.7818608E-02  0.1527827E+00
          2   -1    0    0  502    0  0.00000000000E+00  0.00000000000E+00  0.67180884268E+03  0.67180884268E+03  0.00000000000E+00 0. -1.
          1   -1    0    0  501    0 -0.00000000000E+00 -0.00000000000E+00 -0.16697250019E+04  0.16697250019E+04  0.00000000000E+00 0. -1.
         25    2    1    2    0    0 -0.29903995458E+02  0.69100613031E+02 -0.61925263830E+02  0.15852256819E+03  0.12500209062E+03 0.  0.
          2    1    1    2  501    0  0.14368294329E+02 -0.29495550265E+02 -0.15586025463E+04  0.15589478287E+04  0.00000000000E+00 0. -1.
          1    1    1    2  502    0  0.15535701129E+02 -0.39605062767E+02  0.62261165085E+03  0.62406344772E+03  0.00000000000E+00 0. -1.
         22    1    3    3    0    0  0.45601733979E+02  0.13058490968E+02 -0.39808763299E+02  0.61925600228E+02  0.00000000000E+00 0. -1.
         22    1    3    3    0    0 -0.75505729437E+02  0.56042122064E+02 -0.22116500532E+02  0.96596967960E+02  0.00000000000E+00 0. -1.
</event>
<event>
 7    1  0.6597701E-006  0.7660923E+02  0.7818608E-02  0.1361067E+00
          2   -1    0    0  502    0  0.00000000000E+00  0.00000000000E+00  0.17455305685E+03  0.17455305685E+03  0.00000000000E+00 0. -1.
          1   -1    0    0  501    0 -0.00000000000E+00 -0.00000000000E+00 -0.87220084727E+03  0.87220084727E+03  0.00000000000E+00 0. -1.
         25    2    1    2    0    0  0.57952727088E+02  0.89849122021E+01  0.71221685186E+02  0.15537099478E+03  0.12501348069E+03 0.  0.
          2    1    1    2  501    0 -0.32424170103E+02  0.69409271819E+02 -0.79969983802E+03  0.80336094301E+03  0.00000000000E+00 0. -1.
          1    1    1    2  502    0 -0.25528556985E+02 -0.78394184021E+02  0.30830362419E+02  0.88021966332E+02  0.00000000000E+00 0. -1.
         22    1    3    3    0    0 -0.19965369781E+02  0.21226931141E+02  0.70727401773E+02  0.76495515932E+02  0.00000000000E+00 0. -1.
         22    1    3    3    0    0  0.77918096869E+02 -0.12242018939E+02  0.49428341285E+00  0.78875478848E+02  0.00000000000E+00 0. -1.
</event>
<event>
 7    1  0.6597701E-006  0.2056500E+03  0.7818608E-02  0.1345546E+00
          2   -1    0    0  502    0  0.00000000000E+00  0.00000000000E+00  0.11646980408E+04  0.11646980408E+04  0.00000000000E+00 0. -1.
          1   -1    0    0  501    0 -0.00000000000E+00 -0.00000000000E+00 -0.32189668031E+03  0.32189668031E+03  0.00000000000E+00 0. -1.
         25    2    1    2    0    0  0.13993261103E+03 -0.13825414621E+03 -0.91761415581E+02  0.25047345642E+03  0.12498580083E+03 0.  0.
          2    1    1    2  501    0 -0.12480440886E+02 -0.23898497365E+02 -0.13968029716E+03  0.14225851467E+03  0.00000000000E+00 0. -1.
          1    1    1    2  502    0 -0.12745217014E+03  0.16215264358E+03  0.10742430733E+04  0.10938627501E+04  0.00000000000E+00 0. -1.
         22    1    3    3    0    0  0.50890707084E+02 -0.13448073578E+03 -0.52268107532E+02  0.15299309602E+03  0.00000000000E+00 0.  1.
         22    1    3    3    0    0  0.89041903942E+02 -0.37734104319E+01 -0.39493308048E+02  0.97480360404E+02  0.00000000000E+00 0.  1.
</event>
<event>
 7    1  0.6597701E-006  0.1043419E+03  0.7818608E-02  0.1314488E+00
          2   -1    0    0  502    0  0.00000000000E+00  0.00000000000E+00  0.19306451436E+03  0.19306451436E+03  0.00000000000E+00 0. -1.
          1   -1    0    0  501    0 -0.00000000000E+00 -0.00000000000E+00 -0.71595047789E+03  0.71595047789E+03  0.00000000000E+00 0. -1.
         25    2    1    2    0    0  0.12736774875E+02 -0.67220760962E+02 -0.19316532715E+03  0.24003946736E+03  0.12500098455E+03 0.  0.
          2    1    1    2  501    0 -0.79800688147E+02  0.86698630274E+02 -0.48479083973E+03  0.49890576325E+03  0.00000000000E+00 0. -1.
          1    1    1    2  502    0  0.67063913273E+02 -0.19477869312E+02  0.15507020336E+03  0.17006976164E+03  0.00000000000E+00 0. -1.
         22    1    3    3    0    0  0.19932036098E+01  0.22183928029E+01  0.17609913390E+02  0.17860660034E+02  0.00000000000E+00 0. -1.
         22    1    3    3    0    0  0.10743571265E+02 -0.69439153765E+02 -0.21077524054E+03  0.22217880732E+03  0.00000000000E+00 0. -1.
</event>
<event>
 7    1  0.6597701E-006  0.1375779E+03  0.7818608E-02  0.1398553E+00
          2   -1    0    0  502    0  0.00000000000E+00  0.00000000000E+00  0.13741005793E+03  0.13741005793E+03  0.00000000000E+00 0. -1.
          1   -1    0    0  501    0 -0.00000000000E+00 -0.00000000000E+00 -0.70901759226E+03  0.70901759226E+03  0.00000000000E+00 0. -1.
         25    2    1    2    0    0 -0.84091471500E+02 -0.13124021369E+03 -0.20724623307E+03  0.28787197655E+03  0.12499561790E+03 0.  0.
          2    1    1    2  501    0  0.61549149743E+02  0.11824961649E+03 -0.44985455289E+03  0.46919120664E+03  0.00000000000E+00 0. -1.
          1    1    1    2  502    0  0.22542321757E+02  0.12990597197E+02  0.85493251639E+02  0.89364466996E+02  0.00000000000E+00 0. -1.
         22    1    3    3    0    0 -0.14530243137E+02 -0.80687980278E+02 -0.17979664554E+03  0.19760696312E+03  0.00000000000E+00 0. -1.
         22    1    3    3    0    0 -0.69561228363E+02 -0.50552233413E+02 -0.27449587535E+02  0.90265013434E+02  0.00000000000E+00 0. -1.
</event>
<event>
 7    1  0.6597701E-006  0.5904884E+02  0.7818608E-02  0.1404709E+00
          2   -1    0    0  502    0  0.00000000000E+00  0.00000000000E+00  0.71366175937E+03  0.71366175937E+03  0.00000000000E+00 0. -1.
          1   -1    0    0  501    0 -0.00000000000E+00 -0.00000000000E+00 -0.10793922506E+03  0.10793922506E+03  0.00000000000E+00 0. -1.
         25    2    1    2    0    0 -0.64439511384E+02  0.15595214119E+02  0.17710995751E+03  0.22668996032E+03  0.12499895892E+03 0.  0.
          2    1    1    2  501    0  0.22796023043E+02 -0.55593545177E+02 -0.70407829693E+02  0.92561133388E+02  0.00000000000E+00 0. -1.
          1    1    1    2  502    0  0.41643488341E+02  0.39998331058E+02  0.49902040650E+03  0.50234989072E+03  0.00000000000E+00 0. -1.
         22    1    3    3    0    0 -0.10786720398E+02 -0.46466544889E+02  0.11272701982E+03  0.12240455110E+03  0.00000000000E+00 0. -1.
         22    1    3    3    0    0 -0.53652790986E+02  0.62061759009E+02  0.64382937682E+02  0.10428540922E+03  0.00000000000E+00 0. -1.
</event>
<event>
 7    1  0.6597701E-006  0.8146591E+02  0.7818608E-02  0.1372915E+00
          2   -1    0    0  502    0  0.00000000000E+00  0.00000000000E+00  0.76990716732E+03  0.76990716732E+03  0.00000000000E+00 0. -1.
          1   -1    0    0  501    0 -0.00000000000E+00 -0.00000000000E+00 -0.57361869424E+02  0.57361869424E+02  0.00000000000E+00 0. -1.
         25    2    1    2    0    0 -0.34080464617E+02 -0.88329598374E+02  0.32938150864E+03  0.36480446832E+03  0.12500610326E+03 0.  0.
          2    1    1    2  501    0  0.67564055515E+02  0.45886858902E+02  0.64894085193E+01  0.81930567193E+02  0.00000000000E+00 0. -1.
          1    1    1    2  502    0 -0.33483590898E+02  0.42442739472E+02  0.37667438073E+03  0.38053400123E+03  0.00000000000E+00 0. -1.
         22    1    3    3    0    0 -0.28361252950E+02 -0.78056122890E+02  0.80550243026E+02  0.11569555152E+03  0.00000000000E+00 0.  1.
         22    1    3    3    0    0 -0.57192116671E+01 -0.10273475485E+02  0.24883126562E+03  0.24910891680E+03  0.00000000000E+00 0.  1.
</event>
<event>
 7    1  0.6597701E-006  0.1069930E+03  0.7818608E-02  0.1296544E+00
          2   -1    0    0  502    0  0.00000000000E+00  0.00000000000E+00  0.20902525252E+03  0.20902525252E+03  0.00000000000E+00 0. -1.
          1   -1    0    0  501    0 -0.00000000000E+00 -0.00000000000E+00 -0.35792078003E+04  0.35792078003E+04  0.00000000000E+00 0. -1.
         25    2    1    2    0    0 -0.21216145853E+02  0.79967438913E+02 -0.10934405024E+04  0.11036674267E+04  0.12499896170E+03 0.  0.
          2    1    1    2  501    0  0.99940576919E+02 -0.64444794863E+02 -0.24712746448E+04  0.24741341153E+04  0.00000000000E+00 0. -1.
          1    1    1    2  502    0 -0.78724431066E+02 -0.15522644050E+02  0.19453259937E+03  0.21043151082E+03  0.00000000000E+00 0. -1.
         22    1    3    3    0    0  0.39144134840E+01  0.61552762689E+02 -0.19146355453E+03  0.20115257379E+03  0.00000000000E+00 0.  1.
         22    1    3    3    0    0 -0.25130559337E+02  0.18414676224E+02 -0.90197694785E+03  0.90251485294E+03  0.00000000000E+00 0.  1.
</event>
<event>
 7    1  0.6597701E-006  0.1251773E+03  0.7818608E-02  0.1258982E+00
          2   -1    0    0  502    0  0.00000000000E+00  0.00000000000E+00  0.12082077214E+03  0.12082077214E+03  0.00000000000E+00 0. -1.
          1   -1    0    0  501    0 -0.00000000000E+00 -0.00000000000E+00 -0.10171923351E+04  0.10171923351E+04  0.00000000000E+00 0. -1.
         25    2    1    2    0    0  0.10134480774E+03  0.15326517764E+02 -0.85999223745E+02  0.18310174043E+03  0.12499883463E+03 0.  0.
          2    1    1    2  501    0 -0.37771867077E+01  0.98111424317E+02 -0.79883071935E+03  0.80484199499E+03  0.00000000000E+00 0. -1.
          1    1    1    2  502    0 -0.97567621036E+02 -0.11343794208E+03 -0.11541619885E+02  0.15006937185E+03  0.00000000000E+00 0. -1.
         22    1    3    3    0    0  0.11822194440E+03 -0.12576657189E+02 -0.37508201316E+02  0.12466541465E+03  0.00000000000E+00 0. -1.
         22    1    3    3    0    0 -0.16877136655E+02  0.27903174953E+02 -0.48491022430E+02  0.58436325778E+02  0.00000000000E+00 0. -1.
</event>
<event>
 7    1  0.6597701E-006  0.5341896E+02  0.7818608E-02  0.1468532E+00
          2   -1    0    0  502    0  0.00000000000E+00  0.00000000000E+00  0.16826493569E+04  0.16826493569E+04  0.00000000000E+00 0. -1.
          1   -1    0    0  501    0 -0.00000000000E+00 -0.00000000000E+00 -0.18839928854E+03  0.18839928854E+03  0.00000000000E+00 0. -1.
         25    2    1    2    0    0 -0.83551054944E+02  0.30069723971E+02  0.41573302125E+03  0.44310686704E+03  0.12499913430E+03 0.  0.
          2    1    1    2  501    0  0.39445550519E+02 -0.23489312537E+01 -0.17192874730E+03  0.17641134624E+03  0.00000000000E+00 0. -1.
          1    1    1    2  502    0  0.44105504425E+02 -0.27720792718E+02  0.12504457944E+04  0.12515304321E+04  0.00000000000E+00 0. -1.
         22    1    3    3    0    0 -0.39705585741E+02 -0.14749461371E+02  0.34892089226E+03  0.35148238819E+03  0.00000000000E+00 0. -1.
         22    1    3    3    0    0 -0.43845469203E+02  0.44819185343E+02  0.66812128992E+02  0.91624478852E+02  0.00000000000E+00 0. -1.
</event>
<event>
 7    1  0.6597701E-006  0.1557333E+03  0.7818608E-02  0.1209929E+00
          2   -1    0    0  502    0  0.00000000000E+00  0.00000000000E+00  0.15388259776E+04  0.15388259776E+04  0.00000000000E+00 0. -1.
          1   -1    0    0  501    0 -0.00000000000E+00 -0.00000000000E+00 -0.46565015745E+03  0.46565015745E+03  0.00000000000E+00 0. -1.
         25    2    1    2    0    0  0.23516421496E+03 -0.12105640195E+03  0.71100867281E+03  0.76884026307E+03  0.12500062745E+03 0.  0.
          2    1    1    2  501    0 -0.11870795402E+03  0.54199045962E+02 -0.42114379154E+03  0.44089818335E+03  0.00000000000E+00 0. -1.
          1    1    1    2  502    0 -0.11645626094E+03  0.66857355984E+02  0.78331093884E+03  0.79473768859E+03  0.00000000000E+00 0. -1.
         22    1    3    3    0    0  0.22587138289E+02 -0.64348064168E+02  0.23011793266E+03  0.24001065624E+03  0.00000000000E+00 0.  1.
         22    1    3    3    0    0  0.21257707667E+03 -0.56708337778E+02  0.48089074015E+03  0.52882960683E+03  0.00000000000E+00 0.  1.
</event>
<event>
 7    1  0.6597701E-006  0.3564616E+02  0.7818608E-02  0.1548300E+00
          2   -1    0    0  502    0  0.00000000000E+00  0.00000000000E+00  0.12957130100E+04  0.12957130100E+04  0.00000000000E+00 0. -1.
          1   -1    0    0  501    0 -0.00000000000E+00 -0.00000000000E+00 -0.63517757272E+03  0.63517757272E+03  0.00000000000E+00 0. -1.
         25    2    1    2    0    0  0.53068316254E+02  0.42923312558E+02  0.44049322481E+02  0.14907892125E+03  0.12500209998E+03 0.  0.
          2    1    1    2  501    0 -0.30886497641E+02 -0.15218292585E+02 -0.58189114209E+03  0.58290897523E+03  0.00000000000E+00 0. -1.
          1    1    1    2  502    0 -0.22181818613E+02 -0.27705019973E+02  0.11983772568E+04  0.11989026862E+04  0.00000000000E+00 0. -1.
         22    1    3    3    0    0  0.74122314840E+02 -0.16855562806E+02  0.87044556517E+01  0.76511405051E+02  0.00000000000E+00 0. -1.
         22    1    3    3    0    0 -0.21053998586E+02  0.59778875364E+02  0.35344866829E+02  0.72567516200E+02  0.00000000000E+00 0. -1.
</event>
<event>
 7    1  0.6597701E-006  0.7304349E+02  0.7818608E-02  0.1356312E+00
          2   -1    0    0  502    0  0.00000000000E+00  0.00000000000E+00  0.39101452369E+03  0.39101452369E+03  0.00000000000E+00 0. -1.
          1   -1    0    0  501    0 -0.00000000000E+00 -0.00000000000E+00 -0.61663994669E+02  0.61663994669E+02  0.00000000000E+00 0. -1.
         25    2    1    2    0    0 -0.28189711906E+02 -0.29064786178E+01  0.65550307068E+02  0.14396034841E+03  0.12499852672E+03 0.  0.
          2    1    1    2  501    0 -0.16714469283E+02 -0.71105399596E+02  0.13569543873E+03  0.15410581893E+03  0.00000000000E+00 0. -1.
          1    1    1    2  502    0  0.44904181189E+02  0.74011878214E+02  0.12810478322E+03  0.15461235102E+03  0.00000000000E+00 0. -1.
         22    1    3    3    0    0  0.27700539057E+02  0.46047929386E+02  0.30779535233E+02  0.61928276691E+02  0.00000000000E+00 0.  1.
         22    1    3    3    0    0 -0.55890250963E+02 -0.48954408004E+02  0.34770771834E+02  0.82032071714E+02  0.00000000000E+00 0.  1.
</event>
<event>
 7    1  0.6597701E-006  0.7826152E+02  0.7818608E-02  0.1467043E+00
          2   -1    0    0  502    0  0.00000000000E+00  0.00000000000E+00  0.14787628182E+03  0.14787628182E+03  0.00000000000E+00 0. -1.
          1   -1    0    0  501    0 -0.00000000000E+00 -0.00000000000E+00 -0.29739924959E+03  0.29739924959E+03  0.00000000000E+00 0. -1.
         25    2    1    2    0    0 -0.29888481237E+02  0.65629709688E+02 -0.94461007319E+02  0.17247758980E+03  0.12500022790E+03 0.  0.
          2    1    1    2  501    0  0.23686045608E+02  0.13497832746E+02 -0.14805189695E+03  0.15054097261E+03  0.00000000000E+00 0. -1.
          1    1    1    2  502    0  0.62024356284E+01 -0.79127542433E+02  0.92989936491E+02  0.12225696900E+03  0.00000000000E+00 0. -1.
         22    1    3    3    0    0 -0.20234025255E+02  0.92067739789E+02 -0.24989388708E+02  0.97521044067E+02  0.00000000000E+00 0.  1.
         22    1    3    3    0    0 -0.96544559821E+01 -0.26438030102E+02 -0.69471618611E+02  0.74956545734E+02  0.00000000000E+00 0.  1.
</event>
<event>
 7    1  0.6597701E-006  0.5644837E+02  0.7818608E-02  0.1448892E+00
          2   -1    0    0  502    0  0.00000000000E+00  0.00000000000E+00  0.10735836916E+04  0.10735836916E+04  0.00000000000E+00 0. -1.
          1   -1    0    0  501    0 -0.00000000000E+00 -0.00000000000E+00 -0.25983969175E+03  0.25983969175E+03  0.00000000000E+00 0. -1.
         25    2    1    2    0    0  0.81221212169E+02 -0.39687993926E+02  0.57286761257E+02  0.16455638586E+03  0.12500003578E+03 0.  0.
          2    1    1    2  501    0 -0.25407848944E+02  0.34864149155E+02 -0.20312261715E+03  0.20765323326E+03  0.00000000000E+00 0. -1.
          1    1    1    2  502    0 -0.55813363225E+02  0.48238447704E+01  0.95957985576E+03  0.96121376425E+03  0.00000000000E+00 0. -1.
         22    1    3    3    0    0  0.70032858684E+02  0.18020629171E+02 -0.12419461672E+02  0.73372933698E+02  0.00000000000E+00 0. -1.
         22    1    3    3    0    0  0.11188353485E+02 -0.57708623097E+02  0.69706222929E+02  0.91183452164E+02  0.00000000000E+00 0. -1.
</event>
<event>
 7    1  0.6597701E-006  0.4852406E+02  0.7818608E-02  0.1551836E+00
          2   -1    0    0  502    0  0.00000000000E+00  0.00000000000E+00  0.42890863579E+03  0.42890863579E+03  0.00000000000E+00 0. -1.
          1   -1    0    0  501    0 -0.00000000000E+00 -0.00000000000E+00 -0.91515607548E+03  0.91515607548E+03  0.00000000000E+00 0. -1.
         25    2    1    2    0    0 -0.68754093710E+02 -0.10168846124E+02 -0.88083181051E+03  0.89236825063E+03  0.12500354193E+03 0.  0.
          2    1    1    2  501    0  0.23575911647E+02 -0.74536835759E+01 -0.21517832952E+02  0.32778013116E+02  0.00000000000E+00 0. -1.
          1    1    1    2  502    0  0.45178182063E+02  0.17622529700E+02  0.41610220377E+03  0.41891844752E+03  0.00000000000E+00 0. -1.
         22    1    3    3    0    0 -0.41277571822E+02 -0.18516596154E+01 -0.71897973160E+02  0.82925177861E+02  0.00000000000E+00 0. -1.
         22    1    3    3    0    0 -0.27476521889E+02 -0.83171865082E+01 -0.80893383735E+03  0.80944307277E+03  0.00000000000E+00 0. -1.
</event>
<event>
 7    1  0.6597701E-006  0.1292312E+03  0.7818608E-02  0.1345941E+00
          2   -1    0    0  502    0  0.00000000000E+00  0.00000000000E+00  0.14130063651E+04  0.14130063651E+04  0.00000000000E+00 0. -1.
          1   -1    0    0  501    0 -0.00000000000E+00 -0.00000000000E+00 -0.82956521261E+03  0.82956521261E+03  0.00000000000E+00 0. -1.
         25    2    1    2    0    0 -0.77167060306E+01  0.16835402927E+03  0.47762507267E+03  0.52168258178E+03  0.12499751742E+03 0.  0.
          2    1    1    2  501    0  0.19729208033E+02 -0.12731720318E+03 -0.80189122776E+03  0.81217513693E+03  0.00000000000E+00 0. -1.
          1    1    1    2  502    0 -0.12012502003E+02 -0.41036826085E+02  0.90770730762E+03  0.90871385904E+03  0.00000000000E+00 0. -1.
         22    1    3    3    0    0  0.22565581306E+02  0.17689743963E+03  0.40274837333E+03  0.44046357605E+03  0.00000000000E+00 0.  1.
         22    1    3    3    0    0 -0.30282287336E+02 -0.85434103576E+01  0.74876699346E+02  0.81219005730E+02  0.00000000000E+00 0.  1.
</event>
<event>
 7    1  0.6597701E-006  0.5632778E+02  0.7818608E-02  0.1421758E+00
          2   -1    0    0  502    0  0.00000000000E+00  0.00000000000E+00  0.43696665020E+03  0.43696665020E+03  0.00000000000E+00 0. -1.
          1   -1    0    0  501    0 -0.00000000000E+00 -0.00000000000E+00 -0.32192909026E+03  0.32192909026E+03  0.00000000000E+00 0. -1.
         25    2    1    2    0    0 -0.24908401864E+02  0.90535161051E+01  0.21878445982E+03  0.25336708048E+03  0.12500337185E+03 0.  0.
          2    1    1    2  501    0 -0.24923499852E+02 -0.50513744461E+02 -0.29668860247E+03  0.30198832107E+03  0.00000000000E+00 0. -1.
          1    1    1    2  502    0  0.49831901715E+02  0.41460228356E+02  0.19294170260E+03  0.20354033891E+03  0.00000000000E+00 0. -1.
         22    1    3    3    0    0 -0.73333951473E+02  0.10546748735E+01  0.93648024519E+02  0.11894928867E+03  0.00000000000E+00 0. -1.
         22    1    3    3    0    0  0.48425549609E+02  0.79988412315E+01  0.12513643530E+03  0.13441779181E+03  0.00000000000E+00 0. -1.
</event>
<event>
 7    1  0.6597701E-006  0.3042989E+02  0.7818608E-02  0.1593691E+00
          2   -1    0    0  502    0  0.00000000000E+00  0.00000000000E+00  0.67730277668E+03  0.67730277668E+03  0.00000000000E+00 0. -1.
          1   -1    0    0  501    0 -0.00000000000E+00 -0.00000000000E+00 -0.18784537094E+03  0.18784537094E+03  0.00000000000E+00 0. -1.
         25    2    1    2    0    0  0.15294192477E+02  0.30645322992E+02  0.57958190798E+02  0.14197757986E+03  0.12500173262E+03 0.  0.
          2    1    1    2  501    0 -0.30160746198E+02 -0.40382733517E+01 -0.14384053812E+03  0.14702407514E+03  0.00000000000E+00 0. -1.
          1    1    1    2  502    0  0.14866553722E+02 -0.26607049640E+02  0.57533975306E+03  0.57614649262E+03  0.00000000000E+00 0. -1.
         22    1    3    3    0    0  0.27153083889E+02  0.72813012394E+02  0.12253230363E+02  0.78671255188E+02  0.00000000000E+00 0. -1.
         22    1    3    3    0    0 -0.11858891412E+02 -0.42167689402E+02  0.45704960435E+02  0.63306324672E+02  0.00000000000E+00 0. -1.
</event>
<event>
 7    1  0.6597701E-006  0.6337750E+03  0.7818608E-02  0.1225082E+00
          2   -1    0    0  502    0  0.00000000000E+00  0.00000000000E+00  0.19867878626E+04  0.19867878626E+04  0.00000000000E+00 0. -1.
          1   -1    0    0  501    0 -0.00000000000E+00 -0.00000000000E+00 -0.54796373621E+03  0.54796373621E+03  0.00000000000E+00 0. -1.
         25    2    1    2    0    0  0.61495631598E+03  0.16543269645E+03  0.74240371650E+03  0.98606493703E+03  0.12498613587E+03 0.  0.
          2    1    1    2  501    0 -0.60376896804E+03 -0.19036964790E+03 -0.19068184277E+03  0.66116347054E+03  0.00000000000E+00 0. -1.
          1    1    1    2  502    0 -0.11187347948E+02  0.24936951456E+02  0.88710225268E+03  0.88752319125E+03  0.00000000000E+00 0. -1.
         22    1    3    3    0    0  0.61568103571E+02  0.59326796606E+02  0.97895632636E+02  0.12997636347E+03  0.00000000000E+00 0. -1.
         22    1    3    3    0    0  0.55338821241E+03  0.10610589984E+03  0.64450808386E+03  0.85608857356E+03  0.00000000000E+00 0. -1.
</event>
<event>
 7    1  0.6597701E-006  0.7354433E+02  0.7818608E-02  0.1396262E+00
          2   -1    0    0  502    0  0.00000000000E+00  0.00000000000E+00  0.42852461697E+03  0.42852461697E+03  0.00000000000E+00 0. -1.
          1   -1    0    0  501    0 -0.00000000000E+00 -0.00000000000E+00 -0.18501404066E+03  0.18501404066E+03  0.00000000000E+00 0. -1.
         25    2    1    2    0    0  0.32345971656E+02 -0.44661882058E+02  0.79259497914E+02  0.15794115317E+03  0.12498957662E+03 0.  0.
          2    1    1    2  501    0 -0.74051415583E+02  0.17878668164E+02 -0.13352334189E+03  0.15372619085E+03  0.00000000000E+00 0. -1.
          1    1    1    2  502    0  0.41705443927E+02  0.26783213894E+02  0.29777442028E+03  0.30187131360E+03  0.00000000000E+00 0. -1.
         22    1    3    3    0    0  0.25117971117E+02 -0.64359442306E+00  0.10395860475E+03  0.10695194336E+03  0.00000000000E+00 0. -1.
         22    1    3    3    0    0  0.72280005388E+01 -0.44018287635E+02 -0.24699106840E+02  0.50989209808E+02  0.00000000000E+00 0. -1.
</event>
<event>
 7    1  0.6597701E-006  0.9212998E+02  0.7818608E-02  0.1316235E+00
          2   -1    0    0  502    0  0.00000000000E+00  0.00000000000E+00  0.89478025400E+03  0.89478025400E+03  0.00000000000E+00 0. -1.
          1   -1    0    0  501    0 -0.00000000000E+00 -0.00000000000E+00 -0.11957156858E+04  0.11957156858E+04  0.00000000000E+00 0. -1.
         25    2    1    2    0    0 -0.45317823101E+02 -0.12257175114E+02  0.20993667662E+03  0.24880354543E+03  0.12500341034E+03 0.  0.
          2    1    1    2  501    0  0.28300313079E+02  0.88232965498E+02 -0.11721701057E+04  0.11758268242E+04  0.00000000000E+00 0. -1.
          1    1    1    2  502    0  0.17017510021E+02 -0.75975790384E+02  0.66129799724E+03  0.66586557016E+03  0.00000000000E+00 0. -1.
         22    1    3    3    0    0 -0.55956539359E+02 -0.61337585085E+02  0.13852764331E+03  0.16150337954E+03  0.00000000000E+00 0. -1.
         22    1    3    3    0    0  0.10638716259E+02  0.49080409971E+02  0.71409033315E+02  0.87300165897E+02  0.00000000000E+00 0. -1.
</event>
<event>
 7    1  0.6597701E-006  0.7918566E+02  0.7818608E-02  0.1338784E+00
          2   -1    0    0  502    0  0.00000000000E+00  0.00000000000E+00  0.93394935696E+02  0.93394935696E+02  0.00000000000E+00 0. -1.
          1   -1    0    0  501    0 -0.00000000000E+00 -0.00000000000E+00 -0.47984799262E+03  0.47984799262E+03  0.00000000000E+00 0. -1.
         25    2    1    2    0    0  0.81111081138E+01  0.20833170767E+02 -0.82385212736E+02  0.15136364214E+03  0.12499527114E+03 0.  0.
          2    1    1    2  501    0 -0.78872439252E+02 -0.43255638139E+02 -0.33093094167E+03  0.34293906173E+03  0.00000000000E+00 0. -1.
          1    1    1    2  502    0  0.70761331138E+02  0.22422467373E+02  0.26863097487E+02  0.78940224437E+02  0.00000000000E+00 0. -1.
         22    1    3    3    0    0 -0.33536842108E+02  0.60500792203E+02 -0.50046287007E+02  0.85379719365E+02  0.00000000000E+00 0. -1.
         22    1    3    3    0    0  0.41647950222E+02 -0.39667621436E+02 -0.32338925729E+02  0.65983922779E+02  0.00000000000E+00 0. -1.
</event>
<event>
 7    1  0.6597701E-006  0.5298468E+02  0.7818608E-02  0.1488070E+00
          2   -1    0    0  502    0  0.00000000000E+00  0.00000000000E+00  0.10715907288E+04  0.10715907288E+04  0.00000000000E+00 0. -1.
          1   -1    0    0  501    0 -0.00000000000E+00 -0.00000000000E+00 -0.39740631864E+03  0.39740631864E+03  0.00000000000E+00 0. -1.
         25    2    1    2    0    0  0.28335450361E+02 -0.15107021513E+02 -0.29015119282E+02  0.13227615943E+03  0.12499594138E+03 0.  0.
          2    1    1    2  501    0 -0.75009796302E+01 -0.33871481037E+02 -0.31511367690E+03  0.31701761984E+03  0.00000000000E+00 0. -1.
          1    1    1    2  502    0 -0.20834470731E+02  0.48978502550E+02  0.10183132064E+04  0.10197032682E+04  0.00000000000E+00 0. -1.
         22    1    3    3    0    0  0.40551995663E+02 -0.49286125338E+02  0.23862501426E+02  0.68139602856E+02  0.00000000000E+00 0.  1.
         22    1    3    3    0    0 -0.12216545302E+02  0.34179103824E+02 -0.52877620708E+02  0.64136556574E+02  0.00000000000E+00 0.  1.
</event>
<event>
 7    1  0.6597701E-006  0.8294328E+02  0.7818608E-02  0.1336347E+00
          2   -1    0    0  502    0  0.00000000000E+00  0.00000000000E+00  0.23388384955E+04  0.23388384955E+04  0.00000000000E+00 0. -1.
          1   -1    0    0  501    0 -0.00000000000E+00 -0.00000000000E+00 -0.86501941690E+02  0.86501941690E+02  0.00000000000E+00 0. -1.
         25    2    1    2    0    0 -0.40480608562E+02  0.14655485296E+03  0.87629029374E+03  0.89812447885E+03  0.12500358401E+03 0.  0.
          2    1    1    2  501    0  0.32060920225E+02 -0.74662471705E+02 -0.52562919667E+02  0.96774210463E+02  0.00000000000E+00 0. -1.
          1    1    1    2  502    0  0.84196883369E+01 -0.71892381259E+02  0.14286091797E+04  0.14304417479E+04  0.00000000000E+00 0. -1.
         22    1    3    3    0    0 -0.19916202148E+02  0.11766548147E+03  0.83590176322E+03  0.84437762784E+03  0.00000000000E+00 0.  1.
         22    1    3    3    0    0 -0.20564406414E+02  0.28889371492E+02  0.40388530515E+02  0.53746851011E+02  0.00000000000E+00 0.  1.
</event>
<event>
 7    1  0.6597701E-006  0.8442507E+02  0.7818608E-02  0.1498203E+00
          2   -1    0    0  502    0  0.00000000000E+00  0.00000000000E+00  0.15496328807E+04  0.15496328807E+04  0.00000000000E+00 0. -1.
          1   -1    0    0  501    0 -0.00000000000E+00 -0.00000000000E+00 -0.13907324840E+02  0.13907324840E+02  0.00000000000E+00 0. -1.
         25    2    1    2    0    0  0.27864663198E+02  0.75471518205E+02  0.96764541119E+03  0.97899734794E+03  0.12500310380E+03 0.  0.
          2    1    1    2  501    0 -0.47728242959E+02 -0.71310019703E+02  0.22413028263E+03  0.23999476594E+03  0.00000000000E+00 0. -1.
          1    1    1    2  502    0  0.19863579761E+02 -0.41614985021E+01  0.34394986204E+03  0.34454809166E+03  0.00000000000E+00 0. -1.
         22    1    3    3    0    0  0.16999631912E+02 -0.46329356001E+01  0.15621201750E+02  0.23547261444E+02  0.00000000000E+00 0.  1.
         22    1    3    3    0    0  0.10865031286E+02  0.80104453805E+02  0.95202420944E+03  0.95545008650E+03  0.00000000000E+00 0.  1.
</event>
<event>
 7    1  0.6597701E-006  0.1326207E+03  0.7818608E-02  0.1261051E+00
          2   -1    0    0  502    0  0.00000000000E+00  0.00000000000E+00  0.18954524493E+03  0.18954524493E+03  0.00000000000E+00 0. -1.
          1   -1    0    0  501    0 -0.00000000000E+00 -0.00000000000E+00 -0.13826516989E+04  0.13826516989E+04  0.00000000000E+00 0. -1.
         25    2    1    2    0    0 -0.19751181585E+03 -0.92603937306E+02 -0.18517508591E+03  0.31225147071E+03  0.12499904765E+03 0.  0.
          2    1    1    2  501    0  0.11821224225E+03  0.48358813104E+02 -0.11134392660E+04  0.11207406962E+04  0.00000000000E+00 0. -1.
          1    1    1    2  502    0  0.79299573608E+02  0.44245124201E+02  0.10550789795E+03  0.13920477693E+03  0.00000000000E+00 0. -1.
         22    1    3    3    0    0 -0.14208050809E+03 -0.11424381050E+03 -0.98803488633E+02  0.20736597692E+03  0.00000000000E+00 0.  1.
         22    1    3    3    0    0 -0.55431307766E+02  0.21639873199E+02 -0.86371597273E+02  0.10488549379E+03  0.00000000000E+00 0.  1.
</event>
<event>
 7    1  0.6597701E-006  0.9045065E+02  0.7818608E-02  0.1457319E+00
          2   -1    0    0  502    0  0.00000000000E+00  0.00000000000E+00  0.17997456596E+04  0.17997456596E+04  0.00000000000E+00 0. -1.
          1   -1    0    0  501    0 -0.00000000000E+00 -0.00000000000E+00 -0.10644424161E+03  0.10644424161E+03  0.00000000000E+00 0. -1.
         25    2    1    2    0    0  0.30259650929E+02 -0.90721416058E+02  0.98697227755E+02  0.18577523764E+03  0.12500109738E+03 0.  0.
          2    1    1    2  501    0 -0.49688026264E+01  0.89758587079E+02 -0.30639395733E+02  0.94974025527E+02  0.00000000000E+00 0. -1.
          1    1    1    2  502    0 -0.25290848302E+02  0.96282897953E+00  0.16252435860E+04  0.16254406380E+04  0.00000000000E+00 0. -1.
         22    1    3    3    0    0  0.53700430781E+02 -0.84961762698E+02  0.11790198424E+03  0.15492938802E+03  0.00000000000E+00 0. -1.
         22    1    3    3    0    0 -0.23440779853E+02 -0.57596533606E+01 -0.19204756480E+02  0.30845849614E+02  0.00000000000E+00 0. -1.
</event>
<event>
 7    1  0.6597701E-006  0.7542938E+02  0.7818608E-02  0.1413492E+00
          2   -1    0    0  502    0  0.00000000000E+00  0.00000000000E+00  0.20230372987E+04  0.20230372987E+04  0.00000000000E+00 0. -1.
          1   -1    0    0  501    0 -0.00000000000E+00 -0.00000000000E+00 -0.36238664985E+03  0.36238664985E+03  0.00000000000E+00 0. -1.
         25    2    1    2    0    0 -0.35955022212E+02 -0.14800496347E+02  0.23649052579E+03  0.27030423489E+03  0.12499916919E+03 0.  0.
          2    1    1    2  501    0 -0.22793724858E+02 -0.35519272768E+02 -0.34334180338E+03  0.34592595535E+03  0.00000000000E+00 0. -1.
          1    1    1    2  502    0  0.58748747071E+02  0.50319769115E+02  0.17675019265E+04  0.17691937583E+04  0.00000000000E+00 0. -1.
         22    1    3    3    0    0  0.28390448333E+02 -0.39891971682E+02  0.44109385579E+02  0.65901630157E+02  0.00000000000E+00 0.  1.
         22    1    3    3    0    0 -0.64345470545E+02  0.25091475335E+02  0.19238114021E+03  0.20440260473E+03  0.00000000000E+00 0.  1.
</event>
<event>
 7    1  0.6597701E-006  0.1481038E+03  0.7818608E-02  0.1318485E+00
          2   -1    0    0  502    0  0.00000000000E+00  0.00000000000E+00  0.78046863399E+03  0.78046863399E+03  0.00000000000E+00 0. -1.
          1   -1    0    0  501    0 -0.00000000000E+00 -0.00000000000E+00 -0.18459733412E+04  0.18459733412E+04  0.00000000000E+00 0. -1.
         25    2    1    2    0    0 -0.84597178867E+02 -0.10345681961E+03 -0.55953737096E+02  0.19135425059E+03  0.12500252929E+03 0.  0.
          2    1    1    2  501    0  0.12584341353E+03  0.79969015266E+02 -0.17182970733E+04  0.17247540231E+04  0.00000000000E+00 0. -1.
          1    1    1    2  502    0 -0.41246234662E+02  0.23487804342E+02  0.70874610313E+03  0.71033370153E+03  0.00000000000E+00 0. -1.
         22    1    3    3    0    0 -0.19083790703E+02 -0.61811265004E+02 -0.86428693366E+02  0.10795713309E+03  0.00000000000E+00 0.  1.
         22    1    3    3    0    0 -0.65513388165E+02 -0.41645554605E+02  0.30474956270E+02  0.83397117497E+02  0.00000000000E+00 0.  1.
</event>
<event>
 7    1  0.6632112E-006  0.1100618E+03  0.7818608E-02  0.1377379E+00
          2   -1    0    0  502    0  0.00000000000E+00  0.00000000000E+00  0.12342378447E+04  0.12342378447E+04  0.00000000000E+00 0. -1.
          1   -1    0    0  501    0 -0.00000000000E+00 -0.00000000000E+00 -0.60237318631E+03  0.60237318631E+03  0.00000000000E+00 0. -1.
         25    2    1    2    0    0 -0.86962410472E+02  0.10969069843E+03 -0.30768319854E+03  0.36039828896E+03  0.12499386330E+03 0.  0.
          2    1    1    2  501    0  0.36649669620E+02 -0.12031749647E+02 -0.26443230288E+03  0.26723099388E+03  0.00000000000E+00 0. -1.
          1    1    1    2  502    0  0.50312740852E+02 -0.97658948785E+02  0.12039801598E+04  0.12089817482E+04  0.00000000000E+00 0. -1.
         22    1    3    3    0    0 -0.28114255698E+02 -0.26658296762E+02 -0.54352290872E+02  0.66747641776E+02  0.00000000000E+00 0.  1.
         22    1    3    3    0    0 -0.58848154774E+02  0.13634899519E+03 -0.25333090767E+03  0.29365064719E+03  0.00000000000E+00 0.  1.
</event>
<event>
 7    1  0.6597701E-006  0.4456504E+02  0.7818608E-02  0.1522713E+00
          2   -1    0    0  502    0  0.00000000000E+00  0.00000000000E+00  0.40409213509E+03  0.40409213509E+03  0.00000000000E+00 0. -1.
          1   -1    0    0  501    0 -0.00000000000E+00 -0.00000000000E+00 -0.31048803698E+03  0.31048803698E+03  0.00000000000E+00 0. -1.
         25    2    1    2    0    0  0.59224372660E+02 -0.31082468351E+02  0.26347868270E+03  0.29919799852E+03  0.12499911968E+03 0.  0.
          2    1    1    2  501    0 -0.32565108132E+02 -0.16932784882E-01 -0.28826869441E+03  0.29010226943E+03  0.00000000000E+00 0. -1.
          1    1    1    2  502    0 -0.26659264528E+02  0.31099401136E+02  0.11839410981E+03  0.12527990411E+03  0.00000000000E+00 0. -1.
         22    1    3    3    0    0  0.43605723429E+02  0.75506286705E+01  0.14224462077E+02  0.46484475155E+02  0.00000000000E+00 0. -1.
         22    1    3    3    0    0  0.15618649231E+02 -0.38633097021E+02  0.24925422063E+03  0.25271352336E+03  0.00000000000E+00 0. -1.
</event>
<event>
 7    1  0.6597701E-006  0.1047187E+03  0.7818608E-02  0.1271807E+00
          2   -1    0    0  502    0  0.00000000000E+00  0.00000000000E+00  0.56966364924E+03  0.56966364924E+03  0.00000000000E+00 0. -1.
          1   -1    0    0  501    0 -0.00000000000E+00 -0.00000000000E+00 -0.10434618132E+04  0.10434618132E+04  0.00000000000E+00 0. -1.
         25    2    1    2    0    0  0.11344800125E+03 -0.12621329436E+03 -0.16305222591E+03  0.26647911316E+03  0.12499937886E+03 0.  0.
          2    1    1    2  501    0 -0.12251338890E+02  0.10285342926E+03 -0.82019959860E+03  0.82671416146E+03  0.00000000000E+00 0. -1.
          1    1    1    2  502    0 -0.10119666236E+03  0.23359865095E+02  0.50945366051E+03  0.51993218787E+03  0.00000000000E+00 0. -1.
         22    1    3    3    0    0  0.13156664469E+02 -0.19161527138E+02 -0.10691563019E+03  0.10941304274E+03  0.00000000000E+00 0. -1.
         22    1    3    3    0    0  0.10029133678E+03 -0.10705176722E+03 -0.56136595716E+02  0.15706607041E+03  0.00000000000E+00 0. -1.
</event>
<event>
 7    1  0.6597701E-006  0.4506128E+02  0.7818608E-02  0.1514697E+00
          2   -1    0    0  502    0  0.00000000000E+00  0.00000000000E+00  0.22336965582E+03  0.22336965582E+03  0.00000000000E+00 0. -1.
          1   -1    0    0  501    0 -0.00000000000E+00 -0.00000000000E+00 -0.23287911703E+04  0.23287911703E+04  0.00000000000E+00 0. -1.
         25    2    1    2    0    0  0.71125896584E+02 -0.32602733704E+02 -0.11685215620E+03  0.18815336247E+03  0.12500171995E+03 0.  0.
          2    1    1    2  501    0 -0.42525113859E+02  0.14249195827E+02 -0.21745172764E+04  0.21749797264E+04  0.00000000000E+00 0. -1.
          1    1    1    2  502    0 -0.28600782724E+02  0.18353537878E+02  0.18594791821E+03  0.18902773715E+03  0.00000000000E+00 0. -1.
         22    1    3    3    0    0  0.39869404792E+02 -0.72168589908E+02 -0.10969479000E+03  0.13722544138E+03  0.00000000000E+00 0.  1.
         22    1    3    3    0    0  0.31256491792E+02  0.39565856204E+02 -0.71573661995E+01  0.50927921096E+02  0.00000000000E+00 0.  1.
</event>
<event>
 7    1  0.1142060E-005  0.5904412E+02  0.7818608E-02  0.1477309E+00
          2   -1    0    0  502    0  0.00000000000E+00  0.00000000000E+00  0.10906237969E+04  0.10906237969E+04  0.00000000000E+00 0. -1.
          1   -1    0    0  501    0 -0.00000000000E+00 -0.00000000000E+00 -0.17198129286E+04  0.17198129286E+04  0.00000000000E+00 0. -1.
         25    2    1    2    0    0  0.78026150153E+02  0.27671900146E+02 -0.29938370441E+03  0.33481975183E+03  0.12497939663E+03 0.  0.
          2    1    1    2  501    0 -0.19030633104E+02 -0.27667912503E+02 -0.14016989584E+04  0.14021011548E+04  0.00000000000E+00 0. -1.
          1    1    1    2  502    0 -0.58995517049E+02 -0.39876426801E-02  0.10718935312E+04  0.10735158188E+04  0.00000000000E+00 0. -1.
         22    1    3    3    0    0  0.10977231551E+03  0.17981396551E+02 -0.18646004322E+03  0.21711895263E+03  0.00000000000E+00 0. -1.
         22    1    3    3    0    0 -0.31746165357E+02  0.96905035944E+01 -0.11292366119E+03  0.11770079920E+03  0.00000000000E+00 0. -1.
</event>
<event>
 7    1  0.6597701E-006  0.1267817E+03  0.7818608E-02  0.1336895E+00
          2   -1    0    0  502    0  0.00000000000E+00  0.00000000000E+00  0.21514756156E+04  0.21514756156E+04  0.00000000000E+00 0. -1.
          1   -1    0    0  501    0 -0.00000000000E+00 -0.00000000000E+00 -0.45409141029E+02  0.45409141029E+02  0.00000000000E+00 0. -1.
         25    2    1    2    0    0 -0.11969430244E+03  0.11198822807E+03  0.50777266576E+03  0.54801930839E+03  0.12499597201E+03 0.  0.
          2    1    1    2  501    0  0.82198157492E+02 -0.83435684052E+02  0.11275237338E+03  0.16257659171E+03  0.00000000000E+00 0. -1.
          1    1    1    2  502    0  0.37496144948E+02 -0.28552544016E+02  0.14855414354E+04  0.14862888565E+04  0.00000000000E+00 0. -1.
         22    1    3    3    0    0 -0.10437978627E+03  0.36304143426E+02  0.40292282337E+03  0.41780370056E+03  0.00000000000E+00 0.  1.
         22    1    3    3    0    0 -0.15314516166E+02  0.75684084642E+02  0.10484984239E+03  0.13021560783E+03  0.00000000000E+00 0.  1.
</event>
<event>
 7    1  0.6597701E-006  0.1076584E+03  0.7818608E-02  0.1299229E+00
          2   -1    0    0  502    0  0.00000000000E+00  0.00000000000E+00  0.11384788537E+04  0.11384788537E+04  0.00000000000E+00 0. -1.
          1   -1    0    0  501    0 -0.00000000000E+00 -0.00000000000E+00 -0.14182376809E+03  0.14182376809E+03  0.00000000000E+00 0. -1.
         25    2    1    2    0    0  0.40960259317E+02  0.91603021591E+01  0.16756249083E+03  0.21322435376E+03  0.12500313086E+03 0.  0.
          2    1    1    2  501    0  0.67792608401E+02  0.38147396212E+02 -0.10210390845E+03  0.12835992253E+03  0.00000000000E+00 0. -1.
          1    1    1    2  502    0 -0.10875286772E+03 -0.47307698371E+02  0.93119650320E+03  0.93871834548E+03  0.00000000000E+00 0. -1.
         22    1    3    3    0    0  0.28827818347E+02  0.56581848653E+02  0.36330031852E+02  0.73160234568E+02  0.00000000000E+00 0.  1.
         22    1    3    3    0    0  0.12132440970E+02 -0.47421546494E+02  0.13123245898E+03  0.14006411920E+03  0.00000000000E+00 0.  1.
</event>
<event>
 7    1  0.6597701E-006  0.1786233E+03  0.7818608E-02  0.1182425E+00
          2   -1    0    0  502    0  0.00000000000E+00  0.00000000000E+00  0.38749718827E+04  0.38749718827E+04  0.00000000000E+00 0. -1.
          1   -1    0    0  501    0 -0.00000000000E+00 -0.00000000000E+00 -0.35811748697E+03  0.35811748697E+03  0.00000000000E+00 0. -1.
         25    2    1    2    0    0 -0.18975913571E+03 -0.26416963729E+03  0.40687677218E+03  0.53569419563E+03  0.12500174656E+03 0.  0.
          2    1    1    2  501    0  0.74267854231E+02  0.13454495739E+03 -0.27122478781E+03  0.31173858480E+03  0.00000000000E+00 0. -1.
          1    1    1    2  502    0  0.11549128148E+03  0.12962467989E+03  0.33812024113E+04  0.33856565892E+04  0.00000000000E+00 0. -1.
         22    1    3    3    0    0 -0.95938204597E+02 -0.52315913326E+02  0.81820475843E+02  0.13651257875E+03  0.00000000000E+00 0.  1.
         22    1    3    3    0    0 -0.93820931111E+02 -0.21185372396E+03  0.32505629634E+03  0.39918161689E+03  0.00000000000E+00 0.  1.
</event>
<event>
 7    1  0.6597701E-006  0.6594837E+02  0.7818608E-02  0.1450099E+00
          2   -1    0    0  502    0  0.00000000000E+00  0.00000000000E+00  0.87010921495E+03  0.87010921495E+03  0.00000000000E+00 0. -1.
          1   -1    0    0  501    0 -0.00000000000E+00 -0.00000000000E+00 -0.10126250977E+04  0.10126250977E+04  0.00000000000E+00 0. -1.
         25    2    1    2    0    0  0.78781584388E+02 -0.30963130838E+02  0.24429175193E+03  0.28717889302E+03  0.12501201153E+03 0.  0.
          2    1    1    2  501    0 -0.13879660813E+02  0.33864675498E+02 -0.98909621896E+03  0.98977310106E+03  0.00000000000E+00 0. -1.
          1    1    1    2  502    0 -0.64901923575E+02 -0.29015446594E+01  0.60228858432E+03  0.60578231854E+03  0.00000000000E+00 0. -1.
         22    1    3    3    0    0  0.68944987592E+02  0.39557088421E+02  0.13763250542E+03  0.15893672045E+03  0.00000000000E+00 0.  1.
         22    1    3    3    0    0  0.98365967962E+01 -0.70520219259E+02  0.10665924650E+03  0.12824217257E+03  0.00000000000E+00 0.  1.
</event>
<event>
 7    1  0.6597701E-006  0.1105184E+03  0.7818608E-02  0.1324620E+00
          2   -1    0    0  502    0  0.00000000000E+00  0.00000000000E+00  0.62139321235E+03  0.62139321235E+03  0.00000000000E+00 0. -1.
          1   -1    0    0  501    0 -0.00000000000E+00 -0.00000000000E+00 -0.90600182382E+03  0.90600182382E+03  0.00000000000E+00 0. -1.
         25    2    1    2    0    0 -0.83944755329E+02 -0.26072966042E+02  0.34893612899E+02  0.15674832526E+03  0.12500380693E+03 0.  0.
          2    1    1    2  501    0  0.72548053330E+02  0.85207071935E+02 -0.83962458929E+03  0.84704953579E+03  0.00000000000E+00 0. -1.
          1    1    1    2  502    0  0.11396702000E+02 -0.59134105893E+02  0.52012236492E+03  0.52359717511E+03  0.00000000000E+00 0. -1.
         22    1    3    3    0    0 -0.82659987973E+02 -0.53869958564E+02 -0.14825448623E+02  0.99771939814E+02  0.00000000000E+00 0.  1.
         22    1    3    3    0    0 -0.12847673567E+01  0.27796992522E+02  0.49719061522E+02  0.56976385451E+02  0.00000000000E+00 0.  1.
</event>
<event>
 7    1  0.6597701E-006  0.5970636E+02  0.7818608E-02  0.1504882E+00
          2   -1    0    0  502    0  0.00000000000E+00  0.00000000000E+00  0.42477432404E+03  0.42477432404E+03  0.00000000000E+00 0. -1.
          1   -1    0    0  501    0 -0.00000000000E+00 -0.00000000000E+00 -0.15058821295E+04  0.15058821295E+04  0.00000000000E+00 0. -1.
         25    2    1    2    0    0  0.51927470392E+02  0.52491870807E+02  0.48025461664E+02  0.15291561076E+03  0.12499952145E+03 0.  0.
          2    1    1    2  501    0 -0.27377839989E+02  0.13760216992E+01 -0.14506049771E+04  0.14508639630E+04  0.00000000000E+00 0. -1.
          1    1    1    2  502    0 -0.24549630403E+02 -0.53867892506E+02  0.32147170999E+03  0.32687687976E+03  0.00000000000E+00 0. -1.
         22    1    3    3    0    0  0.26422414603E+02  0.53108214244E+02 -0.33061783847E+02  0.67909557242E+02  0.00000000000E+00 0. -1.
         22    1    3    3    0    0  0.25505055789E+02 -0.61634343711E+00  0.81087245511E+02  0.85006053517E+02  0.00000000000E+00 0. -1.
</event>
<event>
 7    1  0.6597701E-006  0.4007673E+02  0.7818608E-02  0.1541438E+00
          2   -1    0    0  502    0  0.00000000000E+00  0.00000000000E+00  0.67518932699E+03  0.67518932699E+03  0.00000000000E+00 0. -1.
          1   -1    0    0  501    0 -0.00000000000E+00 -0.00000000000E+00 -0.16285286433E+02  0.16285286433E+02  0.00000000000E+00 0. -1.
         25    2    1    2    0    0  0.24639180371E+02 -0.11932900837E+02  0.36479834218E+03  0.38658759985E+03  0.12499063393E+03 0.  0.
          2    1    1    2  501    0 -0.47063700360E+02 -0.10916983740E+02  0.17260528171E+03  0.17923938099E+03  0.00000000000E+00 0. -1.
          1    1    1    2  502    0  0.22424519989E+02  0.22849884577E+02  0.12150041668E+03  0.12564763259E+03  0.00000000000E+00 0. -1.
         22    1    3    3    0    0 -0.10798510218E+02 -0.87867951372E+01 -0.52159990897E+01  0.14866816681E+02  0.00000000000E+00 0. -1.
         22    1    3    3    0    0  0.35437690589E+02 -0.31461056997E+01  0.37001434127E+03  0.37172078317E+03  0.00000000000E+00 0. -1.
</event>
<event>
 7    1  0.6597701E-006  0.4672029E+02  0.7818608E-02  0.1527261E+00
          2   -1    0    0  502    0  0.00000000000E+00  0.00000000000E+00  0.24075531010E+03  0.24075531010E+03  0.00000000000E+00 0. -1.
          1   -1    0    0  501    0 -0.00000000000E+00 -0.00000000000E+00 -0.14782401800E+04  0.14782401800E+04  0.00000000000E+00 0. -1.
         25    2    1    2    0    0  0.45830827736E+01 -0.66601360689E+02 -0.25268991306E+03  0.28971212064E+03  0.12499669913E+03 0.  0.
          2    1    1    2  501    0 -0.21005656380E+02  0.41329936578E+02 -0.12055697642E+04  0.12064608811E+04  0.00000000000E+00 0. -1.
          1    1    1    2  502    0  0.16422573607E+02  0.25271424112E+02  0.22077480731E+03  0.22282248842E+03  0.00000000000E+00 0. -1.
         22    1    3    3    0    0 -0.43904821938E+02 -0.11665770159E+02 -0.27970965112E+02  0.53348837589E+02  0.00000000000E+00 0.  1.
         22    1    3    3    0    0  0.48487904711E+02 -0.54935590530E+02 -0.22471894794E+03  0.23636328305E+03  0.00000000000E+00 0.  1.
</event>
<event>
 7    1  0.6597701E-006  0.2932751E+02  0.7818608E-02  0.1614819E+00
          2   -1    0    0  502    0  0.00000000000E+00  0.00000000000E+00  0.10839278988E+03  0.10839278988E+03  0.00000000000E+00 0. -1.
          1   -1    0    0  501    0 -0.00000000000E+00 -0.00000000000E+00 -0.19681924322E+03  0.19681924322E+03  0.00000000000E+00 0. -1.
         25    2    1    2    0    0  0.82942079280E+01 -0.98108939738E+01  0.16894452536E+02  0.12678982914E+03  0.12500076289E+03 0.  0.
          2    1    1    2  501    0  0.20086963938E+02  0.21368595525E+02 -0.13356522820E+03  0.13674711397E+03  0.00000000000E+00 0. -1.
          1    1    1    2  502    0 -0.28381171866E+02 -0.11557701552E+02  0.28244322320E+02  0.41675089982E+02  0.00000000000E+00 0. -1.
         22    1    3    3    0    0 -0.31188783796E+02  0.42627665589E+02  0.28674171324E+02  0.60100467630E+02  0.00000000000E+00 0.  1.
         22    1    3    3    0    0  0.39482991724E+02 -0.52438559563E+02 -0.11779718788E+02  0.66689361515E+02  0.00000000000E+00 0.  1.
</event>
<event>
 7    1  0.6597701E-006  0.5211297E+02  0.7818608E-02  0.1544218E+00
          2   -1    0    0  502    0  0.00000000000E+00  0.00000000000E+00  0.86723708260E+03  0.86723708260E+03  0.00000000000E+00 0. -1.
          1   -1    0    0  501    0 -0.00000000000E+00 -0.00000000000E+00 -0.16816150986E+03  0.16816150986E+03  0.00000000000E+00 0. -1.
         25    2    1    2    0    0  0.65735679295E+02  0.12299806005E+02  0.29000611355E+02  0.14469938935E+03  0.12499765222E+03 0.  0.
          2    1    1    2  501    0 -0.20379156574E+02  0.13015761931E+02 -0.10811066240E+03  0.11078192725E+03  0.00000000000E+00 0. -1.
          1    1    1    2  502    0 -0.45356522721E+02 -0.25315567936E+02  0.77818562378E+03  0.77991727586E+03  0.00000000000E+00 0. -1.
         22    1    3    3    0    0  0.22879335163E+02  0.67419426943E+02  0.22060409429E+02  0.74535258576E+02  0.00000000000E+00 0. -1.
         22    1    3    3    0    0  0.42856344132E+02 -0.55119620938E+02  0.69402019258E+01  0.70164130775E+02  0.00000000000E+00 0. -1.
</event>
<event>
 7    1  0.6597701E-006  0.5556304E+02  0.7818608E-02  0.1471326E+00
          2   -1    0    0  502    0  0.00000000000E+00  0.00000000000E+00  0.11229555066E+04  0.11229555066E+04  0.00000000000E+00 0. -1.
          1   -1    0    0  501    0 -0.00000000000E+00 -0.00000000000E+00 -0.10882976846E+03  0.10882976846E+03  0.00000000000E+00 0. -1.
         25    2    1    2    0    0  0.13400555344E+02 -0.41780466719E+02  0.10196560766E+03  0.16717442793E+03  0.12500048770E+03 0.  0.
          2    1    1    2  501    0  0.34847761518E+02  0.13125800285E+02 -0.70829014917E+02  0.80021262612E+02  0.00000000000E+00 0. -1.
          1    1    1    2  502    0 -0.48248316862E+02  0.28654666435E+02  0.98298914539E+03  0.98458958452E+03  0.00000000000E+00 0. -1.
         22    1    3    3    0    0  0.68889538097E+02 -0.13945121049E+02  0.50716576499E+02  0.86674136812E+02  0.00000000000E+00 0.  1.
         22    1    3    3    0    0 -0.55488982752E+02 -0.27835345670E+02  0.51249031162E+02  0.80500291120E+02  0.00000000000E+00 0.  1.
</event>
<event>
 7    1  0.6597701E-006  0.2939709E+03  0.7818608E-02  0.1281380E+00
          2   -1    0    0  502    0  0.00000000000E+00  0.00000000000E+00  0.22197524834E+04  0.22197524834E+04  0.00000000000E+00 0. -1.
          1   -1    0    0  501    0 -0.00000000000E+00 -0.00000000000E+00 -0.14024260632E+03  0.14024260632E+03  0.00000000000E+00 0. -1.
         25    2    1    2    0    0  0.14180628075E+03 -0.23559385761E+03  0.37509398301E+03  0.48159487574E+03  0.12499856499E+03 0.  0.
          2    1    1    2  501    0 -0.14593094102E+03  0.26900866427E+03  0.18293805928E+03  0.35654990469E+03  0.00000000000E+00 0. -1.
          1    1    1    2  502    0  0.41246602750E+01 -0.33414806663E+02  0.15214778348E+04  0.15218503093E+04  0.00000000000E+00 0. -1.
         22    1    3    3    0    0  0.10033510754E+03 -0.22085707576E+03  0.24720920682E+03  0.34634863022E+03  0.00000000000E+00 0. -1.
         22    1    3    3    0    0  0.41471173202E+02 -0.14736781845E+02  0.12788477620E+03  0.13524624553E+03  0.00000000000E+00 0. -1.
</event>
<event>
 7    1  0.6597701E-006  0.1296475E+03  0.7818608E-02  0.1361716E+00
          2   -1    0    0  502    0  0.00000000000E+00  0.00000000000E+00  0.92284433598E+03  0.92284433598E+03  0.00000000000E+00 0. -1.
          1   -1    0    0  501    0 -0.00000000000E+00 -0.00000000000E+00 -0.57125448159E+03  0.57125448159E+03  0.00000000000E+00 0. -1.
         25    2    1    2    0    0 -0.12044989568E+03  0.17371484853E+02  0.24507404411E+03  0.30082682155E+03  0.12500217441E+03 0.  0.
          2    1    1    2  501    0 -0.28836431487E+00  0.37282517975E+02 -0.53596695205E+03  0.53726217343E+03  0.00000000000E+00 0. -1.
          1    1    1    2  502    0  0.12073826000E+03 -0.54654002828E+02  0.64248276233E+03  0.65600982259E+03  0.00000000000E+00 0. -1.
         22    1    3    3    0    0 -0.10589992169E+03  0.62963636783E+02  0.20106707880E+03  0.23581175363E+03  0.00000000000E+00 0. -1.
         22    1    3    3    0    0 -0.14549973993E+02 -0.45592151930E+02  0.44006965313E+02  0.65015067922E+02  0.00000000000E+00 0. -1.
</event>
<event>
 7    1  0.6597701E-006  0.5431770E+02  0.7818608E-02  0.1492337E+00
          2   -1    0    0  502    0  0.00000000000E+00  0.00000000000E+00  0.79509591309E+03  0.79509591309E+03  0.00000000000E+00 0. -1.
          1   -1    0    0  501    0 -0.00000000000E+00 -0.00000000000E+00 -0.18176309417E+03  0.18176309417E+03  0.00000000000E+00 0. -1.
         25    2    1    2    0    0  0.64428502314E+02  0.52409254340E+02  0.18645057022E+03  0.23934667228E+03  0.12500101017E+03 0.  0.
          2    1    1    2  501    0 -0.33186378349E+02 -0.42258417502E+02 -0.15018672368E+03  0.15950912678E+03  0.00000000000E+00 0. -1.
          1    1    1    2  502    0 -0.31242123965E+02 -0.10150836838E+02  0.57706897238E+03  0.57800320819E+03  0.00000000000E+00 0. -1.
         22    1    3    3    0    0 -0.10073698317E+02  0.44561951322E+02  0.87722018001E+01  0.46520946120E+02  0.00000000000E+00 0. -1.
         22    1    3    3    0    0  0.74502200631E+02  0.78473030173E+01  0.17767836842E+03  0.19282572616E+03  0.00000000000E+00 0. -1.
</event>
<event>
 7    1  0.1339687E-005  0.8758573E+02  0.7818608E-02  0.1376790E+00
          2   -1    0    0  502    0  0.00000000000E+00  0.00000000000E+00  0.10922828489E+04  0.10922828489E+04  0.00000000000E+00 0. -1.
          1   -1    0    0  501    0 -0.00000000000E+00 -0.00000000000E+00 -0.19859465525E+04  0.19859465525E+04  0.00000000000E+00 0. -1.
         25    2    1    2    0    0  0.38156082212E+02 -0.13102623258E+02 -0.18387033407E+03  0.22596723428E+03  0.12500130349E+03 0.  0.
          2    1    1    2  501    0  0.39111127524E+02 -0.29029500832E+02 -0.17788862854E+04  0.17795529800E+04  0.00000000000E+00 0. -1.
          1    1    1    2  502    0 -0.77267209736E+02  0.42132124090E+02  0.10690929158E+04  0.10727091872E+04  0.00000000000E+00 0. -1.
         22    1    3    3    0    0  0.37621801477E+02 -0.84115918297E+01  0.33420983119E+01  0.38695276774E+02  0.00000000000E+00 0. -1.
         22    1    3    3    0    0  0.53428073495E+00 -0.46910314281E+01 -0.18721243238E+03  0.18727195751E+03  0.00000000000E+00 0. -1.
</event>
<event>
 7    1  0.6597701E-006  0.1780537E+03  0.7818608E-02  0.1313516E+00
          2   -1    0    0  502    0  0.00000000000E+00  0.00000000000E+00  0.70741149909E+03  0.70741149909E+03  0.00000000000E+00 0. -1.
          1   -1    0    0  501    0 -0.00000000000E+00 -0.00000000000E+00 -0.25528237403E+03  0.25528237403E+03  0.00000000000E+00 0. -1.
         25    2    1    2    0    0  0.53297557121E+02 -0.19523531796E+03  0.23514203953E+03  0.33447599489E+03  0.12499981370E+03 0.  0.
          2    1    1    2  501    0 -0.73271156121E+02  0.15910393521E+03 -0.16700109067E+03  0.24201671183E+03  0.00000000000E+00 0. -1.
          1    1    1    2  502    0  0.19973599000E+02  0.36131382747E+02  0.38398817619E+03  0.38620116640E+03  0.00000000000E+00 0. -1.
         22    1    3    3    0    0 -0.34735286590E+01  0.12627183174E+02  0.45783942874E+02  0.47620169901E+02  0.00000000000E+00 0.  1.
         22    1    3    3    0    0  0.56771085780E+02 -0.20786250113E+03  0.18935809666E+03  0.28685582498E+03  0.00000000000E+00 0.  1.
</event>
<event>
 7    1  0.6597701E-006  0.1756643E+03  0.7818608E-02  0.1212559E+00
          2   -1    0    0  502    0  0.00000000000E+00  0.00000000000E+00  0.98116092233E+03  0.98116092233E+03  0.00000000000E+00 0. -1.
          1   -1    0    0  501    0 -0.00000000000E+00 -0.00000000000E+00 -0.12468784041E+04  0.12468784041E+04  0.00000000000E+00 0. -1.
         25    2    1    2    0    0 -0.29002496901E+02 -0.12536812051E+03 -0.18052332578E+03  0.25450228827E+03  0.12499773244E+03 0.  0.
          2    1    1    2  501    0 -0.11147308003E+03  0.15114388552E+02 -0.10177951493E+04  0.10239929971E+04  0.00000000000E+00 0. -1.
          1    1    1    2  502    0  0.14047557693E+03  0.11025373195E+03  0.93260099330E+03  0.94954404101E+03  0.00000000000E+00 0. -1.
         22    1    3    3    0    0 -0.59943995249E+02 -0.11694253343E+03 -0.92177698848E+02  0.16051656256E+03  0.00000000000E+00 0. -1.
         22    1    3    3    0    0  0.30941498347E+02 -0.84255870736E+01 -0.88345626935E+02  0.93985725704E+02  0.00000000000E+00 0. -1.
</event>
<event>
 7    1  0.6597701E-006  0.7163077E+02  0.7818608E-02  0.1428419E+00
          2   -1    0    0  502    0  0.00000000000E+00  0.00000000000E+00  0.72232629865E+03  0.72232629865E+03  0.00000000000E+00 0. -1.
          1   -1    0    0  501    0 -0.00000000000E+00 -0.00000000000E+00 -0.23255996169E+04  0.23255996169E+04  0.00000000000E+00 0. -1.
         25    2    1    2    0    0  0.10490749953E+03 -0.26475570815E+02 -0.12634005200E+03  0.20806991440E+03  0.12499896491E+03 0.  0.
          2    1    1    2  501    0 -0.39580909336E+02 -0.19403417992E+01 -0.21563502654E+04  0.21567143716E+04  0.00000000000E+00 0. -1.
          1    1    1    2  502    0 -0.65326590199E+02  0.28415912615E+02  0.67941699911E+03  0.68314162965E+03  0.00000000000E+00 0. -1.
         22    1    3    3    0    0  0.24710302475E+02 -0.16572154298E+02  0.23443700163E+02  0.37879313930E+02  0.00000000000E+00 0.  1.
         22    1    3    3    0    0  0.80197197060E+02 -0.99034165178E+01 -0.14978375216E+03  0.17019060047E+03  0.00000000000E+00 0.  1.
</event>
<event>
 7    1  0.6597701E-006  0.5955082E+02  0.7818608E-02  0.1457566E+00
          2   -1    0    0  502    0  0.00000000000E+00  0.00000000000E+00  0.84592227606E+03  0.84592227606E+03  0.00000000000E+00 0. -1.
          1   -1    0    0  501    0 -0.00000000000E+00 -0.00000000000E+00 -0.48126968175E+03  0.48126968175E+03  0.00000000000E+00 0. -1.
         25    2    1    2    0    0  0.22177237411E+02  0.94931864617E+02  0.13674836216E+03  0.20935394397E+03  0.12500028209E+03 0.  0.
          2    1    1    2  501    0 -0.13890973903E+02 -0.57464729602E+02 -0.44245207058E+03  0.44638435128E+03  0.00000000000E+00 0. -1.
          1    1    1    2  502    0 -0.82862635082E+01 -0.37467135015E+02  0.67035630273E+03  0.67145366257E+03  0.00000000000E+00 0. -1.
         22    1    3    3    0    0 -0.39586351009E+01 -0.24719639868E+02 -0.97269570108E+00  0.25053493249E+02  0.00000000000E+00 0. -1.
         22    1    3    3    0    0  0.26135872512E+02  0.11965150448E+03  0.13772105786E+03  0.18430045072E+03  0.00000000000E+00 0. -1.
</event>
<event>
 7    1  0.6597701E-006  0.7809069E+02  0.7818608E-02  0.1454055E+00
          2   -1    0    0  502    0  0.00000000000E+00  0.00000000000E+00  0.24341772934E+03  0.24341772934E+03  0.00000000000E+00 0. -1.
          1   -1    0    0  501    0 -0.00000000000E+00 -0.00000000000E+00 -0.21080906931E+03  0.21080906931E+03  0.00000000000E+00 0. -1.
         25    2    1    2    0    0 -0.15713273031E+02  0.56399926637E+02  0.18001084851E+03  0.22683695488E+03  0.12499295918E+03 0.  0.
          2    1    1    2  501    0 -0.41163422814E+01 -0.78942080692E+02 -0.17153317003E+03  0.18887145046E+03  0.00000000000E+00 0. -1.
          1    1    1    2  502    0  0.19829615312E+02  0.22542154055E+02  0.24130981547E+02  0.38518393311E+02  0.00000000000E+00 0. -1.
         22    1    3    3    0    0 -0.55436806173E+02  0.37945013159E+02  0.35804094349E+02  0.76124875529E+02  0.00000000000E+00 0. -1.
         22    1    3    3    0    0  0.39723533142E+02  0.18454913478E+02  0.14420675416E+03  0.15071207935E+03  0.00000000000E+00 0. -1.
</event>
<event>
 7    1  0.6597701E-006  0.1581944E+03  0.7818608E-02  0.1209889E+00
          2   -1    0    0  502    0  0.00000000000E+00  0.00000000000E+00  0.63213498929E+03  0.63213498929E+03  0.00000000000E+00 0. -1.
          1   -1    0    0  501    0 -0.00000000000E+00 -0.00000000000E+00 -0.38924950587E+04  0.38924950587E+04  0.00000000000E+00 0. -1.
         25    2    1    2    0    0  0.60884492045E+02 -0.15268374696E+03 -0.17319406368E+04  0.17442069187E+04  0.12498063050E+03 0.  0.
          2    1    1    2  501    0 -0.15845030124E+03  0.69027138756E+02 -0.21443110280E+04  0.21512649834E+04  0.00000000000E+00 0. -1.
          1    1    1    2  502    0  0.97565809190E+02  0.83656608202E+02  0.61589159541E+03  0.62915814587E+03  0.00000000000E+00 0. -1.
         22    1    3    3    0    0  0.63782600585E+02 -0.14852953861E+03 -0.10606223309E+04  0.10728695041E+04  0.00000000000E+00 0.  1.
         22    1    3    3    0    0 -0.28981085398E+01 -0.41542083501E+01 -0.67131830586E+03  0.67133741462E+03  0.00000000000E+00 0.  1.
</event>
<event>
 7    1  0.6597701E-006  0.4032377E+02  0.7818608E-02  0.1518379E+00
          2   -1    0    0  502    0  0.00000000000E+00  0.00000000000E+00  0.40899515807E+03  0.40899515807E+03  0.00000000000E+00 0. -1.
          1   -1    0    0  501    0 -0.00000000000E+00 -0.00000000000E+00 -0.97176755521E+03  0.97176755521E+03  0.00000000000E+00 0. -1.
         25    2    1    2    0    0  0.48355969373E+02 -0.22059846146E+02  0.13938673415E+02  0.13653762084E+03  0.12499319463E+03 0.  0.
          2    1    1    2  501    0 -0.10327592050E+02  0.35579261556E+02 -0.90886916737E+03  0.90962393680E+03  0.00000000000E+00 0. -1.
          1    1    1    2  502    0 -0.38028377322E+02 -0.13519415410E+02  0.33215809681E+03  0.33460115563E+03  0.00000000000E+00 0. -1.
         22    1    3    3    0    0 -0.39180103020E+02  0.12325091971E+02  0.10657520323E+02  0.42433136865E+02  0.00000000000E+00 0.  1.
         22    1    3    3    0    0  0.87536072393E+02 -0.34384938117E+02  0.32811530925E+01  0.94104483979E+02  0.00000000000E+00 0.  1.
</event>
<event>
 7    1  0.6597701E-006  0.6624700E+02  0.7818608E-02  0.1494921E+00
          2   -1    0    0  502    0  0.00000000000E+00  0.00000000000E+00  0.41069048076E+03  0.41069048076E+03  0.00000000000E+00 0. -1.
          1   -1    0    0  501    0 -0.00000000000E+00 -0.00000000000E+00 -0.15576476954E+03  0.15576476954E+03  0.00000000000E+00 0. -1.
         25    2    1    2    0    0 -0.51647588876E+02  0.73557517805E+02  0.13079193910E+03  0.20201434755E+03  0.12500033369E+03 0.  0.
          2    1    1    2  501    0  0.30807364721E+02 -0.57259656958E+02 -0.11055900022E+03  0.12826166445E+03  0.00000000000E+00 0. -1.
          1    1    1    2  502    0  0.20840224155E+02 -0.16297860847E+02  0.23469277234E+03  0.23617923829E+03  0.00000000000E+00 0. -1.
         22    1    3    3    0    0 -0.42898108831E+02  0.73840535643E+02  0.15461661021E+03  0.17663229772E+03  0.00000000000E+00 0. -1.
         22    1    3    3    0    0 -0.87494800450E+01 -0.28301783767E+00 -0.23824671112E+02  0.25382049833E+02  0.00000000000E+00 0. -1.
</event>
<event>
 7    1  0.6597701E-006  0.1319416E+03  0.7818608E-02  0.1292180E+00
          2   -1    0    0  502    0  0.00000000000E+00  0.00000000000E+00  0.17271803955E+04  0.17271803955E+04  0.00000000000E+00 0. -1.
          1   -1    0    0  501    0 -0.00000000000E+00 -0.00000000000E+00 -0.12599977815E+04  0.12599977815E+04  0.00000000000E+00 0. -1.
         25    2    1    2    0    0  0.93013410035E+02  0.21419239021E+02 -0.28320466170E+02  0.15980313473E+03  0.12499885927E+03 0.  0.
          2    1    1    2  501    0 -0.10147936398E+03 -0.88651667226E+02 -0.11613478327E+04  0.11691389857E+04  0.00000000000E+00 0. -1.
          1    1    1    2  502    0  0.84659539435E+01  0.67232428205E+02  0.16568509129E+04  0.16582360566E+04  0.00000000000E+00 0. -1.
         22    1    3    3    0    0  0.73633997910E+02 -0.42987300906E+02 -0.35095271184E+02  0.92203859718E+02  0.00000000000E+00 0. -1.
         22    1    3    3    0    0  0.19379412125E+02  0.64406539926E+02  0.67748050142E+01  0.67599275015E+02  0.00000000000E+00 0. -1.
</event>
<event>
 7    1  0.6597701E-006  0.5280695E+02  0.7818608E-02  0.1437106E+00
          2   -1    0    0  502    0  0.00000000000E+00  0.00000000000E+00  0.57668600772E+03  0.57668600772E+03  0.00000000000E+00 0. -1.
          1   -1    0    0  501    0 -0.00000000000E+00 -0.00000000000E+00 -0.28222081836E+04  0.28222081836E+04  0.00000000000E+00 0. -1.
         25    2    1    2    0    0 -0.34864801735E+02 -0.90725577873E+01 -0.49580457594E+03  0.51258647041E+03  0.12499938566E+03 0.  0.
          2    1    1    2  501    0  0.10556871463E+02  0.53157001697E+02 -0.23165802393E+04  0.23172140858E+04  0.00000000000E+00 0. -1.
          1    1    1    2  502    0  0.24307930273E+02 -0.44084443909E+02  0.56686263933E+03  0.56909363512E+03  0.00000000000E+00 0. -1.
         22    1    3    3    0    0  0.45703392095E+02 -0.17584089450E+02 -0.17707316871E+03  0.18371964328E+03  0.00000000000E+00 0.  1.
         22    1    3    3    0    0 -0.80568193830E+02  0.85115316629E+01 -0.31873140723E+03  0.32886682712E+03  0.00000000000E+00 0.  1.
</event>
<event>
 7    1  0.6597701E-006  0.2157408E+03  0.7818608E-02  0.1274129E+00
          2   -1    0    0  502    0  0.00000000000E+00  0.00000000000E+00  0.30562218776E+04  0.30562218776E+04  0.00000000000E+00 0. -1.
          1   -1    0    0  501    0 -0.00000000000E+00 -0.00000000000E+00 -0.71250315756E+03  0.71250315756E+03  0.00000000000E+00 0. -1.
         25    2    1    2    0    0  0.11221854672E+03  0.17215558258E+03  0.18945711988E+03  0.30618576036E+03  0.12500069092E+03 0.  0.
          2    1    1    2  501    0 -0.74467337498E+02 -0.20365429752E+03 -0.63594594664E+03  0.67189858186E+03  0.00000000000E+00 0. -1.
          1    1    1    2  502    0 -0.37751209224E+02  0.31498714938E+02  0.27902075468E+04  0.27906406929E+04  0.00000000000E+00 0. -1.
         22    1    3    3    0    0  0.29398073504E+02  0.21128775416E+02 -0.14700561791E+02  0.39074011738E+02  0.00000000000E+00 0.  1.
         22    1    3    3    0    0  0.82820473218E+02  0.15102680717E+03  0.20415768167E+03  0.26711174862E+03  0.00000000000E+00 0.  1.
</event>
<event>
 7    1  0.6597701E-006  0.2257202E+03  0.7818608E-02  0.1306178E+00
          2   -1    0    0  502    0  0.00000000000E+00  0.00000000000E+00  0.57349701000E+03  0.57349701000E+03  0.00000000000E+00 0. -1.
          1   -1    0    0  501    0 -0.00000000000E+00 -0.00000000000E+00 -0.27314279901E+03  0.27314279901E+03  0.00000000000E+00 0. -1.
         25    2    1    2    0    0  0.17600652586E+03  0.16673805001E+03  0.31844380964E+03  0.41929893811E+03  0.12500106052E+03 0.  0.
          2    1    1    2  501    0 -0.14171304833E+03 -0.17270723343E+03 -0.16412538033E+03  0.27721384708E+03  0.00000000000E+00 0. -1.
          1    1    1    2  502    0 -0.34293477532E+02  0.59691834123E+01  0.14603578168E+03  0.15012702383E+03  0.00000000000E+00 0. -1.
         22    1    3    3    0    0  0.10105186181E+03  0.17997413832E+02  0.15527568818E+03  0.18613415865E+03  0.00000000000E+00 0. -1.
         22    1    3    3    0    0  0.74954664053E+02  0.14874063618E+03  0.16316812147E+03  0.23316477945E+03  0.00000000000E+00 0. -1.
</event>
<event>
 7    1  0.6597701E-006  0.7121577E+02  0.7818608E-02  0.1424258E+00
          2   -1    0    0  502    0  0.00000000000E+00  0.00000000000E+00  0.12705373844E+04  0.12705373844E+04  0.00000000000E+00 0. -1.
          1   -1    0    0  501    0 -0.00000000000E+00 -0.00000000000E+00 -0.84596803844E+03  0.84596803844E+03  0.00000000000E+00 0. -1.
         25    2    1    2    0    0  0.10819366821E+03 -0.23344197707E+02  0.63013530652E+03  0.65187964405E+03  0.12500297758E+03 0.  0.
          2    1    1    2  501    0 -0.67051945747E+02  0.23722153051E+02 -0.83290637478E+03  0.83593763710E+03  0.00000000000E+00 0. -1.
          1    1    1    2  502    0 -0.41141722460E+02 -0.37795534411E+00  0.62734041419E+03  0.62868814165E+03  0.00000000000E+00 0. -1.
         22    1    3    3    0    0  0.16336965080E+01 -0.52200489101E+02  0.27734296088E+03  0.28221743032E+03  0.00000000000E+00 0. -1.
         22    1    3    3    0    0  0.10655997170E+03  0.28856291395E+02  0.35279234564E+03  0.36966221373E+03  0.00000000000E+00 0. -1.
</event>
<event>
 7    1  0.6597701E-006  0.1216002E+03  0.7818608E-02  0.1363511E+00
          2   -1    0    0  502    0  0.00000000000E+00  0.00000000000E+00  0.29899094344E+04  0.29899094344E+04  0.00000000000E+00 0. -1.
          1   -1    0    0  501    0 -0.00000000000E+00 -0.00000000000E+00 -0.86091603119E+02  0.86091603119E+02  0.00000000000E+00 0. -1.
         25    2    1    2    0    0 -0.11136195262E+03 -0.86540533240E+02  0.10821572440E+04  0.10984444023E+04  0.12500022382E+03 0.  0.
          2    1    1    2  501    0  0.11128657146E+03  0.47382400909E+02 -0.30694578307E+02  0.12478761974E+03  0.00000000000E+00 0. -1.
          1    1    1    2  502    0  0.75381163610E-01  0.39158132332E+02  0.18523551657E+04  0.18527690155E+04  0.00000000000E+00 0. -1.
         22    1    3    3    0    0 -0.24269757207E+02  0.30986668086E+01  0.59525410689E+03  0.59575672436E+03  0.00000000000E+00 0. -1.
         22    1    3    3    0    0 -0.87092195413E+02 -0.89639200049E+02  0.48690313706E+03  0.50268767795E+03  0.00000000000E+00 0. -1.
</event>
<event>
 7    1  0.6597701E-006  0.1748187E+03  0.7818608E-02  0.1339102E+00
          2   -1    0    0  502    0  0.00000000000E+00  0.00000000000E+00  0.33569871683E+03  0.33569871683E+03  0.00000000000E+00 0. -1.
          1   -1    0    0  501    0 -0.00000000000E+00 -0.00000000000E+00 -0.15742018348E+04  0.15742018348E+04  0.00000000000E+00 0. -1.
         25    2    1    2    0    0  0.43594285275E+02  0.17079963841E+03  0.33619858788E+02  0.21870820511E+03  0.12502002195E+03 0.  0.
          2    1    1    2  501    0  0.31153407246E+02 -0.12399076049E+02 -0.14448266656E+04  0.14452156813E+04  0.00000000000E+00 0. -1.
          1    1    1    2  502    0 -0.74747692521E+02 -0.15840056237E+03  0.17270368883E+03  0.24597666522E+03  0.00000000000E+00 0. -1.
         22    1    3    3    0    0 -0.43281175944E+02  0.39472722666E+02  0.66546830881E+01  0.58954565834E+02  0.00000000000E+00 0.  1.
         22    1    3    3    0    0  0.86875461219E+02  0.13132691575E+03  0.26965175700E+02  0.15975363928E+03  0.00000000000E+00 0.  1.
</event>
<event>
 7    1  0.6597701E-006  0.4740878E+02  0.7818608E-02  0.1529049E+00
          2   -1    0    0  502    0  0.00000000000E+00  0.00000000000E+00  0.15249787404E+04  0.15249787404E+04  0.00000000000E+00 0. -1.
          1   -1    0    0  501    0 -0.00000000000E+00 -0.00000000000E+00 -0.36256036489E+03  0.36256036489E+03  0.00000000000E+00 0. -1.
         25    2    1    2    0    0  0.36223611000E+02  0.58422331865E+01  0.17467666411E+03  0.21791037723E+03  0.12500685515E+03 0.  0.
          2    1    1    2  501    0 -0.36687475460E+01  0.29121685385E+02 -0.33988135291E+03  0.34114640014E+03  0.00000000000E+00 0. -1.
          1    1    1    2  502    0 -0.32554863454E+02 -0.34963918572E+02  0.13276230643E+04  0.13284823279E+04  0.00000000000E+00 0. -1.
         22    1    3    3    0    0  0.72468627687E+02 -0.23344735510E+02  0.14175311067E+03  0.16090563402E+03  0.00000000000E+00 0.  1.
         22    1    3    3    0    0 -0.36245016687E+02  0.29186968696E+02  0.32923553440E+02  0.57004743201E+02  0.00000000000E+00 0.  1.
</event>
<event>
 7    1  0.6597701E-006  0.7019915E+02  0.7818608E-02  0.1393540E+00
          2   -1    0    0  502    0  0.00000000000E+00  0.00000000000E+00  0.32709531485E+04  0.32709531485E+04  0.00000000000E+00 0. -1.
          1   -1    0    0  501    0 -0.00000000000E+00 -0.00000000000E+00 -0.62099320967E+01  0.62099320967E+01  0.00000000000E+00 0. -1.
         25    2    1    2    0    0  0.40193215938E+01 -0.27145754427E+01  0.13225828280E+04  0.13284854112E+04  0.12499850866E+03 0.  0.
          2    1    1    2  501    0 -0.70504632772E+02  0.25245091598E+02  0.59573538968E+03  0.60042391059E+03  0.00000000000E+00 0. -1.
          1    1    1    2  502    0  0.66485311178E+02 -0.22530516156E+02  0.13464249987E+04  0.13482537588E+04  0.00000000000E+00 0. -1.
         22    1    3    3    0    0 -0.48457374602E+01  0.36657996012E+02  0.12833478375E+03  0.13355563097E+03  0.00000000000E+00 0.  1.
         22    1    3    3    0    0  0.88650590540E+01 -0.39372571455E+02  0.11942480442E+04  0.11949297803E+04  0.00000000000E+00 0.  1.
</event>
<event>
 7    1  0.6597701E-006  0.1221050E+03  0.7818608E-02  0.1260421E+00
          2   -1    0    0  502    0  0.00000000000E+00  0.00000000000E+00  0.18030395307E+03  0.18030395307E+03  0.00000000000E+00 0. -1.
          1   -1    0    0  501    0 -0.00000000000E+00 -0.00000000000E+00 -0.34905553705E+03  0.34905553705E+03  0.00000000000E+00 0. -1.
         25    2    1    2    0    0  0.13402012069E+03  0.12668541118E+03 -0.61628159625E+02  0.23116008978E+03  0.12500548346E+03 0.  0.
          2    1    1    2  501    0 -0.28992103186E+02 -0.94911094889E+02 -0.15044448555E+03  0.18022819206E+03  0.00000000000E+00 0. -1.
          1    1    1    2  502    0 -0.10502801751E+03 -0.31774316291E+02  0.43321061208E+02  0.11797120827E+03  0.00000000000E+00 0. -1.
         22    1    3    3    0    0 -0.19111057129E+02  0.45488957667E+02 -0.10436758422E+02  0.50432169303E+02  0.00000000000E+00 0. -1.
         22    1    3    3    0    0  0.15313117782E+03  0.81196453514E+02 -0.51191401203E+02  0.18072792048E+03  0.00000000000E+00 0. -1.
</event>
<event>
 7    1  0.6597701E-006  0.9101944E+02  0.7818608E-02  0.1411461E+00
          2   -1    0    0  502    0  0.00000000000E+00  0.00000000000E+00  0.10591390022E+03  0.10591390022E+03  0.00000000000E+00 0. -1.
          1   -1    0    0  501    0 -0.00000000000E+00 -0.00000000000E+00 -0.11540306806E+04  0.11540306806E+04  0.00000000000E+00 0. -1.
         25    2    1    2    0    0 -0.89045554206E+02  0.32003482650E+02 -0.19539404654E+03  0.25051506262E+03  0.12500251818E+03 0.  0.
          2    1    1    2  501    0  0.68110779719E+02 -0.60713104965E+02 -0.92468367626E+03  0.92917439729E+03  0.00000000000E+00 0. -1.
          1    1    1    2  502    0  0.20934774486E+02  0.28709622315E+02  0.71960942429E+02  0.80255120906E+02  0.00000000000E+00 0. -1.
         22    1    3    3    0    0 -0.73841992795E+02 -0.24108273777E+02 -0.46161779028E+02  0.90359053821E+02  0.00000000000E+00 0.  1.
         22    1    3    3    0    0 -0.15203561411E+02  0.56111756427E+02 -0.14923226751E+03  0.16015600880E+03  0.00000000000E+00 0.  1.
</event>
<event>
 7    1  0.6597701E-006  0.6305341E+02  0.7818608E-02  0.1486970E+00
          2   -1    0    0  502    0  0.00000000000E+00  0.00000000000E+00  0.13106888766E+04  0.13106888766E+04  0.00000000000E+00 0. -1.
          1   -1    0    0  501    0 -0.00000000000E+00 -0.00000000000E+00 -0.50624601924E+02  0.50624601924E+02  0.00000000000E+00 0. -1.
         25    2    1    2    0    0  0.62669383504E+02  0.37781242905E+02  0.87862844639E+03  0.89048884939E+03  0.12501028013E+03 0.  0.
          2    1    1    2  501    0 -0.36557088195E+02 -0.51241425806E+02 -0.21729534299E+02  0.66590367748E+02  0.00000000000E+00 0. -1.
          1    1    1    2  502    0 -0.26112295309E+02  0.13460182901E+02  0.40316536256E+03  0.40423426136E+03  0.00000000000E+00 0. -1.
         22    1    3    3    0    0  0.56817496308E+02  0.30682674880E+02  0.17077062432E+03  0.18257124789E+03  0.00000000000E+00 0.  1.
         22    1    3    3    0    0  0.58518871968E+01  0.70985680255E+01  0.70785782206E+03  0.70791760150E+03  0.00000000000E+00 0.  1.
</event>
<event>
 7    1  0.6597701E-006  0.1582806E+03  0.7818608E-02  0.1324009E+00
          2   -1    0    0  502    0  0.00000000000E+00  0.00000000000E+00  0.18736331700E+04  0.18736331700E+04  0.00000000000E+00 0. -1.
          1   -1    0    0  501    0 -0.00000000000E+00 -0.00000000000E+00 -0.18701603533E+03  0.18701603533E+03  0.00000000000E+00 0. -1.
         25    2    1    2    0    0 -0.13576772257E+03  0.23863794349E+02  0.29998575283E+03  0.35301332673E+03  0.12499840711E+03 0.  0.
          2    1    1    2  501    0  0.16093502971E+03  0.10107939678E+02 -0.11962925980E+03  0.20078200625E+03  0.00000000000E+00 0. -1.
          1    1    1    2  502    0 -0.25167307137E+02 -0.33971734027E+02  0.15062606417E+04  0.15068538724E+04  0.00000000000E+00 0. -1.
         22    1    3    3    0    0 -0.15252735038E+03 -0.28903441969E+01  0.22708114589E+03  0.27356679902E+03  0.00000000000E+00 0. -1.
         22    1    3    3    0    0  0.16759627814E+02  0.26754138546E+02  0.72904606933E+02  0.79446527714E+02  0.00000000000E+00 0. -1.
</event>
<event>
 7    1  0.6597701E-006  0.1047405E+03  0.7818608E-02  0.1274247E+00
          2   -1    0    0  502    0  0.00000000000E+00  0.00000000000E+00  0.48622901664E+03  0.48622901664E+03  0.00000000000E+00 0. -1.
          1   -1    0    0  501    0 -0.00000000000E+00 -0.00000000000E+00 -0.20731123783E+04  0.20731123783E+04  0.00000000000E+00 0. -1.
         25    2    1    2    0    0  0.50372946941E+02 -0.93901457537E+02 -0.57889161956E+02  0.17415802678E+03  0.12499978283E+03 0.  0.
          2    1    1    2  501    0  0.50777703433E+02  0.92894503590E+02 -0.19496569946E+04  0.19525291702E+04  0.00000000000E+00 0. -1.
          1    1    1    2  502    0 -0.10115065037E+03  0.10069539467E+01  0.42066279487E+03  0.43265419797E+03  0.00000000000E+00 0. -1.
         22    1    3    3    0    0 -0.31240359703E+02 -0.73876638277E+02 -0.29276068501E+02  0.85386216360E+02  0.00000000000E+00 0.  1.
         22    1    3    3    0    0  0.81613306644E+02 -0.20024819260E+02 -0.28613093455E+02  0.88771810418E+02  0.00000000000E+00 0.  1.
</event>
<event>
 7    1  0.6597701E-006  0.5765481E+02  0.7818608E-02  0.1533615E+00
          2   -1    0    0  502    0  0.00000000000E+00  0.00000000000E+00  0.19790932847E+04  0.19790932847E+04  0.00000000000E+00 0. -1.
          1   -1    0    0  501    0 -0.00000000000E+00 -0.00000000000E+00 -0.94307248468E+02  0.94307248468E+02  0.00000000000E+00 0. -1.
         25    2    1    2    0    0  0.24238975813E+02 -0.26005244439E+02  0.16164414748E+03  0.20740815334E+03  0.12500204387E+03 0.  0.
          2    1    1    2  501    0  0.20857307170E+02 -0.10653697346E+02 -0.69021528706E+02  0.72886898373E+02  0.00000000000E+00 0. -1.
          1    1    1    2  502    0 -0.45096282982E+02  0.36658941785E+02  0.17921634175E+04  0.17931054815E+04  0.00000000000E+00 0. -1.
         22    1    3    3    0    0  0.44904734427E+02  0.23406153258E+02  0.17405281571E+02  0.53546493918E+02  0.00000000000E+00 0.  1.
         22    1    3    3    0    0 -0.20665758614E+02 -0.49411397696E+02  0.14423886591E+03  0.15386165942E+03  0.00000000000E+00 0.  1.
</event>
<event>
 7    1  0.6597701E-006  0.1505308E+03  0.7818608E-02  0.1329073E+00
          2   -1    0    0  502    0  0.00000000000E+00  0.00000000000E+00  0.23498155933E+04  0.23498155933E+04  0.00000000000E+00 0. -1.
          1   -1    0    0  501    0 -0.00000000000E+00 -0.00000000000E+00 -0.13896146356E+03  0.13896146356E+03  0.00000000000E+00 0. -1.
         25    2    1    2    0    0 -0.50145536020E+02 -0.11168639049E+03  0.27884489382E+03  0.32919156891E+03  0.12499675845E+03 0.  0.
          2    1    1    2  501    0  0.17307306831E+02 -0.38825034581E+02 -0.10680826732E+03  0.11495621840E+03  0.00000000000E+00 0. -1.
          1    1    1    2  502    0  0.32838229189E+02  0.15051142508E+03  0.20388175032E+04  0.20446292695E+04  0.00000000000E+00 0. -1.
         22    1    3    3    0    0  0.20418416487E+02 -0.81387888437E+02  0.20966446622E+03  0.22583199178E+03  0.00000000000E+00 0.  1.
         22    1    3    3    0    0 -0.70563952507E+02 -0.30298502058E+02  0.69180427600E+02  0.10335957712E+03  0.00000000000E+00 0.  1.
</event>
<event>
 7    1  0.6597701E-006  0.1416469E+03  0.7818608E-02  0.1383103E+00
          2   -1    0    0  502    0  0.00000000000E+00  0.00000000000E+00  0.50851567734E+03  0.50851567734E+03  0.00000000000E+00 0. -1.
          1   -1    0    0  501    0 -0.00000000000E+00 -0.00000000000E+00 -0.14714314348E+03  0.14714314348E+03  0.00000000000E+00 0. -1.
         25    2    1    2    0    0  0.11017769791E+03  0.71661088823E+02  0.20148882172E+03  0.27110384246E+03  0.12500044540E+03 0.  0.
          2    1    1    2  501    0 -0.13323775469E+03 -0.54733238840E+02 -0.64879243896E+02  0.15797893213E+03  0.00000000000E+00 0. -1.
          1    1    1    2  502    0  0.23060056776E+02 -0.16927849983E+02  0.22476295602E+03  0.22657604623E+03  0.00000000000E+00 0. -1.
         22    1    3    3    0    0  0.73366622938E+02  0.73388684168E+02  0.49985319121E+02  0.11518286527E+03  0.00000000000E+00 0.  1.
         22    1    3    3    0    0  0.36811074976E+02 -0.17275953443E+01  0.15150350260E+03  0.15592097719E+03  0.00000000000E+00 0.  1.
</event>
<event>
 7    1  0.6597701E-006  0.1767455E+03  0.7818608E-02  0.1224734E+00
          2   -1    0    0  502    0  0.00000000000E+00  0.00000000000E+00  0.60565896499E+03  0.60565896499E+03  0.00000000000E+00 0. -1.
          1   -1    0    0  501    0 -0.00000000000E+00 -0.00000000000E+00 -0.17831281266E+04  0.17831281266E+04  0.00000000000E+00 0. -1.
         25    2    1    2    0    0  0.97334976867E+02 -0.29085858289E+02 -0.61635106958E+02  0.17246251565E+03  0.12499739206E+03 0.  0.
          2    1    1    2  501    0  0.90221701930E+02  0.39178036121E+02 -0.16485416911E+04  0.16514734577E+04  0.00000000000E+00 0. -1.
          1    1    1    2  502    0 -0.18755667880E+03 -0.10092177832E+02  0.53270763649E+03  0.56485111825E+03  0.00000000000E+00 0. -1.
         22    1    3    3    0    0 -0.57281304085E+00  0.34339376527E+02  0.97458550478E+01  0.35700176269E+02  0.00000000000E+00 0. -1.
         22    1    3    3    0    0  0.97907789908E+02 -0.63425234817E+02 -0.71380962006E+02  0.13676233938E+03  0.00000000000E+00 0. -1.
</event>
<event>
 7    1  0.6597701E-006  0.3989863E+02  0.7818608E-02  0.1545500E+00
          2   -1    0    0  502    0  0.00000000000E+00  0.00000000000E+00  0.41335479106E+02  0.41335479106E+02  0.00000000000E+00 0. -1.
          1   -1    0    0  501    0 -0.00000000000E+00 -0.00000000000E+00 -0.48687272006E+03  0.48687272006E+03  0.00000000000E+00 0. -1.
         25    2    1    2    0    0  0.26750808561E+01  0.17877786779E+02 -0.70092991070E+02  0.14444789759E+03  0.12500158560E+03 0.  0.
          2    1    1    2  501    0  0.23642860739E+02 -0.34862553938E+02 -0.13877179317E+03  0.14502411217E+03  0.00000000000E+00 0. -1.
          1    1    1    2  502    0 -0.26317941595E+02  0.16984767159E+02 -0.23667245671E+03  0.23873618940E+03  0.00000000000E+00 0. -1.
         22    1    3    3    0    0 -0.46808213595E+02 -0.21554890980E+02 -0.21101022687E+01  0.51575912175E+02  0.00000000000E+00 0. -1.
         22    1    3    3    0    0  0.49483294451E+02  0.39432677758E+02 -0.67982888802E+02  0.92871985414E+02  0.00000000000E+00 0. -1.
</event>
<event>
 7    1  0.6597701E-006  0.9372112E+02  0.7818608E-02  0.1335088E+00
          2   -1    0    0  502    0  0.00000000000E+00  0.00000000000E+00  0.20689367799E+04  0.20689367799E+04  0.00000000000E+00 0. -1.
          1   -1    0    0  501    0 -0.00000000000E+00 -0.00000000000E+00 -0.17950005806E+02  0.17950005806E+02  0.00000000000E+00 0. -1.
         25    2    1    2    0    0  0.11364118720E+03  0.30317958620E+02  0.80440074394E+03  0.82250848806E+03  0.12500463209E+03 0.  0.
          2    1    1    2  501    0 -0.85941862551E+02  0.28227086513E+02  0.25303000196E+03  0.26871351667E+03  0.00000000000E+00 0. -1.
          1    1    1    2  502    0 -0.27699324654E+02 -0.58545045133E+02  0.99355602819E+03  0.99566478097E+03  0.00000000000E+00 0. -1.
         22    1    3    3    0    0  0.10197335144E+03  0.29488378948E+02  0.30452493161E+03  0.32249583388E+03  0.00000000000E+00 0. -1.
         22    1    3    3    0    0  0.11667835763E+02  0.82957967219E+00  0.49987581232E+03  0.50001265418E+03  0.00000000000E+00 0. -1.
</event>
<event>
 7    1  0.6597701E-006  0.7568096E+02  0.7818608E-02  0.1366923E+00
          2   -1    0    0  502    0  0.00000000000E+00  0.00000000000E+00  0.31781595110E+03  0.31781595110E+03  0.00000000000E+00 0. -1.
          1   -1    0    0  501    0 -0.00000000000E+00 -0.00000000000E+00 -0.23369566004E+03  0.23369566004E+03  0.00000000000E+00 0. -1.
         25    2    1    2    0    0  0.41474377396E+01 -0.23501352211E+02  0.95066605068E+02  0.15885063512E+03  0.12500540022E+03 0.  0.
          2    1    1    2  501    0 -0.55857789592E+02  0.56146056976E+02 -0.18871916495E+03  0.20466410431E+03  0.00000000000E+00 0. -1.
          1    1    1    2  502    0  0.51710351852E+02 -0.32644704765E+02  0.17777285094E+03  0.18799687170E+03  0.00000000000E+00 0. -1.
         22    1    3    3    0    0  0.52436043367E+02 -0.31769050290E+02  0.12088890018E+02  0.62489618835E+02  0.00000000000E+00 0. -1.
         22    1    3    3    0    0 -0.48288605628E+02  0.82676980785E+01  0.82977715050E+02  0.96361016287E+02  0.00000000000E+00 0. -1.
</event>
<event>
 7    1  0.6597701E-006  0.6106233E+02  0.7818608E-02  0.1427642E+00
          2   -1    0    0  502    0  0.00000000000E+00  0.00000000000E+00  0.27252775606E+03  0.27252775606E+03  0.00000000000E+00 0. -1.
          1   -1    0    0  501    0 -0.00000000000E+00 -0.00000000000E+00 -0.59179391010E+03  0.59179391010E+03  0.00000000000E+00 0. -1.
         25    2    1    2    0    0  0.72766654449E+02 -0.77298070816E+02  0.17390799798E+03  0.23903873393E+03  0.12500218720E+03 0.  0.
          2    1    1    2  501    0 -0.47251790278E+02  0.38109734181E+02 -0.54906444531E+03  0.55241003668E+03  0.00000000000E+00 0. -1.
          1    1    1    2  502    0 -0.25514864171E+02  0.39188336635E+02  0.55890293298E+02  0.72872895557E+02  0.00000000000E+00 0. -1.
         22    1    3    3    0    0  0.82285617798E+02 -0.33160973257E+02  0.17236988162E+03  0.19386064359E+03  0.00000000000E+00 0.  1.
         22    1    3    3    0    0 -0.95189633488E+01 -0.44137097559E+02  0.15381163531E+01  0.45178090333E+02  0.00000000000E+00 0.  1.
</event>
<event>
 7    1  0.6597701E-006  0.8920868E+02  0.7818608E-02  0.1316373E+00
          2   -1    0    0  502    0  0.00000000000E+00  0.00000000000E+00  0.94072747851E+03  0.94072747851E+03  0.00000000000E+00 0. -1.
          1   -1    0    0  501    0 -0.00000000000E+00 -0.00000000000E+00 -0.43938638481E+03  0.43938638481E+03  0.00000000000E+00 0. -1.
         25    2    1    2    0    0  0.32020745333E+02 -0.47529444274E+02 -0.51249184388E+02  0.14674939940E+03  0.12499812447E+03 0.  0.
          2    1    1    2  501    0  0.58284066371E+02  0.55247628799E+02 -0.33330582743E+03  0.34284414459E+03  0.00000000000E+00 0. -1.
          1    1    1    2  502    0 -0.90304811704E+02 -0.77181845250E+01  0.88589610551E+03  0.89052031933E+03  0.00000000000E+00 0. -1.
         22    1    3    3    0    0 -0.26992681627E+02  0.28386270879E+02 -0.33215704715E+01  0.39311805685E+02  0.00000000000E+00 0. -1.
         22    1    3    3    0    0  0.59013426959E+02 -0.75915715152E+02 -0.47927613916E+02  0.10743759372E+03  0.00000000000E+00 0. -1.
</event>
<event>
 7    1  0.6597701E-006  0.6921475E+02  0.7818608E-02  0.1387971E+00
          2   -1    0    0  502    0  0.00000000000E+00  0.00000000000E+00  0.27405968752E+02  0.27405968752E+02  0.00000000000E+00 0. -1.
          1   -1    0    0  501    0 -0.00000000000E+00 -0.00000000000E+00 -0.80212769646E+03  0.80212769646E+03  0.00000000000E+00 0. -1.
         25    2    1    2    0    0 -0.17746719261E+02 -0.64761288406E+01 -0.35778716811E+03  0.37946894243E+03  0.12501253662E+03 0.  0.
          2    1    1    2  501    0  0.43910335679E+01  0.74390098488E+02 -0.33317842146E+03  0.34141035201E+03  0.00000000000E+00 0. -1.
          1    1    1    2  502    0  0.13355685693E+02 -0.67913969648E+02 -0.83756138127E+02  0.10865437077E+03  0.00000000000E+00 0. -1.
         22    1    3    3    0    0  0.47601702293E+02 -0.29587772762E+01 -0.24027557038E+03  0.24496331592E+03  0.00000000000E+00 0. -1.
         22    1    3    3    0    0 -0.65348421554E+02 -0.35173515644E+01 -0.11751159773E+03  0.13450562651E+03  0.00000000000E+00 0. -1.
</event>
<event>
 7    1  0.6597701E-006  0.1024280E+03  0.7818608E-02  0.1325758E+00
          2   -1    0    0  502    0  0.00000000000E+00  0.00000000000E+00  0.24444500569E+03  0.24444500569E+03  0.00000000000E+00 0. -1.
          1   -1    0    0  501    0 -0.00000000000E+00 -0.00000000000E+00 -0.48748728478E+03  0.48748728478E+03  0.00000000000E+00 0. -1.
         25    2    1    2    0    0  0.33589395836E+02  0.72373717921E+02 -0.12968548659E+03  0.19700099519E+03  0.12499945647E+03 0.  0.
          2    1    1    2  501    0  0.59925993458E+02 -0.23384569944E+02 -0.30738412334E+03  0.31404293032E+03  0.00000000000E+00 0. -1.
          1    1    1    2  502    0 -0.93515389294E+02 -0.48989147977E+02  0.19402733084E+03  0.22088836494E+03  0.00000000000E+00 0. -1.
         22    1    3    3    0    0  0.58282610003E+01 -0.64085360069E+01 -0.11108815794E+03  0.11142538667E+03  0.00000000000E+00 0. -1.
         22    1    3    3    0    0  0.27761134836E+02  0.78782253928E+02 -0.18597328650E+02  0.85575608524E+02  0.00000000000E+00 0. -1.
</event>
<event>
 7    1  0.6597701E-006  0.4255640E+02  0.7818608E-02  0.1574039E+00
          2   -1    0    0  502    0  0.00000000000E+00  0.00000000000E+00  0.18381465628E+02  0.18381465628E+02  0.00000000000E+00 0. -1.
          1   -1    0    0  501    0 -0.00000000000E+00 -0.00000000000E+00 -0.11833044207E+04  0.11833044207E+04  0.00000000000E+00 0. -1.
         25    2    1    2    0    0 -0.23558273452E+02  0.28076747701E+02 -0.10103436196E+04  0.10187058543E+04  0.12499636794E+03 0.  0.
          2    1    1    2  501    0  0.46699286568E+02 -0.20013567544E+02 -0.14957532166E+03  0.15796880420E+03  0.00000000000E+00 0. -1.
          1    1    1    2  502    0 -0.23141013115E+02 -0.80631801571E+01 -0.50040138476E+01  0.25011227815E+02  0.00000000000E+00 0. -1.
         22    1    3    3    0    0 -0.21352382894E+02 -0.48537392326E+02 -0.46146767873E+03  0.46450427471E+03  0.00000000000E+00 0.  1.
         22    1    3    3    0    0 -0.22058905580E+01  0.76614140027E+02 -0.54887594083E+03  0.55420157960E+03  0.00000000000E+00 0.  1.
</event>
<event>
 7    1  0.6597701E-006  0.9185200E+02  0.7818608E-02  0.1381590E+00
          2   -1    0    0  502    0  0.00000000000E+00  0.00000000000E+00  0.18233093797E+04  0.18233093797E+04  0.00000000000E+00 0. -1.
          1   -1    0    0  501    0 -0.00000000000E+00 -0.00000000000E+00 -0.56678005250E+02  0.56678005250E+02  0.00000000000E+00 0. -1.
         25    2    1    2    0    0  0.51927311828E+02  0.86444891174E+02  0.88969590161E+03  0.90407504750E+03  0.12499491688E+03 0.  0.
          2    1    1    2  501    0 -0.75641097095E+01 -0.91584830586E+02 -0.57701740599E+01  0.92077640379E+02  0.00000000000E+00 0. -1.
          1    1    1    2  502    0 -0.44363202119E+02  0.51399394120E+01  0.88270564690E+03  0.88383469707E+03  0.00000000000E+00 0. -1.
         22    1    3    3    0    0  0.88401171467E+02  0.36550401171E+02  0.44986803826E+03  0.45992602752E+03  0.00000000000E+00 0.  1.
         22    1    3    3    0    0 -0.36473859639E+02  0.49894490003E+02  0.43982786334E+03  0.44414901997E+03  0.00000000000E+00 0.  1.
</event>
<event>
 7    1  0.6597701E-006  0.1156366E+03  0.7818608E-02  0.1300584E+00
          2   -1    0    0  502    0  0.00000000000E+00  0.00000000000E+00  0.79071335653E+03  0.79071335653E+03  0.00000000000E+00 0. -1.
          1   -1    0    0  501    0 -0.00000000000E+00 -0.00000000000E+00 -0.44380502257E+03  0.44380502257E+03  0.00000000000E+00 0. -1.
         25    2    1    2    0    0  0.36349455148E+02  0.17567270883E+03  0.11851127331E+03  0.24869934100E+03  0.12499702713E+03 0.  0.
          2    1    1    2  501    0 -0.22355609755E+01 -0.11280976752E+03 -0.36812287400E+03  0.38502661173E+03  0.00000000000E+00 0. -1.
          1    1    1    2  502    0 -0.34113894173E+02 -0.62862941315E+02  0.59651993465E+03  0.60079242638E+03  0.00000000000E+00 0. -1.
         22    1    3    3    0    0 -0.93976084729E+01  0.14801512533E+01  0.57896704968E+02  0.58673114276E+02  0.00000000000E+00 0. -1.
         22    1    3    3    0    0  0.45747063621E+02  0.17419255758E+03  0.60614568342E+02  0.19002622672E+03  0.00000000000E+00 0. -1.
</event>
<event>
 7    1  0.6597701E-006  0.8112982E+02  0.7818608E-02  0.1451484E+00
          2   -1    0    0  502    0  0.00000000000E+00  0.00000000000E+00  0.97458894268E+02  0.97458894268E+02  0.00000000000E+00 0. -1.
          1   -1    0    0  501    0 -0.00000000000E+00 -0.00000000000E+00 -0.47363098838E+03  0.47363098838E+03  0.00000000000E+00 0. -1.
         25    2    1    2    0    0  0.50733989115E+02  0.60428285740E+02  0.26461120372E+00  0.14782576353E+03  0.12500748368E+03 0.  0.
          2    1    1    2  501    0 -0.26479205588E+02 -0.77128994254E+02 -0.38424098451E+03  0.39279913984E+03  0.00000000000E+00 0. -1.
          1    1    1    2  502    0 -0.24254783527E+02  0.16700708514E+02  0.78042791914E+01  0.30464979280E+02  0.00000000000E+00 0. -1.
         22    1    3    3    0    0  0.50928741027E+02  0.60561566445E+02 -0.52563812671E+02  0.94996812554E+02  0.00000000000E+00 0. -1.
         22    1    3    3    0    0 -0.19475191200E+00 -0.13328070570E+00  0.52828423875E+02  0.52828950976E+02  0.00000000000E+00 0. -1.
</event>
<event>
 7    1  0.6597701E-006  0.2342508E+02  0.7818608E-02  0.1698605E+00
          2   -1    0    0  502    0  0.00000000000E+00  0.00000000000E+00  0.60557809064E+03  0.60557809064E+03  0.00000000000E+00 0. -1.
          1   -1    0    0  501    0 -0.00000000000E+00 -0.00000000000E+00 -0.14896308000E+02  0.14896308000E+02  0.00000000000E+00 0. -1.
         25    2    1    2    0    0  0.10100291864E+02 -0.11354420744E+02  0.42384428275E+03  0.44215430118E+03  0.12500204505E+03 0.  0.
          2    1    1    2  501    0  0.11538683161E+02  0.20386098798E+02  0.23876094471E+02  0.33448499525E+02  0.00000000000E+00 0. -1.
          1    1    1    2  502    0 -0.21638975025E+02 -0.90316780539E+01  0.14296140542E+03  0.14487159794E+03  0.00000000000E+00 0. -1.
         22    1    3    3    0    0 -0.49715038588E+02 -0.25283933132E+02  0.12227964079E+03  0.13439930390E+03  0.00000000000E+00 0. -1.
         22    1    3    3    0    0  0.59815330452E+02  0.13929512388E+02  0.30156464195E+03  0.30775499728E+03  0.00000000000E+00 0. -1.
</event>
<event>
 7    1  0.6597701E-006  0.7134524E+02  0.7818608E-02  0.1412983E+00
          2   -1    0    0  502    0  0.00000000000E+00  0.00000000000E+00  0.28292230576E+04  0.28292230576E+04  0.00000000000E+00 0. -1.
          1   -1    0    0  501    0 -0.00000000000E+00 -0.00000000000E+00 -0.38393469776E+02  0.38393469776E+02  0.00000000000E+00 0. -1.
         25    2    1    2    0    0 -0.32276261746E+02 -0.68561341833E+02  0.56440668639E+03  0.58302913331E+03  0.12500259189E+03 0.  0.
          2    1    1    2  501    0 -0.12458424631E+02  0.70919493119E+02  0.16065281433E+02  0.73775877603E+02  0.00000000000E+00 0. -1.
          1    1    1    2  502    0  0.44734686377E+02 -0.23581512860E+01  0.22103576200E+04  0.22108115164E+04  0.00000000000E+00 0. -1.
         22    1    3    3    0    0 -0.64142995505E+02 -0.82631680883E+01  0.15453693549E+03  0.16752393336E+03  0.00000000000E+00 0.  1.
         22    1    3    3    0    0  0.31866733759E+02 -0.60298173744E+02  0.40986975091E+03  0.41550519995E+03  0.00000000000E+00 0.  1.
</event>
<event>
 7    1  0.6597701E-006  0.5758065E+02  0.7818608E-02  0.1508559E+00
          2   -1    0    0  502    0  0.00000000000E+00  0.00000000000E+00  0.13970121755E+04  0.13970121755E+04  0.00000000000E+00 0. -1.
          1   -1    0    0  501    0 -0.00000000000E+00 -0.00000000000E+00 -0.37481042607E+03  0.37481042607E+03  0.00000000000E+00 0. -1.
         25    2    1    2    0    0 -0.61269084593E+02 -0.19294596505E+02  0.41714261557E+02  0.14659163210E+03  0.12499137891E+03 0.  0.
          2    1    1    2  501    0  0.56993753874E+02 -0.80953104651E+01 -0.31965293315E+03  0.32479504261E+03  0.00000000000E+00 0. -1.
          1    1    1    2  502    0  0.42753307190E+01  0.27389906970E+02  0.13001404211E+04  0.13004359269E+04  0.00000000000E+00 0. -1.
         22    1    3    3    0    0 -0.96934519981E+02 -0.14728827415E+02  0.98371621487E+01  0.98539379337E+02  0.00000000000E+00 0. -1.
         22    1    3    3    0    0  0.35665435388E+02 -0.45657690905E+01  0.31877099408E+02  0.48052252762E+02  0.00000000000E+00 0. -1.
</event>
<event>
 7    1  0.6597701E-006  0.5131081E+02  0.7818608E-02  0.1473491E+00
          2   -1    0    0  502    0  0.00000000000E+00  0.00000000000E+00  0.14138880209E+04  0.14138880209E+04  0.00000000000E+00 0. -1.
          1   -1    0    0  501    0 -0.00000000000E+00 -0.00000000000E+00 -0.67766485488E+03  0.67766485488E+03  0.00000000000E+00 0. -1.
         25    2    1    2    0    0  0.84351632939E+02  0.54346461901E+01  0.64917630736E+03  0.66648226158E+03  0.12499597438E+03 0.  0.
          2    1    1    2  501    0 -0.38382156766E+02  0.10163924228E+02 -0.66764226057E+03  0.66882186224E+03  0.00000000000E+00 0. -1.
          1    1    1    2  502    0 -0.45969476173E+02 -0.15598570418E+02  0.75468911919E+03  0.75624875191E+03  0.00000000000E+00 0. -1.
         22    1    3    3    0    0  0.59276160978E+02 -0.27698358433E+02  0.12895170335E+03  0.14460084411E+03  0.00000000000E+00 0.  1.
         22    1    3    3    0    0  0.25075471961E+02  0.33133004623E+02  0.52022460401E+03  0.52188141748E+03  0.00000000000E+00 0.  1.
</event>
<event>
 7    1  0.6597701E-006  0.9335577E+02  0.7818608E-02  0.1395455E+00
          2   -1    0    0  502    0  0.00000000000E+00  0.00000000000E+00  0.69674861742E+03  0.69674861742E+03  0.00000000000E+00 0. -1.
          1   -1    0    0  501    0 -0.00000000000E+00 -0.00000000000E+00 -0.23279307655E+04  0.23279307655E+04  0.00000000000E+00 0. -1.
         25    2    1    2    0    0 -0.59143626600E+02 -0.43698449174E+02  0.20975017028E+03  0.25500698343E+03  0.12500361849E+03 0.  0.
          2    1    1    2  501    0  0.91108876157E+02  0.20838251148E+02 -0.23035216066E+04  0.23054168499E+04  0.00000000000E+00 0. -1.
          1    1    1    2  502    0 -0.31965249557E+02  0.22860198026E+02  0.46258928815E+03  0.46425554961E+03  0.00000000000E+00 0. -1.
         22    1    3    3    0    0 -0.74625730416E+02 -0.68809059367E+02  0.19938963009E+03  0.22374072244E+03  0.00000000000E+00 0. -1.
         22    1    3    3    0    0  0.15482103816E+02  0.25110610193E+02  0.10360540190E+02  0.31266260983E+02  0.00000000000E+00 0. -1.
</event>
<event>
 7    1  0.6597701E-006  0.1548806E+03  0.7818608E-02  0.1283593E+00
          2   -1    0    0  502    0  0.00000000000E+00  0.00000000000E+00  0.42850645381E+03  0.42850645381E+03  0.00000000000E+00 0. -1.
          1   -1    0    0  501    0 -0.00000000000E+00 -0.00000000000E+00 -0.82191807368E+03  0.82191807368E+03  0.00000000000E+00 0. -1.
         25    2    1    2    0    0  0.59657306852E+02 -0.13111147358E+03  0.15518153167E+03  0.24587531804E+03  0.12499660590E+03 0.  0.
          2    1    1    2  501    0 -0.21342548663E+01  0.15574968554E+03 -0.76426794211E+03  0.77997949135E+03  0.00000000000E+00 0. -1.
          1    1    1    2  502    0 -0.57523051985E+02 -0.24638211959E+02  0.21567479057E+03  0.22456971810E+03  0.00000000000E+00 0. -1.
         22    1    3    3    0    0  0.93327580832E+02 -0.81812209810E+02  0.71984540872E+02  0.14347490771E+03  0.00000000000E+00 0. -1.
         22    1    3    3    0    0 -0.33670273980E+02 -0.49299263768E+02  0.83196990798E+02  0.10240041033E+03  0.00000000000E+00 0. -1.
</event>
<event>
 7    1  0.6597701E-006  0.7383940E+02  0.7818608E-02  0.1423461E+00
          2   -1    0    0  502    0  0.00000000000E+00  0.00000000000E+00  0.25598927750E+04  0.25598927750E+04  0.00000000000E+00 0. -1.
          1   -1    0    0  501    0 -0.00000000000E+00 -0.00000000000E+00 -0.23371392191E+03  0.23371392191E+03  0.00000000000E+00 0. -1.
         25    2    1    2    0    0 -0.43899189572E+02  0.33751438607E+02  0.41312718660E+03  0.43516135904E+03  0.12500015058E+03 0.  0.
          2    1    1    2  501    0  0.73862953225E+02 -0.73672377166E+01 -0.21631895860E+03  0.22870046765E+03  0.00000000000E+00 0. -1.
          1    1    1    2  502    0 -0.29963763653E+02 -0.26384200890E+02  0.21293706251E+04  0.21297448702E+04  0.00000000000E+00 0. -1.
         22    1    3    3    0    0 -0.73950442928E+02  0.73098451535E+01  0.13440828102E+03  0.15358283711E+03  0.00000000000E+00 0.  1.
         22    1    3    3    0    0  0.30051253356E+02  0.26441593453E+02  0.27871890557E+03  0.28157852194E+03  0.00000000000E+00 0.  1.
</event>
<event>
 7    1  0.6597701E-006  0.4085120E+03  0.7818608E-02  0.1053001E+00
          2   -1    0    0  502    0  0.00000000000E+00  0.00000000000E+00  0.27185933601E+04  0.27185933601E+04  0.00000000000E+00 0. -1.
          1   -1    0    0  501    0 -0.00000000000E+00 -0.00000000000E+00 -0.18690540384E+04  0.18690540384E+04  0.00000000000E+00 0. -1.
         25    2    1    2    0    0 -0.52393266251E+03 -0.31266188665E+03 -0.16967856733E+04  0.18074761066E+04  0.12500145877E+03 0.  0.
          2    1    1    2  501    0  0.33949230580E+03 -0.50623023424E+02  0.19696100906E+03  0.39574152586E+03  0.00000000000E+00 0. -1.
          1    1    1    2  502    0  0.18444035671E+03  0.36328491008E+03  0.23493639859E+04  0.23844297661E+04  0.00000000000E+00 0. -1.
         22    1    3    3    0    0 -0.42733893103E+02 -0.62523772274E+02 -0.29138098004E+03  0.30106192593E+03  0.00000000000E+00 0.  1.
         22    1    3    3    0    0 -0.48119876941E+03 -0.25013811438E+03 -0.14054046932E+04  0.15064141807E+04  0.00000000000E+00 0.  1.
</event>
<event>
 7    1  0.6597701E-006  0.9080384E+02  0.7818608E-02  0.1329042E+00
          2   -1    0    0  502    0  0.00000000000E+00  0.00000000000E+00  0.71411303576E+03  0.71411303576E+03  0.00000000000E+00 0. -1.
          1   -1    0    0  501    0 -0.00000000000E+00 -0.00000000000E+00 -0.39604967672E+02  0.39604967672E+02  0.00000000000E+00 0. -1.
         25    2    1    2    0    0  0.27796958007E+02  0.10488447254E+02  0.29093029021E+03  0.31803674151E+03  0.12499702711E+03 0.  0.
          2    1    1    2  501    0  0.71555575258E+02 -0.55902931088E+02  0.12096765988E+03  0.15125644711E+03  0.00000000000E+00 0. -1.
          1    1    1    2  502    0 -0.99352533265E+02  0.45414483834E+02  0.26261011800E+03  0.28442481482E+03  0.00000000000E+00 0. -1.
         22    1    3    3    0    0 -0.33675282332E+02  0.55624573366E+01  0.18719855952E+02  0.38928120667E+02  0.00000000000E+00 0. -1.
         22    1    3    3    0    0  0.61472240339E+02  0.49259899175E+01  0.27221043426E+03  0.27910862084E+03  0.00000000000E+00 0. -1.
</event>
<event>
 7    1  0.6597701E-006  0.5219472E+02  0.7818608E-02  0.1515935E+00
          2   -1    0    0  502    0  0.00000000000E+00  0.00000000000E+00  0.84035649984E+03  0.84035649984E+03  0.00000000000E+00 0. -1.
          1   -1    0    0  501    0 -0.00000000000E+00 -0.00000000000E+00 -0.83470587717E+03  0.83470587717E+03  0.00000000000E+00 0. -1.
         25    2    1    2    0    0  0.72184315244E+02  0.29077653289E+02  0.20733340964E+03  0.25429939184E+03  0.12499981058E+03 0.  0.
          2    1    1    2  501    0 -0.29044241334E+02 -0.17238407729E+01 -0.80989100779E+03  0.81041346490E+03  0.00000000000E+00 0. -1.
          1    1    1    2  502    0 -0.43140073910E+02 -0.27353812516E+02  0.60820822081E+03  0.61034952028E+03  0.00000000000E+00 0. -1.
         22    1    3    3    0    0  0.19174781703E+02 -0.27676094355E+01  0.18873057800E+03  0.18972233129E+03  0.00000000000E+00 0.  1.
         22    1    3    3    0    0  0.53009533541E+02  0.31845262724E+02  0.18602831640E+02  0.64577060549E+02  0.00000000000E+00 0.  1.
</event>
<event>
 7    1  0.6597701E-006  0.7104751E+02  0.7818608E-02  0.1384057E+00
          2   -1    0    0  502    0  0.00000000000E+00  0.00000000000E+00  0.25416254649E+04  0.25416254649E+04  0.00000000000E+00 0. -1.
          1   -1    0    0  501    0 -0.00000000000E+00 -0.00000000000E+00 -0.40617912247E+02  0.40617912247E+02  0.00000000000E+00 0. -1.
         25    2    1    2    0    0 -0.92352959096E+02  0.56630962279E+02  0.60833607603E+03  0.63042339714E+03  0.12499897329E+03 0.  0.
          2    1    1    2  501    0  0.35824950857E+02 -0.59323067630E+02  0.12042505377E+02  0.70339714193E+02  0.00000000000E+00 0. -1.
          1    1    1    2  502    0  0.56528008239E+02  0.26921053508E+01  0.18806289712E+04  0.18814802658E+04  0.00000000000E+00 0. -1.
         22    1    3    3    0    0 -0.68798596121E+02 -0.92677129982E+01  0.13362265267E+03  0.15057938318E+03  0.00000000000E+00 0.  1.
         22    1    3    3    0    0 -0.23554362976E+02  0.65898675277E+02  0.47471342335E+03  0.47984401396E+03  0.00000000000E+00 0.  1.
</event>
<event>
 7    1  0.6597701E-006  0.8613800E+02  0.7818608E-02  0.1469412E+00
          2   -1    0    0  502    0  0.00000000000E+00  0.00000000000E+00  0.86545945087E+03  0.86545945087E+03  0.00000000000E+00 0. -1.
          1   -1    0    0  501    0 -0.00000000000E+00 -0.00000000000E+00 -0.16404673210E+03  0.16404673210E+03  0.00000000000E+00 0. -1.
         25    2    1    2    0    0 -0.69740879643E+02  0.83755399415E+02  0.17754680479E+03  0.24295605430E+03  0.12500407675E+03 0.  0.
          2    1    1    2  501    0  0.54742083401E+02 -0.64571321360E+02 -0.11744674675E+03  0.14477530714E+03  0.00000000000E+00 0. -1.
          1    1    1    2  502    0  0.14998796242E+02 -0.19184078056E+02  0.64131266073E+03  0.64177482153E+03  0.00000000000E+00 0. -1.
         22    1    3    3    0    0  0.12205306048E+02  0.21135422286E+02  0.12471054076E+03  0.12707633354E+03  0.00000000000E+00 0.  1.
         22    1    3    3    0    0 -0.81946185691E+02  0.62619977130E+02  0.52836264032E+02  0.11587972075E+03  0.00000000000E+00 0.  1.
</event>
<event>
 7    1  0.6597701E-006  0.8919983E+02  0.7818608E-02  0.1489215E+00
          2   -1    0    0  502    0  0.00000000000E+00  0.00000000000E+00  0.29480199403E+04  0.29480199403E+04  0.00000000000E+00 0. -1.
          1   -1    0    0  501    0 -0.00000000000E+00 -0.00000000000E+00 -0.34932119468E+03  0.34932119468E+03  0.00000000000E+00 0. -1.
         25    2    1    2    0    0  0.64997295926E+02  0.39625101144E+02  0.28981459897E+03  0.32467319267E+03  0.12500153258E+03 0.  0.
          2    1    1    2  501    0  0.18951803039E+02 -0.76647415343E+01 -0.33081240229E+03  0.33144345613E+03  0.00000000000E+00 0. -1.
          1    1    1    2  502    0 -0.83949098965E+02 -0.31960359609E+02  0.26396965489E+04  0.26412244861E+04  0.00000000000E+00 0. -1.
         22    1    3    3    0    0  0.72944638505E+02  0.15042886953E+02  0.66432902458E+02  0.99802501288E+02  0.00000000000E+00 0.  1.
         22    1    3    3    0    0 -0.79473425784E+01  0.24582214191E+02  0.22338169651E+03  0.22487069138E+03  0.00000000000E+00 0.  1.
</event>
<event>
 7    1  0.6597701E-006  0.8293452E+02  0.7818608E-02  0.1329874E+00
          2   -1    0    0  502    0  0.00000000000E+00  0.00000000000E+00  0.18560670677E+04  0.18560670677E+04  0.00000000000E+00 0. -1.
          1   -1    0    0  501    0 -0.00000000000E+00 -0.00000000000E+00 -0.25120971629E+02  0.25120971629E+02  0.00000000000E+00 0. -1.
         25    2    1    2    0    0 -0.20194579543E+02 -0.46600926131E+01  0.26817564912E+03  0.29660208493E+03  0.12500032198E+03 0.  0.
          2    1    1    2  501    0 -0.87238651633E+01  0.82474416602E+02  0.16808246071E+03  0.18742958361E+03  0.00000000000E+00 0. -1.
          1    1    1    2  502    0  0.28918444707E+02 -0.77814323989E+02  0.13946879863E+04  0.13971563708E+04  0.00000000000E+00 0. -1.
         22    1    3    3    0    0  0.10598849071E+02  0.41389851776E+02  0.30344945106E+02  0.52404876922E+02  0.00000000000E+00 0. -1.
         22    1    3    3    0    0 -0.30793428614E+02 -0.46049944389E+02  0.23783070402E+03  0.24419720800E+03  0.00000000000E+00 0. -1.
</event>
<event>
 7    1  0.6597701E-006  0.3405330E+02  0.7818608E-02  0.1622630E+00
          2   -1    0    0  502    0  0.00000000000E+00  0.00000000000E+00  0.12764396016E+04  0.12764396016E+04  0.00000000000E+00 0. -1.
          1   -1    0    0  501    0 -0.00000000000E+00 -0.00000000000E+00 -0.73259773204E+03  0.73259773204E+03  0.00000000000E+00 0. -1.
         25    2    1    2    0    0 -0.12910003055E+02  0.41192711912E+02  0.53922117936E+03  0.55519967530E+03  0.12499476586E+03 0.  0.
          2    1    1    2  501    0 -0.12707639092E+02 -0.18985150151E+02 -0.72403415929E+03  0.72439449463E+03  0.00000000000E+00 0. -1.
          1    1    1    2  502    0  0.25617642147E+02 -0.22207561761E+02  0.72865484945E+03  0.72944316366E+03  0.00000000000E+00 0. -1.
         22    1    3    3    0    0  0.26343745668E+02 -0.12005101563E+02  0.40033959926E+03  0.40138498993E+03  0.00000000000E+00 0.  1.
         22    1    3    3    0    0 -0.39253748723E+02  0.53197813474E+02  0.13888158010E+03  0.15381468538E+03  0.00000000000E+00 0.  1.
</event>
<event>
 7    1  0.6597701E-006  0.7237663E+02  0.7818608E-02  0.1377148E+00
          2   -1    0    0  502    0  0.00000000000E+00  0.00000000000E+00  0.21050736276E+04  0.21050736276E+04  0.00000000000E+00 0. -1.
          1   -1    0    0  501    0 -0.00000000000E+00 -0.00000000000E+00 -0.42162806250E+02  0.42162806250E+02  0.00000000000E+00 0. -1.
         25    2    1    2    0    0 -0.63673263286E+02  0.39886748163E+02  0.61165877070E+03  0.62880827613E+03  0.12501263622E+03 0.  0.
          2    1    1    2  501    0  0.14586400458E+02 -0.72203788882E+02  0.81297457371E+01  0.74109668553E+02  0.00000000000E+00 0. -1.
          1    1    1    2  502    0  0.49086862828E+02  0.32317040719E+02  0.14431223049E+04  0.14443184892E+04  0.00000000000E+00 0. -1.
         22    1    3    3    0    0 -0.18393016262E+02 -0.40459212064E+02  0.10820530853E+03  0.11697709041E+03  0.00000000000E+00 0.  1.
         22    1    3    3    0    0 -0.45280247024E+02  0.80345960227E+02  0.50345346217E+03  0.51183118571E+03  0.00000000000E+00 0.  1.
</event>
<event>
 7    1  0.6597701E-006  0.2740666E+03  0.7818608E-02  0.1212002E+00
          2   -1    0    0  502    0  0.00000000000E+00  0.00000000000E+00  0.48556807218E+03  0.48556807218E+03  0.00000000000E+00 0. -1.
          1   -1    0    0  501    0 -0.00000000000E+00 -0.00000000000E+00 -0.21596523375E+04  0.21596523375E+04  0.00000000000E+00 0. -1.
         25    2    1    2    0    0  0.88838534083E+02  0.31076842182E+03 -0.57275362710E+02  0.35124749205E+03  0.12500014543E+03 0.  0.
          2    1    1    2  501    0 -0.29101596978E+02 -0.26963058649E+03 -0.19419728302E+04  0.19608176941E+04  0.00000000000E+00 0. -1.
          1    1    1    2  502    0 -0.59736937105E+02 -0.41137835333E+02  0.32516392761E+03  0.33315522354E+03  0.00000000000E+00 0. -1.
         22    1    3    3    0    0 -0.16814621548E+02  0.40618668466E+02 -0.41954355373E+02  0.60768212583E+02  0.00000000000E+00 0. -1.
         22    1    3    3    0    0  0.10565315563E+03  0.27014975336E+03 -0.15321007337E+02  0.29047927947E+03  0.00000000000E+00 0. -1.
</event>
<event>
 7    1  0.6597701E-006  0.5773189E+02  0.7818608E-02  0.1496842E+00
          2   -1    0    0  502    0  0.00000000000E+00  0.00000000000E+00  0.17494919892E+04  0.17494919892E+04  0.00000000000E+00 0. -1.
          1   -1    0    0  501    0 -0.00000000000E+00 -0.00000000000E+00 -0.33438452120E+03  0.33438452120E+03  0.00000000000E+00 0. -1.
         25    2    1    2    0    0 -0.46226955857E+02 -0.59964769381E+02  0.14698181048E+04  0.14770653896E+04  0.12499679480E+03 0.  0.
          2    1    1    2  501    0  0.16640884484E+02  0.55258267633E+02 -0.32741710631E+03  0.33246406825E+03  0.00000000000E+00 0. -1.
          1    1    1    2  502    0  0.29586071373E+02  0.47065017476E+01  0.27270646944E+03  0.27434705257E+03  0.00000000000E+00 0. -1.
         22    1    3    3    0    0 -0.37276757722E+02  0.34740080431E+02  0.53269958147E+03  0.53513108109E+03  0.00000000000E+00 0. -1.
         22    1    3    3    0    0 -0.89501981351E+01 -0.94704849812E+02  0.93711852337E+03  0.94193430846E+03  0.00000000000E+00 0. -1.
</event>
<event>
 7    1  0.6597701E-006  0.2296146E+03  0.7818608E-02  0.1305595E+00
          2   -1    0    0  502    0  0.00000000000E+00  0.00000000000E+00  0.13323211728E+04  0.13323211728E+04  0.00000000000E+00 0. -1.
          1   -1    0    0  501    0 -0.00000000000E+00 -0.00000000000E+00 -0.27413015240E+03  0.27413015240E+03  0.00000000000E+00 0. -1.
         25    2    1    2    0    0  0.14433484454E+03 -0.17029521703E+03 -0.13432852117E+03  0.28896764197E+03  0.12500055285E+03 0.  0.
          2    1    1    2  501    0  0.28802502381E+02  0.18811531390E+02 -0.46189758386E+02  0.57592982527E+02  0.00000000000E+00 0. -1.
          1    1    1    2  502    0 -0.17313734692E+03  0.15148368564E+03  0.12387093000E+04  0.12598907007E+04  0.00000000000E+00 0. -1.
         22    1    3    3    0    0  0.75970080286E+02 -0.98953791812E+02 -0.14301090197E+03  0.18977730131E+03  0.00000000000E+00 0.  1.
         22    1    3    3    0    0  0.68364764258E+02 -0.71341425214E+02  0.86823807917E+01  0.99190340658E+02  0.00000000000E+00 0.  1.
</event>
<event>
 7    1  0.6597701E-006  0.6704592E+02  0.7818608E-02  0.1385146E+00
          2   -1    0    0  502    0  0.00000000000E+00  0.00000000000E+00  0.13615504366E+03  0.13615504366E+03  0.00000000000E+00 0. -1.
          1   -1    0    0  501    0 -0.00000000000E+00 -0.00000000000E+00 -0.38535873825E+03  0.38535873825E+03  0.00000000000E+00 0. -1.
         25    2    1    2    0    0  0.21620159434E+02 -0.15530725812E+01 -0.91764986650E+02  0.15657513533E+03  0.12500046760E+03 0.  0.
          2    1    1    2  501    0  0.32591015114E+02  0.49712611283E+02 -0.24450694694E+03  0.25162902274E+03  0.00000000000E+00 0. -1.
          1    1    1    2  502    0 -0.54211174547E+02 -0.48159538702E+02  0.87068238990E+02  0.11330962384E+03  0.00000000000E+00 0. -1.
         22    1    3    3    0    0 -0.53741876961E+01 -0.39476548335E+02  0.13021253065E+02  0.41914589264E+02  0.00000000000E+00 0.  1.
         22    1    3    3    0    0  0.26994347130E+02  0.37923475754E+02 -0.10478623971E+03  0.11466054606E+03  0.00000000000E+00 0.  1.
</event>
<event>
 7    1  0.6597701E-006  0.1770562E+03  0.7818608E-02  0.1257799E+00
          2   -1    0    0  502    0  0.00000000000E+00  0.00000000000E+00  0.17684715932E+04  0.17684715932E+04  0.00000000000E+00 0. -1.
          1   -1    0    0  501    0 -0.00000000000E+00 -0.00000000000E+00 -0.26372372668E+03  0.26372372668E+03  0.00000000000E+00 0. -1.
         25    2    1    2    0    0  0.15482022240E+02  0.17644308151E+03  0.26563776926E+03  0.34287089899E+03  0.12500069955E+03 0.  0.
          2    1    1    2  501    0  0.67812099893E+02 -0.18264593867E+02 -0.21401551781E+03  0.22524368614E+03  0.00000000000E+00 0. -1.
          1    1    1    2  502    0 -0.83294122134E+02 -0.15817848764E+03  0.14531256150E+04  0.14640807347E+04  0.00000000000E+00 0. -1.
         22    1    3    3    0    0  0.61733258797E+01 -0.19368044855E+02  0.19078796318E+02  0.27878873414E+02  0.00000000000E+00 0.  1.
         22    1    3    3    0    0  0.93086963606E+01  0.19581112636E+03  0.24655897294E+03  0.31499202557E+03  0.00000000000E+00 0.  1.
</event>
<event>
 7    1  0.6597701E-006  0.6603849E+02  0.7818608E-02  0.1502050E+00
          2   -1    0    0  502    0  0.00000000000E+00  0.00000000000E+00  0.94924295011E+02  0.94924295011E+02  0.00000000000E+00 0. -1.
          1   -1    0    0  501    0 -0.00000000000E+00 -0.00000000000E+00 -0.54957996016E+03  0.54957996016E+03  0.00000000000E+00 0. -1.
         25    2    1    2    0    0 -0.54347004075E+02  0.43204987379E+02 -0.60082561067E+02  0.15509612189E+03  0.12499850037E+03 0.  0.
          2    1    1    2  501    0 -0.88482947612E+01 -0.23668726124E+02 -0.41835444280E+03  0.41911685808E+03  0.00000000000E+00 0. -1.
          1    1    1    2  502    0  0.63195298836E+02 -0.19536261255E+02  0.23781338713E+02  0.70291275204E+02  0.00000000000E+00 0. -1.
         22    1    3    3    0    0 -0.12860347006E+02 -0.20340310868E+02 -0.74112021645E+02  0.77921168649E+02  0.00000000000E+00 0.  1.
         22    1    3    3    0    0 -0.41486657069E+02  0.63545298247E+02  0.14029460577E+02  0.77174953244E+02  0.00000000000E+00 0.  1.
</event>
<event>
 7    1  0.6597701E-006  0.9597170E+02  0.7818608E-02  0.1294458E+00
          2   -1    0    0  502    0  0.00000000000E+00  0.00000000000E+00  0.68557348001E+02  0.68557348001E+02  0.00000000000E+00 0. -1.
          1   -1    0    0  501    0 -0.00000000000E+00 -0.00000000000E+00 -0.52650612735E+03  0.52650612735E+03  0.00000000000E+00 0. -1.
         25    2    1    2    0    0 -0.74295045814E+02  0.67505199175E+02 -0.14482256639E+03  0.21604499946E+03  0.12500064123E+03 0.  0.
          2    1    1    2  501    0 -0.34189430426E+02 -0.84553797954E+02 -0.20745325840E+03  0.22661667265E+03  0.00000000000E+00 0. -1.
          1    1    1    2  502    0  0.10848447624E+03  0.17048598779E+02 -0.10567295455E+03  0.15240180323E+03  0.00000000000E+00 0. -1.
         22    1    3    3    0    0 -0.10660051288E+03  0.68891123067E+02 -0.12486043472E+03  0.17804433252E+03  0.00000000000E+00 0. -1.
         22    1    3    3    0    0  0.32305467064E+02 -0.13859238919E+01 -0.19962131669E+02  0.38000666942E+02  0.00000000000E+00 0. -1.
</event>
<event>
 7    1  0.6597701E-006  0.1133189E+03  0.7818608E-02  0.1332766E+00
          2   -1    0    0  502    0  0.00000000000E+00  0.00000000000E+00  0.91390752091E+03  0.91390752091E+03  0.00000000000E+00 0. -1.
          1   -1    0    0  501    0 -0.00000000000E+00 -0.00000000000E+00 -0.12106213423E+04  0.12106213423E+04  0.00000000000E+00 0. -1.
         25    2    1    2    0    0 -0.87457785401E+02  0.79622466391E+02 -0.20995007126E+03  0.27146406136E+03  0.12500041123E+03 0.  0.
          2    1    1    2  501    0  0.11008341458E+03 -0.29859880288E+02 -0.96570882733E+03  0.97242146716E+03  0.00000000000E+00 0. -1.
          1    1    1    2  502    0 -0.22625629179E+02 -0.49762586103E+02  0.87894507723E+03  0.88064333465E+03  0.00000000000E+00 0. -1.
         22    1    3    3    0    0  0.24241244284E+02 -0.70753519133E+01 -0.61338921557E+02  0.66333715612E+02  0.00000000000E+00 0. -1.
         22    1    3    3    0    0 -0.11169902969E+03  0.86697818304E+02 -0.14861114970E+03  0.20513034575E+03  0.00000000000E+00 0. -1.
</event>
<event>
 7    1  0.6597701E-006  0.7122300E+02  0.7818608E-02  0.1438174E+00
          2   -1    0    0  502    0  0.00000000000E+00  0.00000000000E+00  0.19729969536E+03  0.19729969536E+03  0.00000000000E+00 0. -1.
          1   -1    0    0  501    0 -0.00000000000E+00 -0.00000000000E+00 -0.11113075086E+03  0.11113075086E+03  0.00000000000E+00 0. -1.
         25    2    1    2    0    0  0.91462346332E+02 -0.16516475608E+02  0.63622841755E+02  0.16826094366E+03  0.12500289759E+03 0.  0.
          2    1    1    2  501    0 -0.58838734483E+02  0.34029814662E+02 -0.31291796500E+02  0.74827812274E+02  0.00000000000E+00 0. -1.
          1    1    1    2  502    0 -0.32623611850E+02 -0.17513339054E+02  0.53837899244E+02  0.65341690290E+02  0.00000000000E+00 0. -1.
         22    1    3    3    0    0 -0.29163477213E+02 -0.83512230906E+01 -0.25357195308E+01  0.30441438925E+02  0.00000000000E+00 0.  1.
         22    1    3    3    0    0  0.12062582355E+03 -0.81652525174E+01  0.66158561286E+02  0.13781950474E+03  0.00000000000E+00 0.  1.
</event>
<event>
 7    1  0.6597701E-006  0.4374093E+02  0.7818608E-02  0.1495993E+00
          2   -1    0    0  502    0  0.00000000000E+00  0.00000000000E+00  0.65190700682E+03  0.65190700682E+03  0.00000000000E+00 0. -1.
          1   -1    0    0  501    0 -0.00000000000E+00 -0.00000000000E+00 -0.89472798606E+02  0.89472798606E+02  0.00000000000E+00 0. -1.
         25    2    1    2    0    0 -0.62165030760E+02 -0.49072946926E+02  0.20036925978E+03  0.24908945891E+03  0.12500029243E+03 0.  0.
          2    1    1    2  501    0  0.36719893081E+02  0.15282591488E+02 -0.57875726555E+02  0.70224695619E+02  0.00000000000E+00 0. -1.
          1    1    1    2  502    0  0.25445137679E+02  0.33790355438E+02  0.41994067499E+03  0.42206565089E+03  0.00000000000E+00 0. -1.
         22    1    3    3    0    0 -0.26950580239E+02  0.18253314323E+02 -0.23146482652E+01  0.32632420315E+02  0.00000000000E+00 0.  1.
         22    1    3    3    0    0 -0.35214450521E+02 -0.67326261249E+02  0.20268390804E+03  0.21645703860E+03  0.00000000000E+00 0.  1.
</event>
<event>
 7    1  0.6597701E-006  0.8991983E+02  0.7818608E-02  0.1448935E+00
          2   -1    0    0  502    0  0.00000000000E+00  0.00000000000E+00  0.22289383892E+03  0.22289383892E+03  0.00000000000E+00 0. -1.
          1   -1    0    0  501    0 -0.00000000000E+00 -0.00000000000E+00 -0.20071946726E+04  0.20071946726E+04  0.00000000000E+00 0. -1.
         25    2    1    2    0    0  0.84793734045E+02 -0.21696420412E+02 -0.33752868862E+02  0.15628481963E+03  0.12499990679E+03 0.  0.
          2    1    1    2  501    0 -0.89897015452E+02 -0.48914293540E+01 -0.19099742887E+04  0.19120949723E+04  0.00000000000E+00 0. -1.
          1    1    1    2  502    0  0.51032814075E+01  0.26587849766E+02  0.15942632391E+03  0.16170871959E+03  0.00000000000E+00 0. -1.
         22    1    3    3    0    0 -0.98448756831E+01  0.13868819861E+02  0.31610082900E+02  0.35895167955E+02  0.00000000000E+00 0.  1.
         22    1    3    3    0    0  0.94638609728E+02 -0.35565240273E+02 -0.65362951763E+02  0.12038965167E+03  0.00000000000E+00 0.  1.
</event>
<event>
 7    1  0.6597701E-006  0.8129639E+02  0.7818608E-02  0.1397008E+00
          2   -1    0    0  502    0  0.00000000000E+00  0.00000000000E+00  0.87555743699E+03  0.87555743699E+03  0.00000000000E+00 0. -1.
          1   -1    0    0  501    0 -0.00000000000E+00 -0.00000000000E+00 -0.33600664639E+03  0.33600664639E+03  0.00000000000E+00 0. -1.
         25    2    1    2    0    0  0.54120018048E+02 -0.99674608576E+02  0.17029015172E+03  0.23976557476E+03  0.12499916447E+03 0.  0.
          2    1    1    2  501    0 -0.38934907315E+02  0.21699432275E+02 -0.29724850790E+03  0.30057190124E+03  0.00000000000E+00 0. -1.
          1    1    1    2  502    0 -0.15185110733E+02  0.77975176302E+02  0.66650914678E+03  0.67122660738E+03  0.00000000000E+00 0. -1.
         22    1    3    3    0    0  0.17757977762E+02  0.12841781361E+02 -0.10055385810E+02  0.24111572045E+02  0.00000000000E+00 0. -1.
         22    1    3    3    0    0  0.36362040286E+02 -0.11251638994E+03  0.18034553753E+03  0.21565400271E+03  0.00000000000E+00 0. -1.
</event>
<event>
 7    1  0.6597701E-006  0.7253478E+02  0.7818608E-02  0.1373616E+00
          2   -1    0    0  502    0  0.00000000000E+00  0.00000000000E+00  0.16392904200E+04  0.16392904200E+04  0.00000000000E+00 0. -1.
          1   -1    0    0  501    0 -0.00000000000E+00 -0.00000000000E+00 -0.41338903716E+03  0.41338903716E+03  0.00000000000E+00 0. -1.
         25    2    1    2    0    0 -0.29669841818E+02 -0.81400403401E+02  0.24715825092E+03  0.29020615977E+03  0.12500435585E+03 0.  0.
          2    1    1    2  501    0  0.58608236704E+02  0.14468216645E+02 -0.38856282147E+03  0.39322426290E+03  0.00000000000E+00 0. -1.
          1    1    1    2  502    0 -0.28938394886E+02  0.66932186756E+02  0.13673059534E+04  0.13692490345E+04  0.00000000000E+00 0. -1.
         22    1    3    3    0    0 -0.77169499121E+02 -0.65937097330E+02  0.15280491300E+03  0.18344528840E+03  0.00000000000E+00 0.  1.
         22    1    3    3    0    0  0.47499657303E+02 -0.15463306071E+02  0.94353337921E+02  0.10676087137E+03  0.00000000000E+00 0.  1.
</event>
<event>
 7    1  0.6597701E-006  0.4736041E+02  0.7818608E-02  0.1495865E+00
          2   -1    0    0  502    0  0.00000000000E+00  0.00000000000E+00  0.16501580889E+04  0.16501580889E+04  0.00000000000E+00 0. -1.
          1   -1    0    0  501    0 -0.00000000000E+00 -0.00000000000E+00 -0.49697127663E+03  0.49697127663E+03  0.00000000000E+00 0. -1.
         25    2    1    2    0    0 -0.46390739651E+02 -0.77484025790E+01 -0.99420172007E+02  0.16648846745E+03  0.12498760228E+03 0.  0.
          2    1    1    2  501    0  0.38837236699E+02 -0.28233220989E+02 -0.36222346810E+03  0.36539196291E+03  0.00000000000E+00 0. -1.
          1    1    1    2  502    0  0.75535029525E+01  0.35981623568E+02  0.16148304524E+04  0.16152489352E+04  0.00000000000E+00 0. -1.
         22    1    3    3    0    0 -0.49289878271E+02  0.13280157362E+02  0.12514163565E+02  0.52559099776E+02  0.00000000000E+00 0. -1.
         22    1    3    3    0    0  0.28991386195E+01 -0.21028559941E+02 -0.11193433557E+03  0.11392936767E+03  0.00000000000E+00 0. -1.
</event>
<event>
 7    1  0.6597701E-006  0.1419960E+03  0.7818608E-02  0.1361928E+00
          2   -1    0    0  502    0  0.00000000000E+00  0.00000000000E+00  0.52048382576E+03  0.52048382576E+03  0.00000000000E+00 0. -1.
          1   -1    0    0  501    0 -0.00000000000E+00 -0.00000000000E+00 -0.26600072159E+04  0.26600072159E+04  0.00000000000E+00 0. -1.
         25    2    1    2    0    0  0.15629462574E+03  0.60883224130E+01  0.25705342224E+03  0.32582011385E+03  0.12496882410E+03 0.  0.
          2    1    1    2  501    0 -0.13766408810E+03 -0.34506492514E+02 -0.26224341359E+04  0.26262716722E+04  0.00000000000E+00 0. -1.
          1    1    1    2  502    0 -0.18630537648E+02  0.28418170101E+02  0.22585732357E+03  0.22839925555E+03  0.00000000000E+00 0. -1.
         22    1    3    3    0    0  0.73928274888E+02  0.22723486746E+02  0.22143531883E+03  0.23455350585E+03  0.00000000000E+00 0.  1.
         22    1    3    3    0    0  0.82366350857E+02 -0.16635164333E+02  0.35618103402E+02  0.91266608000E+02  0.00000000000E+00 0.  1.
</event>
<event>
 7    1  0.6597701E-006  0.9637490E+02  0.7818608E-02  0.1456622E+00
          2   -1    0    0  502    0  0.00000000000E+00  0.00000000000E+00  0.18694607898E+03  0.18694607898E+03  0.00000000000E+00 0. -1.
          1   -1    0    0  501    0 -0.00000000000E+00 -0.00000000000E+00 -0.53476669376E+03  0.53476669376E+03  0.00000000000E+00 0. -1.
         25    2    1    2    0    0 -0.66212695729E+02 -0.87723868208E+02 -0.36880285178E+03  0.40462660439E+03  0.12501018906E+03 0.  0.
          2    1    1    2  501    0  0.23818450861E+02  0.16342328727E+01 -0.13328571665E+03  0.13540705884E+03  0.00000000000E+00 0. -1.
          1    1    1    2  502    0  0.42394244868E+02  0.86089635336E+02  0.15426795365E+03  0.18167910951E+03  0.00000000000E+00 0. -1.
         22    1    3    3    0    0  0.18647743195E+02 -0.22406691023E+02 -0.11025323041E+02  0.31166582698E+02  0.00000000000E+00 0. -1.
         22    1    3    3    0    0 -0.84860438925E+02 -0.65317177185E+02 -0.35777752874E+03  0.37346002169E+03  0.00000000000E+00 0. -1.
</event>
<event>
 7    1  0.6597701E-006  0.8660347E+02  0.7818608E-02  0.1338510E+00
          2   -1    0    0  502    0  0.00000000000E+00  0.00000000000E+00  0.17074138987E+04  0.17074138987E+04  0.00000000000E+00 0. -1.
          1   -1    0    0  501    0 -0.00000000000E+00 -0.00000000000E+00 -0.58822710606E+03  0.58822710606E+03  0.00000000000E+00 0. -1.
         25    2    1    2    0    0  0.14121822234E+03 -0.37942109124E+02  0.49567471743E+03  0.53169399941E+03  0.12499157387E+03 0.  0.
          2    1    1    2  501    0 -0.59200398072E+02  0.33522493398E+02 -0.56676786387E+03  0.57083645312E+03  0.00000000000E+00 0. -1.
          1    1    1    2  502    0 -0.82017824271E+02  0.44196157268E+01  0.11902799391E+04  0.11931105523E+04  0.00000000000E+00 0. -1.
         22    1    3    3    0    0  0.12918424327E+03 -0.32263318630E+02  0.23057005014E+03  0.26625558859E+03  0.00000000000E+00 0.  1.
         22    1    3    3    0    0  0.12033979077E+02 -0.56787904946E+01  0.26510466729E+03  0.26543841081E+03  0.00000000000E+00 0.  1.
</event>
<event>
 7    1  0.6597701E-006  0.7377951E+02  0.7818608E-02  0.1354823E+00
          2   -1    0    0  502    0  0.00000000000E+00  0.00000000000E+00  0.71441273491E+02  0.71441273491E+02  0.00000000000E+00 0. -1.
          1   -1    0    0  501    0 -0.00000000000E+00 -0.00000000000E+00 -0.14006723568E+04  0.14006723568E+04  0.00000000000E+00 0. -1.
         25    2    1    2    0    0 -0.28066106306E+02 -0.25086521664E+02 -0.24168923536E+03  0.27469130259E+03  0.12499834135E+03 0.  0.
          2    1    1    2  501    0  0.59781516017E+02 -0.43238712483E+02 -0.11148568311E+04  0.11172954711E+04  0.00000000000E+00 0. -1.
          1    1    1    2  502    0 -0.31715409711E+02  0.68325234147E+02  0.27314983186E+02  0.80126856551E+02  0.00000000000E+00 0. -1.
         22    1    3    3    0    0  0.29428026230E+02  0.12068848537E+02 -0.10368353523E+02  0.33453977156E+02  0.00000000000E+00 0. -1.
         22    1    3    3    0    0 -0.57494132536E+02 -0.37155370201E+02 -0.23132088183E+03  0.24123732543E+03  0.00000000000E+00 0. -1.
</event>
<event>
 7    1  0.6597701E-006  0.1525183E+03  0.7818608E-02  0.1315402E+00
          2   -1    0    0  502    0  0.00000000000E+00  0.00000000000E+00  0.27120125551E+04  0.27120125551E+04  0.00000000000E+00 0. -1.
          1   -1    0    0  501    0 -0.00000000000E+00 -0.00000000000E+00 -0.38390936452E+03  0.38390936452E+03  0.00000000000E+00 0. -1.
         25    2    1    2    0    0 -0.65594940586E+02 -0.93882472223E+02  0.14544696248E+02  0.17016193303E+03  0.12500768153E+03 0.  0.
          2    1    1    2  501    0  0.45622745557E+01 -0.47164373362E+02 -0.30199772313E+03  0.30569252074E+03  0.00000000000E+00 0. -1.
          1    1    1    2  502    0  0.61032666030E+02  0.14104684558E+03  0.26155562175E+04  0.26200674659E+04  0.00000000000E+00 0. -1.
         22    1    3    3    0    0  0.18705416460E+02 -0.59086726970E+02  0.42061461646E+02  0.74901938992E+02  0.00000000000E+00 0. -1.
         22    1    3    3    0    0 -0.84300357045E+02 -0.34795745252E+02 -0.27516765398E+02  0.95259994035E+02  0.00000000000E+00 0. -1.
</event>
<event>
 7    1  0.6597701E-006  0.9784243E+02  0.7818608E-02  0.1317306E+00
          2   -1    0    0  502    0  0.00000000000E+00  0.00000000000E+00  0.10839495006E+04  0.10839495006E+04  0.00000000000E+00 0. -1.
          1   -1    0    0  501    0 -0.00000000000E+00 -0.00000000000E+00 -0.36619966203E+03  0.36619966203E+03  0.00000000000E+00 0. -1.
         25    2    1    2    0    0 -0.34113026037E+02 -0.12729961361E+02  0.75812008814E+02  0.15065496321E+03  0.12499482708E+03 0.  0.
          2    1    1    2  501    0 -0.33631928454E+02 -0.64352436890E+02 -0.32201212023E+03  0.33009718011E+03  0.00000000000E+00 0. -1.
          1    1    1    2  502    0  0.67744954491E+02  0.77082398251E+02  0.96394995002E+03  0.96939701935E+03  0.00000000000E+00 0. -1.
         22    1    3    3    0    0 -0.73071528935E+02  0.40944342261E+01  0.79501453343E+02  0.10805875169E+03  0.00000000000E+00 0.  1.
         22    1    3    3    0    0  0.38958502898E+02 -0.16824395587E+02 -0.36894445291E+01  0.42596211521E+02  0.00000000000E+00 0.  1.
</event>
<event>
 7    1  0.6597701E-006  0.1147363E+03  0.7818608E-02  0.1335059E+00
          2   -1    0    0  502    0  0.00000000000E+00  0.00000000000E+00  0.31332647708E+03  0.31332647708E+03  0.00000000000E+00 0. -1.
          1   -1    0    0  501    0 -0.00000000000E+00 -0.00000000000E+00 -0.26203671524E+04  0.26203671524E+04  0.00000000000E+00 0. -1.
         25    2    1    2    0    0 -0.64117062500E+02  0.28007433373E+01 -0.10798144998E+03  0.17721052492E+03  0.12499893894E+03 0.  0.
          2    1    1    2  501    0  0.11671433003E+03  0.30125626347E+01 -0.24738701398E+04  0.24766236652E+04  0.00000000000E+00 0. -1.
          1    1    1    2  502    0 -0.52597267527E+02 -0.58133059720E+01  0.27481091448E+03  0.27985943936E+03  0.00000000000E+00 0. -1.
         22    1    3    3    0    0 -0.92263243942E+02 -0.27356884046E+02 -0.57829062277E+02  0.11227246203E+03  0.00000000000E+00 0. -1.
         22    1    3    3    0    0  0.28146181442E+02  0.30157627383E+02 -0.50152387707E+02  0.64938062890E+02  0.00000000000E+00 0. -1.
</event>
<event>
 7    1  0.6597701E-006  0.4390048E+02  0.7818608E-02  0.1580114E+00
          2   -1    0    0  502    0  0.00000000000E+00  0.00000000000E+00  0.17266730786E+04  0.17266730786E+04  0.00000000000E+00 0. -1.
          1   -1    0    0  501    0 -0.00000000000E+00 -0.00000000000E+00 -0.51423232804E+02  0.51423232804E+02  0.00000000000E+00 0. -1.
         25    2    1    2    0    0  0.15529901074E+02  0.49457673993E+02  0.70081242725E+03  0.71375756628E+03  0.12499826353E+03 0.  0.
          2    1    1    2  501    0  0.65227848573E+01 -0.43370465762E+02 -0.34091895690E+02  0.55549989869E+02  0.00000000000E+00 0. -1.
          1    1    1    2  502    0 -0.22052685932E+02 -0.60872082307E+01  0.10085293142E+04  0.10087887552E+04  0.00000000000E+00 0. -1.
         22    1    3    3    0    0 -0.13901383213E+02 -0.37091000571E+02  0.13811558114E+03  0.14368334814E+03  0.00000000000E+00 0.  1.
         22    1    3    3    0    0  0.29431284287E+02  0.86548674563E+02  0.56269684611E+03  0.57007421814E+03  0.00000000000E+00 0.  1.
</event>
<event>
 7    1  0.6597701E-006  0.8445303E+02  0.7818608E-02  0.1395226E+00
          2   -1    0    0  502    0  0.00000000000E+00  0.00000000000E+00  0.29093533638E+03  0.29093533638E+03  0.00000000000E+00 0. -1.
          1   -1    0    0  501    0 -0.00000000000E+00 -0.00000000000E+00 -0.15072899179E+04  0.15072899179E+04  0.00000000000E+00 0. -1.
         25    2    1    2    0    0 -0.70655027623E+02  0.35127750626E+02 -0.15080465616E+02  0.14858205357E+03  0.12499245740E+03 0.  0.
          2    1    1    2  501    0  0.84540868194E+02  0.61180303263E+01 -0.14220726390E+04  0.14245964970E+04  0.00000000000E+00 0. -1.
          1    1    1    2  502    0 -0.13885840571E+02 -0.41245780953E+02  0.22079852313E+03  0.22504670367E+03  0.00000000000E+00 0. -1.
         22    1    3    3    0    0 -0.44369982219E+02 -0.19300135724E+02  0.43018656847E+02  0.64744076161E+02  0.00000000000E+00 0.  1.
         22    1    3    3    0    0 -0.26285045403E+02  0.54427886351E+02 -0.58099122463E+02  0.83837977405E+02  0.00000000000E+00 0.  1.
</event>
<event>
 7    1  0.6597701E-006  0.1933720E+03  0.7818608E-02  0.1217270E+00
          2   -1    0    0  502    0  0.00000000000E+00  0.00000000000E+00  0.91718603452E+02  0.91718603452E+02  0.00000000000E+00 0. -1.
          1   -1    0    0  501    0 -0.00000000000E+00 -0.00000000000E+00 -0.22891076164E+04  0.22891076164E+04  0.00000000000E+00 0. -1.
         25    2    1    2    0    0  0.26496790569E+02  0.19196749983E+03 -0.74162778968E+03  0.77665518288E+03  0.12501157451E+03 0.  0.
          2    1    1    2  501    0  0.91081580610E+02 -0.33995716382E+02 -0.13945737974E+04  0.13979583826E+04  0.00000000000E+00 0. -1.
          1    1    1    2  502    0 -0.11757837118E+03 -0.15797178345E+03 -0.61187425840E+02  0.20621265436E+03  0.00000000000E+00 0. -1.
         22    1    3    3    0    0  0.28316235895E+02  0.12607581369E+03 -0.25793525003E+03  0.28849179056E+03  0.00000000000E+00 0. -1.
         22    1    3    3    0    0 -0.18194453255E+01  0.65891686141E+02 -0.48369253966E+03  0.48816339232E+03  0.00000000000E+00 0. -1.
</event>
<event>
 7    1  0.6597701E-006  0.5226135E+02  0.7818608E-02  0.1442646E+00
          2   -1    0    0  502    0  0.00000000000E+00  0.00000000000E+00  0.35933628717E+03  0.35933628717E+03  0.00000000000E+00 0. -1.
          1   -1    0    0  501    0 -0.00000000000E+00 -0.00000000000E+00 -0.39299457261E+03  0.39299457261E+03  0.00000000000E+00 0. -1.
         25    2    1    2    0    0 -0.86329098834E+02 -0.17679738955E+02  0.54697835576E+02  0.16239657246E+03  0.12496202245E+03 0.  0.
          2    1    1    2  501    0  0.49695332327E+02 -0.14566751232E+02 -0.33476088505E+03  0.33874277329E+03  0.00000000000E+00 0. -1.
          1    1    1    2  502    0  0.36633766506E+02  0.32246490187E+02  0.24640476404E+03  0.25119151403E+03  0.00000000000E+00 0. -1.
         22    1    3    3    0    0  0.23768914266E+02  0.28980697297E+01  0.43729717200E+02  0.49856276034E+02  0.00000000000E+00 0. -1.
         22    1    3    3    0    0 -0.11009801310E+03 -0.20577808685E+02  0.10968118376E+02  0.11254029643E+03  0.00000000000E+00 0. -1.
</event>
<event>
 7    1  0.6597701E-006  0.1234785E+03  0.7818608E-02  0.1264350E+00
          2   -1    0    0  502    0  0.00000000000E+00  0.00000000000E+00  0.19799617767E+04  0.19799617767E+04  0.00000000000E+00 0. -1.
          1   -1    0    0  501    0 -0.00000000000E+00 -0.00000000000E+00 -0.21272635847E+02  0.21272635847E+02  0.00000000000E+00 0. -1.
         25    2    1    2    0    0 -0.59399446340E+02  0.45426564674E+02  0.79504913299E+03  0.80828226702E+03  0.12500092924E+03 0.  0.
          2    1    1    2  501    0  0.11940526165E+03 -0.11834414605E+03  0.71856454821E+03  0.73796880920E+03  0.00000000000E+00 0. -1.
          1    1    1    2  502    0 -0.60005815312E+02  0.72917581376E+02  0.44507545969E+03  0.45498333636E+03  0.00000000000E+00 0. -1.
         22    1    3    3    0    0 -0.69831524372E+02  0.69273285153E+02  0.38358933780E+03  0.39600001251E+03  0.00000000000E+00 0.  1.
         22    1    3    3    0    0  0.10432078032E+02 -0.23846720480E+02  0.41145979519E+03  0.41228225451E+03  0.00000000000E+00 0.  1.
</event>
<event>
 7    1  0.6597701E-006  0.8532401E+02  0.7818608E-02  0.1415771E+00
          2   -1    0    0  502    0  0.00000000000E+00  0.00000000000E+00  0.55904440894E+03  0.55904440894E+03  0.00000000000E+00 0. -1.
          1   -1    0    0  501    0 -0.00000000000E+00 -0.00000000000E+00 -0.75100616933E+03  0.75100616933E+03  0.00000000000E+00 0. -1.
         25    2    1    2    0    0  0.10425852930E+03  0.57504678195E+02  0.18946380384E+03  0.25631771596E+03  0.12500243838E+03 0.  0.
          2    1    1    2  501    0 -0.79190549338E+02 -0.30759458737E+02 -0.71405435390E+03  0.71909033350E+03  0.00000000000E+00 0. -1.
          1    1    1    2  502    0 -0.25067979958E+02 -0.26745219458E+02  0.33262878966E+03  0.33464252882E+03  0.00000000000E+00 0. -1.
         22    1    3    3    0    0  0.11019127822E+03  0.87886326545E+02  0.16391167996E+03  0.21617854430E+03  0.00000000000E+00 0. -1.
         22    1    3    3    0    0 -0.59327489242E+01 -0.30381648350E+02  0.25552123883E+02  0.40139171655E+02  0.00000000000E+00 0. -1.
</event>
<event>
 7    1  0.6597701E-006  0.9336674E+02  0.7818608E-02  0.1306767E+00
          2   -1    0    0  502    0  0.00000000000E+00  0.00000000000E+00  0.15533136228E+04  0.15533136228E+04  0.00000000000E+00 0. -1.
          1   -1    0    0  501    0 -0.00000000000E+00 -0.00000000000E+00 -0.73173895610E+02  0.73173895610E+02  0.00000000000E+00 0. -1.
         25    2    1    2    0    0  0.47343175966E+01 -0.56711333847E+02  0.54414524179E+03  0.56121131236E+03  0.12500201520E+03 0.  0.
          2    1    1    2  501    0 -0.78568975344E+02 -0.28861379843E+02 -0.32808644115E+02  0.89902559818E+02  0.00000000000E+00 0. -1.
          1    1    1    2  502    0  0.73834657748E+02  0.85572713690E+02  0.96880312950E+03  0.97537364622E+03  0.00000000000E+00 0. -1.
         22    1    3    3    0    0 -0.44527197899E+02 -0.72932457053E+02  0.33267451839E+03  0.34347365231E+03  0.00000000000E+00 0.  1.
         22    1    3    3    0    0  0.49261515496E+02  0.16221123206E+02  0.21147072341E+03  0.21773766005E+03  0.00000000000E+00 0.  1.
</event>
<event>
 7    1  0.6597701E-006  0.2547412E+03  0.7818608E-02  0.1290834E+00
          2   -1    0    0  502    0  0.00000000000E+00  0.00000000000E+00  0.16276259157E+04  0.16276259157E+04  0.00000000000E+00 0. -1.
          1   -1    0    0  501    0 -0.00000000000E+00 -0.00000000000E+00 -0.10730808793E+04  0.10730808793E+04  0.00000000000E+00 0. -1.
         25    2    1    2    0    0  0.21105057543E+03  0.10359812901E+03 -0.52352429775E+02  0.27136857823E+03  0.12500084250E+03 0.  0.
          2    1    1    2  501    0 -0.24286147115E+03 -0.87746511448E+02 -0.89271112553E+03  0.92930850534E+03  0.00000000000E+00 0. -1.
          1    1    1    2  502    0  0.31810895724E+02 -0.15851617558E+02  0.14996085917E+04  0.15000297114E+04  0.00000000000E+00 0. -1.
         22    1    3    3    0    0  0.55452335212E+02  0.87369742124E+02  0.77661861073E+01  0.10377257328E+03  0.00000000000E+00 0. -1.
         22    1    3    3    0    0  0.15559824022E+03  0.16228386881E+02 -0.60118615883E+02  0.16759600495E+03  0.00000000000E+00 0. -1.
</event>
<event>
 7    1  0.6597701E-006  0.6448194E+02  0.7818608E-02  0.1452049E+00
          2   -1    0    0  502    0  0.00000000000E+00  0.00000000000E+00  0.27297528240E+04  0.27297528240E+04  0.00000000000E+00 0. -1.
          1   -1    0    0  501    0 -0.00000000000E+00 -0.00000000000E+00 -0.33894765891E+03  0.33894765891E+03  0.00000000000E+00 0. -1.
         25    2    1    2    0    0 -0.79164187823E+02  0.61782004436E+02  0.21021575482E+03  0.26438388096E+03  0.12499675288E+03 0.  0.
          2    1    1    2  501    0  0.31601457040E+02 -0.19047297207E+02 -0.31036050962E+03  0.31254615267E+03  0.00000000000E+00 0. -1.
          1    1    1    2  502    0  0.47562730783E+02 -0.42734707229E+02  0.24909499199E+04  0.24917704493E+04  0.00000000000E+00 0. -1.
         22    1    3    3    0    0 -0.95432843785E+02  0.30934898822E+02  0.20616138262E+03  0.22927475073E+03  0.00000000000E+00 0.  1.
         22    1    3    3    0    0  0.16268655962E+02  0.30847105614E+02  0.40543721982E+01  0.35109130230E+02  0.00000000000E+00 0.  1.
</event>
<event>
 7    1  0.6597701E-006  0.3452216E+02  0.7818608E-02  0.1553434E+00
          2   -1    0    0  502    0  0.00000000000E+00  0.00000000000E+00  0.16759545121E+03  0.16759545121E+03  0.00000000000E+00 0. -1.
          1   -1    0    0  501    0 -0.00000000000E+00 -0.00000000000E+00 -0.12376743901E+03  0.12376743901E+03  0.00000000000E+00 0. -1.
         25    2    1    2    0    0  0.37791021499E+02 -0.16192237536E+02  0.51635661421E+02  0.14134642040E+03  0.12498887618E+03 0.  0.
          2    1    1    2  501    0 -0.70376138543E+01  0.33673564781E+02 -0.70266532267E+02  0.78235685787E+02  0.00000000000E+00 0. -1.
          1    1    1    2  502    0 -0.30753407645E+02 -0.17481327245E+02  0.62458883045E+02  0.71780784025E+02  0.00000000000E+00 0. -1.
         22    1    3    3    0    0  0.32001559474E+02  0.16358456046E+02 -0.34046934106E+02  0.49506490635E+02  0.00000000000E+00 0. -1.
         22    1    3    3    0    0  0.57894620254E+01 -0.32550693582E+02  0.85682595528E+02  0.91839929767E+02  0.00000000000E+00 0. -1.
</event>
<event>
 7    1  0.6597701E-006  0.8009182E+02  0.7818608E-02  0.1470069E+00
          2   -1    0    0  502    0  0.00000000000E+00  0.00000000000E+00  0.10627086510E+04  0.10627086510E+04  0.00000000000E+00 0. -1.
          1   -1    0    0  501    0 -0.00000000000E+00 -0.00000000000E+00 -0.12751131375E+04  0.12751131375E+04  0.00000000000E+00 0. -1.
         25    2    1    2    0    0  0.50491469135E+02 -0.31707060975E+02 -0.24550925183E+03  0.28187878209E+03  0.12500451546E+03 0.  0.
          2    1    1    2  501    0  0.25420305410E+02  0.57695220614E+01 -0.10097104043E+04  0.10100468207E+04  0.00000000000E+00 0. -1.
          1    1    1    2  502    0 -0.75911774545E+02  0.25937538913E+02  0.10428151697E+04  0.10458961858E+04  0.00000000000E+00 0. -1.
         22    1    3    3    0    0  0.64975745258E+01 -0.75840934025E+02 -0.13084281797E+03  0.15137340838E+03  0.00000000000E+00 0.  1.
         22    1    3    3    0    0  0.43993894610E+02  0.44133873050E+02 -0.11466643386E+03  0.13050537371E+03  0.00000000000E+00 0.  1.
</event>
<event>
 7    1  0.6597701E-006  0.1818910E+03  0.7818608E-02  0.1283515E+00
          2   -1    0    0  502    0  0.00000000000E+00  0.00000000000E+00  0.28982781380E+04  0.28982781380E+04  0.00000000000E+00 0. -1.
          1   -1    0    0  501    0 -0.00000000000E+00 -0.00000000000E+00 -0.48075080962E+03  0.48075080962E+03  0.00000000000E+00 0. -1.
         25    2    1    2    0    0  0.20041214378E+03  0.97102305372E+02  0.62516739845E+03  0.67531683126E+03  0.12499864566E+03 0.  0.
          2    1    1    2  501    0 -0.14760212296E+03 -0.10449148222E+03 -0.43740172662E+03  0.47331292715E+03  0.00000000000E+00 0. -1.
          1    1    1    2  502    0 -0.52810020821E+02  0.73891768506E+01  0.22297616565E+04  0.22303991892E+04  0.00000000000E+00 0. -1.
         22    1    3    3    0    0  0.32682861398E+02 -0.17455047608E+02  0.34220289430E+02  0.50436854827E+02  0.00000000000E+00 0. -1.
         22    1    3    3    0    0  0.16772928238E+03  0.11455735298E+03  0.59094710902E+03  0.62487997644E+03  0.00000000000E+00 0. -1.
</event>
<event>
 7    1  0.6597701E-006  0.5969471E+02  0.7818608E-02  0.1524785E+00
          2   -1    0    0  502    0  0.00000000000E+00  0.00000000000E+00  0.13431981382E+04  0.13431981382E+04  0.00000000000E+00 0. -1.
          1   -1    0    0  501    0 -0.00000000000E+00 -0.00000000000E+00 -0.60532104339E+02  0.60532104339E+02  0.00000000000E+00 0. -1.
         25    2    1    2    0    0 -0.49329039101E+02 -0.56206498136E+02  0.21600540516E+03  0.26053100358E+03  0.12500217693E+03 0.  0.
          2    1    1    2  501    0 -0.38870320129E+00  0.23975599347E+02 -0.33636169602E+02  0.41308260187E+02  0.00000000000E+00 0. -1.
          1    1    1    2  502    0  0.49717742302E+02  0.32230898789E+02  0.11002967983E+04  0.11018909787E+04  0.00000000000E+00 0. -1.
         22    1    3    3    0    0 -0.20092988033E+02 -0.78456488605E+02  0.61432583634E+02  0.10165191146E+03  0.00000000000E+00 0. -1.
         22    1    3    3    0    0 -0.29236051068E+02  0.22249990470E+02  0.15457282152E+03  0.15887909212E+03  0.00000000000E+00 0. -1.
</event>
<event>
 7    1  0.6597701E-006  0.2882653E+03  0.7818608E-02  0.1280359E+00
          2   -1    0    0  502    0  0.00000000000E+00  0.00000000000E+00  0.25901764612E+04  0.25901764612E+04  0.00000000000E+00 0. -1.
          1   -1    0    0  501    0 -0.00000000000E+00 -0.00000000000E+00 -0.15179194466E+04  0.15179194466E+04  0.00000000000E+00 0. -1.
         25    2    1    2    0    0  0.21291869296E+03 -0.23610676171E+03  0.42887076167E+03  0.54830291400E+03  0.12500073020E+03 0.  0.
          2    1    1    2  501    0 -0.20115109501E+02  0.28237622380E+02 -0.14484328511E+04  0.14488477163E+04  0.00000000000E+00 0. -1.
          1    1    1    2  502    0 -0.19280358346E+03  0.20786913933E+03  0.20918191040E+04  0.21109452775E+04  0.00000000000E+00 0. -1.
         22    1    3    3    0    0  0.18979729178E+03 -0.19222528982E+03  0.27026093469E+03  0.38211849842E+03  0.00000000000E+00 0. -1.
         22    1    3    3    0    0  0.23121401177E+02 -0.43881471883E+02  0.15860982698E+03  0.16618441558E+03  0.00000000000E+00 0. -1.
</event>
<event>
 7    1  0.6597701E-006  0.1219244E+03  0.7818608E-02  0.1286676E+00
          2   -1    0    0  502    0  0.00000000000E+00  0.00000000000E+00  0.32472532051E+03  0.32472532051E+03  0.00000000000E+00 0. -1.
          1   -1    0    0  501    0 -0.00000000000E+00 -0.00000000000E+00 -0.13772415152E+04  0.13772415152E+04  0.00000000000E+00 0. -1.
         25    2    1    2    0    0  0.44623443408E+02 -0.10626550059E+02  0.16758349200E+03  0.21404004929E+03  0.12499896256E+03 0.  0.
          2    1    1    2  501    0 -0.11875317558E+03  0.32227138563E+02 -0.13398247032E+04  0.13454631695E+04  0.00000000000E+00 0. -1.
          1    1    1    2  502    0  0.74129732175E+02 -0.21600588504E+02  0.11972501642E+03  0.14246361701E+03  0.00000000000E+00 0. -1.
         22    1    3    3    0    0  0.71697586118E+02 -0.18851665939E+02  0.41786941756E+02  0.85100397561E+02  0.00000000000E+00 0. -1.
         22    1    3    3    0    0 -0.27074142710E+02  0.82251158801E+01  0.12579655024E+03  0.12893965173E+03  0.00000000000E+00 0. -1.
</event>
<event>
 7    1  0.6597701E-006  0.1397799E+03  0.7818608E-02  0.1270766E+00
          2   -1    0    0  502    0  0.00000000000E+00  0.00000000000E+00  0.11442556249E+04  0.11442556249E+04  0.00000000000E+00 0. -1.
          1   -1    0    0  501    0 -0.00000000000E+00 -0.00000000000E+00 -0.34257379970E+03  0.34257379970E+03  0.00000000000E+00 0. -1.
         25    2    1    2    0    0  0.16415627318E+03 -0.24765409587E+02  0.53462473361E+03  0.57359207420E+03  0.12499461694E+03 0.  0.
          2    1    1    2  501    0 -0.13159401434E+03 -0.46534077590E+02 -0.30521786838E+03  0.33561935606E+03  0.00000000000E+00 0. -1.
          1    1    1    2  502    0 -0.32562258845E+02  0.71299487177E+02  0.57227495997E+03  0.57761799434E+03  0.00000000000E+00 0. -1.
         22    1    3    3    0    0  0.16374351079E+03 -0.11918586305E+02  0.53607996347E+03  0.56065650559E+03  0.00000000000E+00 0.  1.
         22    1    3    3    0    0  0.41276239193E+00 -0.12846823282E+02 -0.14552298669E+01  0.12935568607E+02  0.00000000000E+00 0.  1.
</event>
<event>
 7    1  0.6597701E-006  0.1346876E+03  0.7818608E-02  0.1353902E+00
          2   -1    0    0  502    0  0.00000000000E+00  0.00000000000E+00  0.76128928485E+03  0.76128928485E+03  0.00000000000E+00 0. -1.
          1   -1    0    0  501    0 -0.00000000000E+00 -0.00000000000E+00 -0.10425487218E+03  0.10425487218E+03  0.00000000000E+00 0. -1.
         25    2    1    2    0    0 -0.15160114170E+03 -0.18431469875E+02  0.22081309233E+03  0.29615152001E+03  0.12499870326E+03 0.  0.
          2    1    1    2  501    0  0.28130385463E+02 -0.26039411789E+02 -0.51569975190E+02  0.64255987221E+02  0.00000000000E+00 0. -1.
          1    1    1    2  502    0  0.12347075623E+03  0.44470881664E+02  0.48779129553E+03  0.50513664979E+03  0.00000000000E+00 0. -1.
         22    1    3    3    0    0 -0.33903077520E+02  0.84183788305E+01 -0.94266077073E+01  0.36182159973E+02  0.00000000000E+00 0. -1.
         22    1    3    3    0    0 -0.11769806418E+03 -0.26849848705E+02  0.23023970004E+03  0.25996936004E+03  0.00000000000E+00 0. -1.
</event>
<event>
 7    1  0.6597701E-006  0.5848032E+02  0.7818608E-02  0.1477249E+00
          2   -1    0    0  502    0  0.00000000000E+00  0.00000000000E+00  0.15268447894E+03  0.15268447894E+03  0.00000000000E+00 0. -1.
          1   -1    0    0  501    0 -0.00000000000E+00 -0.00000000000E+00 -0.51030847281E+03  0.51030847281E+03  0.00000000000E+00 0. -1.
         25    2    1    2    0    0  0.49249647657E+02 -0.74887656801E+02 -0.51254091845E+02  0.16212937569E+03  0.12500105437E+03 0.  0.
          2    1    1    2  501    0 -0.21946294377E+02  0.25862410647E+02 -0.39473317343E+03  0.39618781194E+03  0.00000000000E+00 0. -1.
          1    1    1    2  502    0 -0.27303353281E+02  0.49025246154E+02  0.88363271413E+02  0.10467576413E+03  0.00000000000E+00 0. -1.
         22    1    3    3    0    0 -0.36941102866E+02 -0.13174413042E+02 -0.39180534478E+02  0.55437573197E+02  0.00000000000E+00 0.  1.
         22    1    3    3    0    0  0.86190750524E+02 -0.61713243759E+02 -0.12073557367E+02  0.10669180249E+03  0.00000000000E+00 0.  1.
</event>
<event>
 7    1  0.6597701E-006  0.6979695E+02  0.7818608E-02  0.1482414E+00
          2   -1    0    0  502    0  0.00000000000E+00  0.00000000000E+00  0.16870270535E+03  0.16870270535E+03  0.00000000000E+00 0. -1.
          1   -1    0    0  501    0 -0.00000000000E+00 -0.00000000000E+00 -0.99397043986E+03  0.99397043986E+03  0.00000000000E+00 0. -1.
         25    2    1    2    0    0 -0.23700627031E+02  0.35892061142E+02  0.17668258787E+02  0.13336784834E+03  0.12499942331E+03 0.  0.
          2    1    1    2  501    0  0.35658995466E+02 -0.60546157429E+02 -0.93275585079E+03  0.93539878037E+03  0.00000000000E+00 0. -1.
          1    1    1    2  502    0 -0.11958368435E+02  0.24654096287E+02  0.89819857502E+02  0.93906516499E+02  0.00000000000E+00 0. -1.
         22    1    3    3    0    0 -0.27146315915E+02 -0.17983195652E+02  0.57635493577E+02  0.66197944934E+02  0.00000000000E+00 0.  1.
         22    1    3    3    0    0  0.34456888838E+01  0.53875256794E+02 -0.39967234790E+02  0.67169903404E+02  0.00000000000E+00 0.  1.
</event>
<event>
 7    1  0.6597701E-006  0.1877946E+03  0.7818608E-02  0.1296352E+00
          2   -1    0    0  502    0  0.00000000000E+00  0.00000000000E+00  0.10206399236E+04  0.10206399236E+04  0.00000000000E+00 0. -1.
          1   -1    0    0  501    0 -0.00000000000E+00 -0.00000000000E+00 -0.93134338934E+03  0.93134338934E+03  0.00000000000E+00 0. -1.
         25    2    1    2    0    0 -0.13167669870E+03 -0.10599563540E+03  0.72044685200E+03  0.75049490239E+03  0.12500041700E+03 0.  0.
          2    1    1    2  501    0  0.16988683606E+03  0.80749873851E+02 -0.90474269298E+03  0.92408950849E+03  0.00000000000E+00 0. -1.
          1    1    1    2  502    0 -0.38210137365E+02  0.25245761548E+02  0.27359237527E+03  0.27739890209E+03  0.00000000000E+00 0. -1.
         22    1    3    3    0    0  0.44751543416E+01  0.21841731945E+02  0.10472163507E+03  0.10706871210E+03  0.00000000000E+00 0. -1.
         22    1    3    3    0    0 -0.13615185304E+03 -0.12783736734E+03  0.61572521693E+03  0.64342619029E+03  0.00000000000E+00 0. -1.
</event>
<event>
 7    1  0.6597701E-006  0.4446768E+02  0.7818608E-02  0.1509703E+00
          2   -1    0    0  502    0  0.00000000000E+00  0.00000000000E+00  0.12767183523E+04  0.12767183523E+04  0.00000000000E+00 0. -1.
          1   -1    0    0  501    0 -0.00000000000E+00 -0.00000000000E+00 -0.40348812635E+02  0.40348812635E+02  0.00000000000E+00 0. -1.
         25    2    1    2    0    0  0.69889314270E+02 -0.35027150391E+02  0.34882263687E+03  0.37869884702E+03  0.12499666886E+03 0.  0.
          2    1    1    2  501    0 -0.33901293416E+02  0.10927030202E+02 -0.12146550823E+02  0.37632916193E+02  0.00000000000E+00 0. -1.
          1    1    1    2  502    0 -0.35988020854E+02  0.24100120189E+02  0.89969345360E+03  0.90073540171E+03  0.00000000000E+00 0. -1.
         22    1    3    3    0    0  0.10647852659E+03 -0.24947286637E+02  0.26538475405E+03  0.28703503518E+03  0.00000000000E+00 0. -1.
         22    1    3    3    0    0 -0.36589212324E+02 -0.10079863754E+02  0.83437882823E+02  0.91663811844E+02  0.00000000000E+00 0. -1.
</event>
<event>
 7    1  0.6597701E-006  0.6381264E+02  0.7818608E-02  0.1444069E+00
          2   -1    0    0  502    0  0.00000000000E+00  0.00000000000E+00  0.93828784126E+03  0.93828784126E+03  0.00000000000E+00 0. -1.
          1   -1    0    0  501    0 -0.00000000000E+00 -0.00000000000E+00 -0.85327714003E+03  0.85327714003E+03  0.00000000000E+00 0. -1.
         25    2    1    2    0    0  0.29176309291E+02 -0.35022426237E+02 -0.40763288587E+02  0.13910736895E+03  0.12494553628E+03 0.  0.
          2    1    1    2  501    0 -0.62940840029E+02  0.14429451870E+02 -0.76153492480E+03  0.76426775421E+03  0.00000000000E+00 0. -1.
          1    1    1    2  502    0  0.33764530738E+02  0.20592974366E+02  0.88730891462E+03  0.88818985813E+03  0.00000000000E+00 0. -1.
         22    1    3    3    0    0 -0.16615559883E+02 -0.66597658032E+02 -0.46922376604E+02  0.83144658949E+02  0.00000000000E+00 0. -1.
         22    1    3    3    0    0  0.45791869174E+02  0.31575231795E+02  0.61590880169E+01  0.55962710000E+02  0.00000000000E+00 0. -1.
</event>
<event>
 7    1  0.6597701E-006  0.9686570E+02  0.7818608E-02  0.1411277E+00
          2   -1    0    0  502    0  0.00000000000E+00  0.00000000000E+00  0.24792390145E+03  0.24792390145E+03  0.00000000000E+00 0. -1.
          1   -1    0    0  501    0 -0.00000000000E+00 -0.00000000000E+00 -0.45119135317E+03  0.45119135317E+03  0.00000000000E+00 0. -1.
         25    2    1    2    0    0  0.88230935827E+02 -0.80968909280E+02  0.43450445565E+01  0.17316010697E+03  0.12499952370E+03 0.  0.
          2    1    1    2  501    0 -0.32957064635E+02  0.56347112441E+01 -0.35221122050E+03  0.35379466068E+03  0.00000000000E+00 0. -1.
          1    1    1    2  502    0 -0.55273871193E+02  0.75334198036E+02  0.14459872422E+03  0.17216048698E+03  0.00000000000E+00 0. -1.
         22    1    3    3    0    0  0.45234444310E+02  0.16415842813E+02  0.38213228783E+02  0.61448235950E+02  0.00000000000E+00 0. -1.
         22    1    3    3    0    0  0.42996491517E+02 -0.97384752093E+02 -0.33868184227E+02  0.11171187102E+03  0.00000000000E+00 0. -1.
</event>
<event>
 7    1  0.6597701E-006  0.6776614E+02  0.7818608E-02  0.1419419E+00
          2   -1    0    0  502    0  0.00000000000E+00  0.00000000000E+00  0.16336917553E+03  0.16336917553E+03  0.00000000000E+00 0. -1.
          1   -1    0    0  501    0 -0.00000000000E+00 -0.00000000000E+00 -0.14830315083E+04  0.14830315083E+04  0.00000000000E+00 0. -1.
         25    2    1    2    0    0 -0.64559477494E+02  0.88196307103E+02 -0.16590190388E+02  0.16687359638E+03  0.12500019212E+03 0.  0.
          2    1    1    2  501    0  0.29070557721E+02 -0.60735264167E+02 -0.13847225197E+04  0.13863586571E+04  0.00000000000E+00 0. -1.
          1    1    1    2  502    0  0.35488919773E+02 -0.27461042936E+02  0.81650377274E+02  0.93168430355E+02  0.00000000000E+00 0. -1.
         22    1    3    3    0    0 -0.40473959027E+02 -0.18361904400E+02  0.23780669281E+02  0.50406558343E+02  0.00000000000E+00 0.  1.
         22    1    3    3    0    0 -0.24085518468E+02  0.10655821150E+03 -0.40370859669E+02  0.11646703804E+03  0.00000000000E+00 0.  1.
</event>
<event>
 7    1  0.6597701E-006  0.6923295E+02  0.7818608E-02  0.1466750E+00
          2   -1    0    0  502    0  0.00000000000E+00  0.00000000000E+00  0.18005111107E+03  0.18005111107E+03  0.00000000000E+00 0. -1.
          1   -1    0    0  501    0 -0.00000000000E+00 -0.00000000000E+00 -0.28265851176E+03  0.28265851176E+03  0.00000000000E+00 0. -1.
         25    2    1    2    0    0 -0.71518651521E+02 -0.15520752109E+02 -0.28981790851E+02  0.14771996694E+03  0.12500173268E+03 0.  0.
          2    1    1    2  501    0  0.16087218685E+02 -0.26361212612E+02 -0.18290594515E+03  0.18549473552E+03  0.00000000000E+00 0. -1.
          1    1    1    2  502    0  0.55431432836E+02  0.41881964721E+02  0.10928033531E+03  0.12949492037E+03  0.00000000000E+00 0. -1.
         22    1    3    3    0    0 -0.32524131310E+02  0.47703519210E+02  0.17210434949E+02  0.60246526320E+02  0.00000000000E+00 0.  1.
         22    1    3    3    0    0 -0.38994520211E+02 -0.63224271319E+02 -0.46192225801E+02  0.87473440625E+02  0.00000000000E+00 0.  1.
</event>
<event>
 7    1  0.6597701E-006  0.4781766E+02  0.7818608E-02  0.1466010E+00
          2   -1    0    0  502    0  0.00000000000E+00  0.00000000000E+00  0.67711001382E+03  0.67711001382E+03  0.00000000000E+00 0. -1.
          1   -1    0    0  501    0 -0.00000000000E+00 -0.00000000000E+00 -0.88574615216E+03  0.88574615216E+03  0.00000000000E+00 0. -1.
         25    2    1    2    0    0 -0.48972468193E+02  0.28403321284E+02 -0.12569450578E+03  0.18609285729E+03  0.12500556567E+03 0.  0.
          2    1    1    2  501    0  0.82300897652E+01 -0.47396145558E+02 -0.72827709988E+03  0.72986414023E+03  0.00000000000E+00 0. -1.
          1    1    1    2  502    0  0.40742378428E+02  0.18992824274E+02  0.64533546732E+03  0.64689916846E+03  0.00000000000E+00 0. -1.
         22    1    3    3    0    0 -0.36452715128E+02  0.57481431593E+02 -0.13336435697E+02  0.69359757318E+02  0.00000000000E+00 0. -1.
         22    1    3    3    0    0 -0.12519753065E+02 -0.29078110309E+02 -0.11235807008E+03  0.11673309997E+03  0.00000000000E+00 0. -1.
</event>
<event>
 7    1  0.6597701E-006  0.1390478E+03  0.7818608E-02  0.1393592E+00
          2   -1    0    0  502    0  0.00000000000E+00  0.00000000000E+00  0.16572136610E+03  0.16572136610E+03  0.00000000000E+00 0. -1.
          1   -1    0    0  501    0 -0.00000000000E+00 -0.00000000000E+00 -0.17358462245E+04  0.17358462245E+04  0.00000000000E+00 0. -1.
         25    2    1    2    0    0  0.78749153647E+02  0.89824860676E+02 -0.10316259008E+04  0.10460141304E+04  0.12499450785E+03 0.  0.
          2    1    1    2  501    0  0.26724750386E+02  0.17197283803E+01 -0.66594483759E+03  0.66648308041E+03  0.00000000000E+00 0. -1.
          1    1    1    2  502    0 -0.10547390403E+03 -0.91544589057E+02  0.12744587995E+03  0.18907037984E+03  0.00000000000E+00 0. -1.
         22    1    3    3    0    0 -0.33967753581E+02  0.12505599417E+02 -0.21066912185E+03  0.21375611618E+03  0.00000000000E+00 0.  1.
         22    1    3    3    0    0  0.11271690723E+03  0.77319261259E+02 -0.82095677890E+03  0.83225801418E+03  0.00000000000E+00 0.  1.
</event>
<event>
 7    1  0.6597701E-006  0.2564632E+03  0.7818608E-02  0.1217513E+00
          2   -1    0    0  502    0  0.00000000000E+00  0.00000000000E+00  0.34459293116E+03  0.34459293116E+03  0.00000000000E+00 0. -1.
          1   -1    0    0  501    0 -0.00000000000E+00 -0.00000000000E+00 -0.22013493140E+04  0.22013493140E+04  0.00000000000E+00 0. -1.
         25    2    1    2    0    0 -0.24717362075E+03 -0.12360168103E+03 -0.21369343414E+03  0.37102855398E+03  0.12500051889E+03 0.  0.
          2    1    1    2  501    0  0.19053053836E+03  0.16983292755E+03 -0.18952410130E+04  0.19123502835E+04  0.00000000000E+00 0. -1.
          1    1    1    2  502    0  0.56643082396E+02 -0.46231246521E+02  0.25217806431E+03  0.26256340769E+03  0.00000000000E+00 0. -1.
         22    1    3    3    0    0 -0.88810985073E+02 -0.99851560597E+02 -0.14379982523E+03  0.19630617657E+03  0.00000000000E+00 0.  1.
         22    1    3    3    0    0 -0.15836263568E+03 -0.23750120430E+02 -0.69893608910E+02  0.17472237741E+03  0.00000000000E+00 0.  1.
</event>
<event>
 7    1  0.6597701E-006  0.2784929E+03  0.7818608E-02  0.1328765E+00
          2   -1    0    0  502    0  0.00000000000E+00  0.00000000000E+00  0.16847276045E+04  0.16847276045E+04  0.00000000000E+00 0. -1.
          1   -1    0    0  501    0 -0.00000000000E+00 -0.00000000000E+00 -0.61616274805E+03  0.61616274805E+03  0.00000000000E+00 0. -1.
         25    2    1    2    0    0 -0.15876263842E+03 -0.24817841723E+03 -0.19596266382E+03  0.37526553391E+03  0.12499901276E+03 0.  0.
          2    1    1    2  501    0  0.22176942746E+02  0.62430202919E+01 -0.31803086920E+03  0.31886427498E+03  0.00000000000E+00 0. -1.
          1    1    1    2  502    0  0.13658569568E+03  0.24193539694E+03  0.15825583895E+04  0.16067605437E+04  0.00000000000E+00 0. -1.
         22    1    3    3    0    0 -0.10152844713E+03 -0.18058564312E+03 -0.19814165700E+03  0.28666935015E+03  0.00000000000E+00 0. -1.
         22    1    3    3    0    0 -0.57234191297E+02 -0.67592774114E+02  0.21789931780E+01  0.88596183762E+02  0.00000000000E+00 0. -1.
</event>
<event>
 7    1  0.6597701E-006  0.1366850E+03  0.7818608E-02  0.1289347E+00
          2   -1    0    0  502    0  0.00000000000E+00  0.00000000000E+00  0.78580522624E+03  0.78580522624E+03  0.00000000000E+00 0. -1.
          1   -1    0    0  501    0 -0.00000000000E+00 -0.00000000000E+00 -0.50382660425E+03  0.50382660425E+03  0.00000000000E+00 0. -1.
         25    2    1    2    0    0  0.85295401200E+01 -0.18734883394E+03 -0.33211901558E+03  0.40137317019E+03  0.12500017043E+03 0.  0.
          2    1    1    2  501    0  0.33658624310E+02  0.58126197765E+02 -0.12224024837E+03  0.13947844342E+03  0.00000000000E+00 0. -1.
          1    1    1    2  502    0 -0.42188164430E+02  0.12922263618E+03  0.73633788594E+03  0.74878021688E+03  0.00000000000E+00 0. -1.
         22    1    3    3    0    0  0.33351223020E+02 -0.39771078494E+01 -0.21707747137E+02  0.39991846038E+02  0.00000000000E+00 0. -1.
         22    1    3    3    0    0 -0.24821682900E+02 -0.18337172609E+03 -0.31041126844E+03  0.36138132415E+03  0.00000000000E+00 0. -1.
</event>
<event>
 7    1  0.6597701E-006  0.1402498E+03  0.7818608E-02  0.1294283E+00
          2   -1    0    0  502    0  0.00000000000E+00  0.00000000000E+00  0.49818230436E+03  0.49818230436E+03  0.00000000000E+00 0. -1.
          1   -1    0    0  501    0 -0.00000000000E+00 -0.00000000000E+00 -0.10438939705E+03  0.10438939705E+03  0.00000000000E+00 0. -1.
         25    2    1    2    0    0  0.46586766653E+02 -0.10620946157E+03  0.20596085359E+03  0.26738653108E+03  0.12499962896E+03 0.  0.
          2    1    1    2  501    0  0.58863101932E+02 -0.21044471700E+02 -0.23606511241E+02  0.66820669939E+02  0.00000000000E+00 0. -1.
          1    1    1    2  502    0 -0.10544986858E+03  0.12725393327E+03  0.21143856496E+03  0.26836450039E+03  0.00000000000E+00 0. -1.
         22    1    3    3    0    0 -0.20873331067E+02 -0.82411055685E+02  0.57625973874E+02  0.10270360711E+03  0.00000000000E+00 0. -1.
         22    1    3    3    0    0  0.67460097720E+02 -0.23798405882E+02  0.14833487971E+03  0.16468292397E+03  0.00000000000E+00 0. -1.
</event>
<event>
 7    1  0.6597701E-006  0.1061430E+03  0.7818608E-02  0.1357457E+00
          2   -1    0    0  502    0  0.00000000000E+00  0.00000000000E+00  0.30413124546E+04  0.30413124546E+04  0.00000000000E+00 0. -1.
          1   -1    0    0  501    0 -0.00000000000E+00 -0.00000000000E+00 -0.36150019773E+02  0.36150019773E+02  0.00000000000E+00 0. -1.
         25    2    1    2    0    0 -0.85870841241E+02 -0.37527902174E+02  0.23767283620E+03  0.28441870396E+03  0.12499390896E+03 0.  0.
          2    1    1    2  501    0 -0.21142295991E+02  0.42200173285E+02  0.35764771957E+02  0.59219677627E+02  0.00000000000E+00 0. -1.
          1    1    1    2  502    0  0.10701313723E+03 -0.46722711112E+01  0.27317248267E+04  0.27338240928E+04  0.00000000000E+00 0. -1.
         22    1    3    3    0    0  0.10877683397E+02 -0.47030517638E+02  0.34963586720E+02  0.59604076888E+02  0.00000000000E+00 0. -1.
         22    1    3    3    0    0 -0.96748524638E+02  0.95026154640E+01  0.20270924948E+03  0.22481462707E+03  0.00000000000E+00 0. -1.
</event>
<event>
 7    1  0.6597701E-006  0.4946825E+02  0.7818608E-02  0.1547330E+00
          2   -1    0    0  502    0  0.00000000000E+00  0.00000000000E+00  0.20689493201E+03  0.20689493201E+03  0.00000000000E+00 0. -1.
          1   -1    0    0  501    0 -0.00000000000E+00 -0.00000000000E+00 -0.92811062039E+03  0.92811062039E+03  0.00000000000E+00 0. -1.
         25    2    1    2    0    0  0.19119941193E+02 -0.21043486500E+02  0.53152050767E+02  0.13877096949E+03  0.12499536390E+03 0.  0.
          2    1    1    2  501    0  0.22108551014E+02 -0.11599758023E+02 -0.87888186184E+03  0.87923641274E+03  0.00000000000E+00 0. -1.
          1    1    1    2  502    0 -0.41228492207E+02  0.32643244523E+02  0.10451412269E+03  0.11699817017E+03  0.00000000000E+00 0. -1.
         22    1    3    3    0    0  0.20592586887E+02  0.14446743540E+02 -0.35361626365E+02  0.43395940511E+02  0.00000000000E+00 0.  1.
         22    1    3    3    0    0 -0.14726456939E+01 -0.35490230040E+02  0.88513677132E+02  0.95375028981E+02  0.00000000000E+00 0.  1.
</event>
<event>
 7    1  0.6597701E-006  0.2071924E+03  0.7818608E-02  0.1252813E+00
          2   -1    0    0  502    0  0.00000000000E+00  0.00000000000E+00  0.18017032724E+04  0.18017032724E+04  0.00000000000E+00 0. -1.
          1   -1    0    0  501    0 -0.00000000000E+00 -0.00000000000E+00 -0.47145223861E+03  0.47145223861E+03  0.00000000000E+00 0. -1.
         25    2    1    2    0    0 -0.83181429568E+02 -0.15447392685E+03 -0.12252702715E+03  0.24782411225E+03  0.12499029534E+03 0.  0.
          2    1    1    2  501    0  0.13730313987E+03  0.18682128726E+03 -0.23865010617E+03  0.33272844598E+03  0.00000000000E+00 0. -1.
          1    1    1    2  502    0 -0.54121710300E+02 -0.32347360405E+02  0.16914281671E+04  0.16926029528E+04  0.00000000000E+00 0. -1.
         22    1    3    3    0    0 -0.45786812782E+01 -0.48202738741E+02  0.20934847602E+02  0.52751646310E+02  0.00000000000E+00 0. -1.
         22    1    3    3    0    0 -0.78602748289E+02 -0.10627118811E+03 -0.14346187475E+03  0.19507246594E+03  0.00000000000E+00 0. -1.
</event>
<event>
 7    1  0.6597701E-006  0.4716878E+02  0.7818608E-02  0.1521136E+00
          2   -1    0    0  502    0  0.00000000000E+00  0.00000000000E+00  0.22488650814E+03  0.22488650814E+03  0.00000000000E+00 0. -1.
          1   -1    0    0  501    0 -0.00000000000E+00 -0.00000000000E+00 -0.17025636331E+04  0.17025636331E+04  0.00000000000E+00 0. -1.
         25    2    1    2    0    0  0.64735134154E+02 -0.26572610997E+02 -0.47510044464E+03  0.49622984145E+03  0.12500752697E+03 0.  0.
          2    1    1    2  501    0 -0.46364210671E+02  0.14871100863E+01 -0.12153259569E+04  0.12162109328E+04  0.00000000000E+00 0. -1.
          1    1    1    2  502    0 -0.18370923483E+02  0.25085500911E+02  0.21274927661E+03  0.21500936697E+03  0.00000000000E+00 0. -1.
         22    1    3    3    0    0 -0.27947467543E+01  0.39878405248E+02 -0.74167911636E+02  0.84255426715E+02  0.00000000000E+00 0.  1.
         22    1    3    3    0    0  0.67529880908E+02 -0.66451016245E+02 -0.40093253300E+03  0.41197441473E+03  0.00000000000E+00 0.  1.
</event>
<event>
 7    1  0.6597701E-006  0.1822994E+03  0.7818608E-02  0.1308464E+00
          2   -1    0    0  502    0  0.00000000000E+00  0.00000000000E+00  0.13195832301E+03  0.13195832301E+03  0.00000000000E+00 0. -1.
          1   -1    0    0  501    0 -0.00000000000E+00 -0.00000000000E+00 -0.54763539579E+03  0.54763539579E+03  0.00000000000E+00 0. -1.
         25    2    1    2    0    0  0.18982301779E+03 -0.57291482332E+02 -0.37080439447E+03  0.43867422526E+03  0.12499633963E+03 0.  0.
          2    1    1    2  501    0 -0.14785810713E+03  0.61848903481E+02 -0.86082632498E+02  0.18192725558E+03  0.00000000000E+00 0. -1.
          1    1    1    2  502    0 -0.41964910659E+02 -0.45574211484E+01  0.41209954189E+02  0.58992237950E+02  0.00000000000E+00 0. -1.
         22    1    3    3    0    0  0.54307127442E+02 -0.68333753450E+02 -0.83367091453E+02  0.12070144112E+03  0.00000000000E+00 0.  1.
         22    1    3    3    0    0  0.13551589035E+03  0.11042271118E+02 -0.28743730302E+03  0.31797278414E+03  0.00000000000E+00 0.  1.
</event>
<event>
 7    1  0.6597701E-006  0.4288086E+02  0.7818608E-02  0.1495110E+00
          2   -1    0    0  502    0  0.00000000000E+00  0.00000000000E+00  0.25404379661E+03  0.25404379661E+03  0.00000000000E+00 0. -1.
          1   -1    0    0  501    0 -0.00000000000E+00 -0.00000000000E+00 -0.21513922549E+04  0.21513922549E+04  0.00000000000E+00 0. -1.
         25    2    1    2    0    0  0.31989093223E+02 -0.45612295958E+02  0.79730224865E+02  0.15838708105E+03  0.12500310020E+03 0.  0.
          2    1    1    2  501    0  0.10712784419E+02  0.39388354769E+02 -0.21084123486E+04  0.21088074445E+04  0.00000000000E+00 0. -1.
          1    1    1    2  502    0 -0.42701877642E+02  0.62239411890E+01  0.13133366549E+03  0.13824152592E+03  0.00000000000E+00 0. -1.
         22    1    3    3    0    0  0.25823520048E+00  0.13334341711E+02  0.89716107659E+02  0.90701991862E+02  0.00000000000E+00 0. -1.
         22    1    3    3    0    0  0.31730858022E+02 -0.58946637668E+02 -0.99858827936E+01  0.67685089188E+02  0.00000000000E+00 0. -1.
</event>
<event>
 7    1  0.6597701E-006  0.5113851E+02  0.7818608E-02  0.1447469E+00
          2   -1    0    0  502    0  0.00000000000E+00  0.00000000000E+00  0.13531513132E+03  0.13531513132E+03  0.00000000000E+00 0. -1.
          1   -1    0    0  501    0 -0.00000000000E+00 -0.00000000000E+00 -0.86669983551E+03  0.86669983551E+03  0.00000000000E+00 0. -1.
         25    2    1    2    0    0  0.97608718586E+01 -0.13052307056E+02 -0.11847683224E+03  0.17299544305E+03  0.12500010479E+03 0.  0.
          2    1    1    2  501    0 -0.51613612595E+02 -0.10699636826E+02 -0.71458650571E+03  0.71652796273E+03  0.00000000000E+00 0. -1.
          1    1    1    2  502    0  0.41852740736E+02  0.23751943882E+02  0.10167863376E+03  0.11249156106E+03  0.00000000000E+00 0. -1.
         22    1    3    3    0    0  0.23907832219E+02  0.15819097019E+02 -0.13418434000E+03  0.13721248257E+03  0.00000000000E+00 0. -1.
         22    1    3    3    0    0 -0.14146960360E+02 -0.28871404075E+02  0.15707507758E+02  0.35782960479E+02  0.00000000000E+00 0. -1.
</event>
<event>
 7    1  0.6597701E-006  0.4412308E+02  0.7818608E-02  0.1515343E+00
          2   -1    0    0  502    0  0.00000000000E+00  0.00000000000E+00  0.37236155362E+03  0.37236155362E+03  0.00000000000E+00 0. -1.
          1   -1    0    0  501    0 -0.00000000000E+00 -0.00000000000E+00 -0.72564124996E+03  0.72564124996E+03  0.00000000000E+00 0. -1.
         25    2    1    2    0    0 -0.33790169268E+02 -0.26852644119E+02  0.93475557300E+02  0.16193935552E+03  0.12499533999E+03 0.  0.
          2    1    1    2  501    0  0.38116510827E+01  0.44038210469E+02 -0.68947792287E+03  0.69089340624E+03  0.00000000000E+00 0. -1.
          1    1    1    2  502    0  0.29978518185E+02 -0.17185566350E+02  0.24272266923E+03  0.24517004181E+03  0.00000000000E+00 0. -1.
         22    1    3    3    0    0 -0.69563804262E+02  0.20822846603E+02  0.52706660299E+02  0.89725725653E+02  0.00000000000E+00 0. -1.
         22    1    3    3    0    0  0.35773634994E+02 -0.47675490722E+02  0.40768897001E+02  0.72213629870E+02  0.00000000000E+00 0. -1.
</event>
<event>
 7    1  0.6597701E-006  0.5872996E+02  0.7818608E-02  0.1405787E+00
          2   -1    0    0  502    0  0.00000000000E+00  0.00000000000E+00  0.11908100652E+04  0.11908100652E+04  0.00000000000E+00 0. -1.
          1   -1    0    0  501    0 -0.00000000000E+00 -0.00000000000E+00 -0.16992738295E+03  0.16992738295E+03  0.00000000000E+00 0. -1.
         25    2    1    2    0    0  0.11276014924E+02  0.20792310469E+02 -0.32330887028E+02  0.13125739903E+03  0.12499499933E+03 0.  0.
          2    1    1    2  501    0 -0.53828731491E+02  0.20401623841E+02 -0.77875264409E+02  0.96841702773E+02  0.00000000000E+00 0. -1.
          1    1    1    2  502    0  0.42552716567E+02 -0.41193934309E+02  0.11310888337E+04  0.11326383463E+04  0.00000000000E+00 0. -1.
         22    1    3    3    0    0  0.22954959641E+02  0.27917586041E+02 -0.76720288887E+02  0.84807573420E+02  0.00000000000E+00 0. -1.
         22    1    3    3    0    0 -0.11678944716E+02 -0.71252755721E+01  0.44389401859E+02  0.46449825608E+02  0.00000000000E+00 0. -1.
</event>
<event>
 7    1  0.6597701E-006  0.7970177E+02  0.7818608E-02  0.1408489E+00
          2   -1    0    0  502    0  0.00000000000E+00  0.00000000000E+00  0.12944076392E+04  0.12944076392E+04  0.00000000000E+00 0. -1.
          1   -1    0    0  501    0 -0.00000000000E+00 -0.00000000000E+00 -0.18684794638E+02  0.18684794638E+02  0.00000000000E+00 0. -1.
         25    2    1    2    0    0  0.15738193515E+01 -0.51541962680E+02  0.43670329573E+03  0.45715824800E+03  0.12499937756E+03 0.  0.
          2    1    1    2  501    0  0.28739590573E+02 -0.29978722662E+02  0.65605476246E+02  0.77645131156E+02  0.00000000000E+00 0. -1.
          1    1    1    2  502    0 -0.30313409925E+02  0.81520685342E+02  0.77341407261E+03  0.77828905471E+03  0.00000000000E+00 0. -1.
         22    1    3    3    0    0 -0.52691840419E+02 -0.21710952828E+01  0.26883685444E+03  0.27396057747E+03  0.00000000000E+00 0. -1.
         22    1    3    3    0    0  0.54265659771E+02 -0.49370867397E+02  0.16786644129E+03  0.18319767053E+03  0.00000000000E+00 0. -1.
</event>
<event>
 7    1  0.6597701E-006  0.5846641E+02  0.7818608E-02  0.1470894E+00
          2   -1    0    0  502    0  0.00000000000E+00  0.00000000000E+00  0.13941291990E+04  0.13941291990E+04  0.00000000000E+00 0. -1.
          1   -1    0    0  501    0 -0.00000000000E+00 -0.00000000000E+00 -0.60474424013E+03  0.60474424013E+03  0.00000000000E+00 0. -1.
         25    2    1    2    0    0 -0.19791981575E+02 -0.13127040637E+02  0.67323540021E+02  0.14395161184E+03  0.12500226309E+03 0.  0.
          2    1    1    2  501    0 -0.32220245940E+02 -0.14898374683E+02 -0.56519580085E+03  0.56630945526E+03  0.00000000000E+00 0. -1.
          1    1    1    2  502    0  0.52012227515E+02  0.28025415320E+02  0.12872572197E+04  0.12886123721E+04  0.00000000000E+00 0. -1.
         22    1    3    3    0    0  0.90407572402E+01 -0.63109607759E+02  0.13763629563E+02  0.65222660033E+02  0.00000000000E+00 0. -1.
         22    1    3    3    0    0 -0.28832738815E+02  0.49982567122E+02  0.53559910458E+02  0.78728951803E+02  0.00000000000E+00 0. -1.
</event>
<event>
 7    1  0.6597701E-006  0.1094054E+03  0.7818608E-02  0.1462818E+00
          2   -1    0    0  502    0  0.00000000000E+00  0.00000000000E+00  0.21378378037E+03  0.21378378037E+03  0.00000000000E+00 0. -1.
          1   -1    0    0  501    0 -0.00000000000E+00 -0.00000000000E+00 -0.19588308147E+04  0.19588308147E+04  0.00000000000E+00 0. -1.
         25    2    1    2    0    0 -0.10347235148E+03  0.61967720133E+02 -0.23659032449E+03  0.29350695738E+03  0.12499930610E+03 0.  0.
          2    1    1    2  501    0  0.84474544508E+02 -0.68547477738E+02 -0.16914843588E+04  0.16949790681E+04  0.00000000000E+00 0. -1.
          1    1    1    2  502    0  0.18997806972E+02  0.65797576053E+01  0.18302764891E+03  0.18412856961E+03  0.00000000000E+00 0. -1.
         22    1    3    3    0    0  0.24850275189E+02  0.33911464358E+02 -0.50143102850E+02  0.65435879724E+02  0.00000000000E+00 0.  1.
         22    1    3    3    0    0 -0.12832262667E+03  0.28056255775E+02 -0.18644722164E+03  0.22807107765E+03  0.00000000000E+00 0.  1.
</event>
<event>
 7    1  0.6597701E-006  0.1167372E+03  0.7818608E-02  0.1346560E+00
          2   -1    0    0  502    0  0.00000000000E+00  0.00000000000E+00  0.52413887901E+03  0.52413887901E+03  0.00000000000E+00 0. -1.
          1   -1    0    0  501    0 -0.00000000000E+00 -0.00000000000E+00 -0.89756508740E+03  0.89756508740E+03  0.00000000000E+00 0. -1.
         25    2    1    2    0    0 -0.13793925874E+02 -0.97746023347E+02 -0.17492079985E+03  0.23657426801E+03  0.12500216235E+03 0.  0.
          2    1    1    2  501    0  0.44342869114E+02 -0.15832227043E+02 -0.68398628844E+03  0.68560498265E+03  0.00000000000E+00 0. -1.
          1    1    1    2  502    0 -0.30548943240E+02  0.11357825039E+03  0.48548087990E+03  0.49952471575E+03  0.00000000000E+00 0. -1.
         22    1    3    3    0    0 -0.26536460849E+02  0.15563133611E+02 -0.87930024410E+02  0.93156234762E+02  0.00000000000E+00 0.  1.
         22    1    3    3    0    0  0.12742534976E+02 -0.11330915696E+03 -0.86990775440E+02  0.14341803324E+03  0.00000000000E+00 0.  1.
</event>
<event>
 7    1  0.6597701E-006  0.1663598E+03  0.7818608E-02  0.1264557E+00
          2   -1    0    0  502    0  0.00000000000E+00  0.00000000000E+00  0.10596829880E+04  0.10596829880E+04  0.00000000000E+00 0. -1.
          1   -1    0    0  501    0 -0.00000000000E+00 -0.00000000000E+00 -0.14823709089E+03  0.14823709089E+03  0.00000000000E+00 0. -1.
         25    2    1    2    0    0 -0.10875661779E+03  0.95643794561E+02  0.14013644326E+03  0.23714662461E+03  0.12499824593E+03 0.  0.
          2    1    1    2  501    0  0.35710734583E+02  0.60148095949E+02 -0.77673943460E+02  0.10452890272E+03  0.00000000000E+00 0. -1.
          1    1    1    2  502    0  0.73045883203E+02 -0.15579189051E+03  0.84898339733E+03  0.86624455158E+03  0.00000000000E+00 0. -1.
         22    1    3    3    0    0 -0.87768413558E+02  0.82746681235E+02  0.16350947893E+03  0.20318872354E+03  0.00000000000E+00 0.  1.
         22    1    3    3    0    0 -0.20988204229E+02  0.12897113327E+02 -0.23373035672E+02  0.33957901075E+02  0.00000000000E+00 0.  1.
</event>
<event>
 7    1  0.6597701E-006  0.1239910E+03  0.7818608E-02  0.1283335E+00
          2   -1    0    0  502    0  0.00000000000E+00  0.00000000000E+00  0.27338081939E+04  0.27338081939E+04  0.00000000000E+00 0. -1.
          1   -1    0    0  501    0 -0.00000000000E+00 -0.00000000000E+00 -0.40367744680E+02  0.40367744680E+02  0.00000000000E+00 0. -1.
         25    2    1    2    0    0 -0.79959980214E+02  0.15010083935E+03  0.59461743781E+03  0.63095844517E+03  0.12495920045E+03 0.  0.
          2    1    1    2  501    0  0.72583252930E+02 -0.29525992432E+02  0.54780825431E+02  0.95608847236E+02  0.00000000000E+00 0. -1.
          1    1    1    2  502    0  0.73767272833E+01 -0.12057484692E+03  0.20440421859E+04  0.20476086461E+04  0.00000000000E+00 0. -1.
         22    1    3    3    0    0  0.15527241220E+02  0.41050525549E+02  0.29358271319E+03  0.29684516225E+03  0.00000000000E+00 0. -1.
         22    1    3    3    0    0 -0.95487221434E+02  0.10905031380E+03  0.30103472462E+03  0.33411328292E+03  0.00000000000E+00 0. -1.
</event>
<event>
 7    1  0.6597701E-006  0.1616595E+03  0.7818608E-02  0.1338985E+00
          2   -1    0    0  502    0  0.00000000000E+00  0.00000000000E+00  0.31236946533E+03  0.31236946533E+03  0.00000000000E+00 0. -1.
          1   -1    0    0  501    0 -0.00000000000E+00 -0.00000000000E+00 -0.19475171283E+04  0.19475171283E+04  0.00000000000E+00 0. -1.
         25    2    1    2    0    0 -0.40766654198E+02 -0.14544245412E+03 -0.23058959219E+03  0.30267445556E+03  0.12499935388E+03 0.  0.
          2    1    1    2  501    0  0.31943326472E+02 -0.17234952164E+02 -0.16566560114E+04  0.16570535778E+04  0.00000000000E+00 0. -1.
          1    1    1    2  502    0  0.88233277258E+01  0.16267740628E+03  0.25209794061E+03  0.30015856024E+03  0.00000000000E+00 0. -1.
         22    1    3    3    0    0  0.40595977467E+02 -0.19012169744E+02 -0.65639885437E+02  0.79486417363E+02  0.00000000000E+00 0. -1.
         22    1    3    3    0    0 -0.81362631665E+02 -0.12643028438E+03 -0.16494970675E+03  0.22318803820E+03  0.00000000000E+00 0. -1.
</event>
<event>
 7    1  0.6597701E-006  0.1092554E+03  0.7818608E-02  0.1405052E+00
          2   -1    0    0  502    0  0.00000000000E+00  0.00000000000E+00  0.20945567316E+03  0.20945567316E+03  0.00000000000E+00 0. -1.
          1   -1    0    0  501    0 -0.00000000000E+00 -0.00000000000E+00 -0.90211731546E+03  0.90211731546E+03  0.00000000000E+00 0. -1.
         25    2    1    2    0    0 -0.15235793619E+02 -0.83097153523E+02 -0.54877312715E+02  0.16053574111E+03  0.12499175330E+03 0.  0.
          2    1    1    2  501    0 -0.16120497439E+02 -0.26623023080E+02 -0.77327142537E+03  0.77389750813E+03  0.00000000000E+00 0. -1.
          1    1    1    2  502    0  0.31356291058E+02  0.10972017660E+03  0.13548709579E+03  0.17713973938E+03  0.00000000000E+00 0. -1.
         22    1    3    3    0    0 -0.45354020268E+02 -0.91096504283E+02 -0.72302110240E+02  0.12483250936E+03  0.00000000000E+00 0. -1.
         22    1    3    3    0    0  0.30118226650E+02  0.79993507599E+01  0.17424797524E+02  0.35703231756E+02  0.00000000000E+00 0. -1.
</event>
<event>
 7    1  0.6597701E-006  0.9344070E+02  0.7818608E-02  0.1353044E+00
          2   -1    0    0  502    0  0.00000000000E+00  0.00000000000E+00  0.79186628537E+03  0.79186628537E+03  0.00000000000E+00 0. -1.
          1   -1    0    0  501    0 -0.00000000000E+00 -0.00000000000E+00 -0.12941605262E+04  0.12941605262E+04  0.00000000000E+00 0. -1.
         25    2    1    2    0    0  0.27314140085E+02 -0.11415611242E+03 -0.30639514445E+03  0.35111344681E+03  0.12499995096E+03 0.  0.
          2    1    1    2  501    0  0.22561641042E+02  0.89455975850E+02 -0.96219054431E+03  0.96660335341E+03  0.00000000000E+00 0. -1.
          1    1    1    2  502    0 -0.49875781127E+02  0.24700136574E+02  0.76629144795E+03  0.76831001132E+03  0.00000000000E+00 0. -1.
         22    1    3    3    0    0  0.56411044231E+02 -0.30035413692E+01 -0.10618275657E+03  0.12027470626E+03  0.00000000000E+00 0.  1.
         22    1    3    3    0    0 -0.29096904146E+02 -0.11115257105E+03 -0.20021238787E+03  0.23083874055E+03  0.00000000000E+00 0.  1.
</event>
<event>
 7    1  0.6597701E-006  0.3659910E+02  0.7818608E-02  0.1559057E+00
          2   -1    0    0  502    0  0.00000000000E+00  0.00000000000E+00  0.17153287655E+04  0.17153287655E+04  0.00000000000E+00 0. -1.
          1   -1    0    0  501    0 -0.00000000000E+00 -0.00000000000E+00 -0.52274317384E+02  0.52274317384E+02  0.00000000000E+00 0. -1.
         25    2    1    2    0    0  0.19539725041E+02 -0.61593028989E+02  0.11532272753E+04  0.11617815027E+04  0.12501043799E+03 0.  0.
          2    1    1    2  501    0 -0.94421300537E+01  0.29849413619E+02 -0.42336111019E+02  0.52654416810E+02  0.00000000000E+00 0. -1.
          1    1    1    2  502    0 -0.10097594987E+02  0.31743615369E+02  0.55216328382E+03  0.55316716329E+03  0.00000000000E+00 0. -1.
         22    1    3    3    0    0 -0.20927279232E+02 -0.78068985558E+01  0.34932859693E+02  0.41463277336E+02  0.00000000000E+00 0. -1.
         22    1    3    3    0    0  0.40467004272E+02 -0.53786130433E+02  0.11182944156E+04  0.11203182254E+04  0.00000000000E+00 0. -1.
</event>
<event>
 7    1  0.6597701E-006  0.7717702E+02  0.7818608E-02  0.1386980E+00
          2   -1    0    0  502    0  0.00000000000E+00  0.00000000000E+00  0.18390232193E+04  0.18390232193E+04  0.00000000000E+00 0. -1.
          1   -1    0    0  501    0 -0.00000000000E+00 -0.00000000000E+00 -0.77831561829E+03  0.77831561829E+03  0.00000000000E+00 0. -1.
         25    2    1    2    0    0  0.93033455606E+02  0.19224748474E+02  0.75996939832E+03  0.77601921844E+03  0.12501010438E+03 0.  0.
          2    1    1    2  501    0 -0.21668609007E+02 -0.46035497517E+02 -0.76809137416E+03  0.76977474284E+03  0.00000000000E+00 0. -1.
          1    1    1    2  502    0 -0.71364846599E+02  0.26810749042E+02  0.10688295769E+04  0.10715448763E+04  0.00000000000E+00 0. -1.
         22    1    3    3    0    0  0.64200983123E+02 -0.20808517309E+02  0.67017244152E+03  0.67356206990E+03  0.00000000000E+00 0. -1.
         22    1    3    3    0    0  0.28832472483E+02  0.40033265783E+02  0.89796956797E+02  0.10245714855E+03  0.00000000000E+00 0. -1.
</event>
<event>
 7    1  0.6597701E-006  0.6248766E+02  0.7818608E-02  0.1454961E+00
          2   -1    0    0  502    0  0.00000000000E+00  0.00000000000E+00  0.30410742092E+03  0.30410742092E+03  0.00000000000E+00 0. -1.
          1   -1    0    0  501    0 -0.00000000000E+00 -0.00000000000E+00 -0.79240966519E+03  0.79240966519E+03  0.00000000000E+00 0. -1.
         25    2    1    2    0    0 -0.72849581617E+01  0.44909481286E+02 -0.18564173323E+03  0.22838103253E+03  0.12500044311E+03 0.  0.
          2    1    1    2  501    0 -0.27458618634E+02 -0.58401219473E+02 -0.58237986428E+03  0.58594452339E+03  0.00000000000E+00 0. -1.
          1    1    1    2  502    0  0.34743576796E+02  0.13491738186E+02  0.27971935325E+03  0.28219153019E+03  0.00000000000E+00 0. -1.
         22    1    3    3    0    0  0.43776297122E+02  0.54844444153E+02 -0.59747420286E+02  0.92163070017E+02  0.00000000000E+00 0. -1.
         22    1    3    3    0    0 -0.51061255284E+02 -0.99349628672E+01 -0.12589431295E+03  0.13621796251E+03  0.00000000000E+00 0. -1.
</event>
<event>
 7    1  0.6597701E-006  0.5094612E+02  0.7818608E-02  0.1551777E+00
          2   -1    0    0  502    0  0.00000000000E+00  0.00000000000E+00  0.25637416518E+04  0.25637416518E+04  0.00000000000E+00 0. -1.
          1   -1    0    0  501    0 -0.00000000000E+00 -0.00000000000E+00 -0.45139751195E+02  0.45139751195E+02  0.00000000000E+00 0. -1.
         25    2    1    2    0    0 -0.24527942070E+02 -0.68653741734E+02  0.24536006879E+03  0.28485256018E+03  0.12499784592E+03 0.  0.
          2    1    1    2  501    0  0.15833515360E+01  0.23506264253E+02 -0.19588547633E+02  0.30639233992E+02  0.00000000000E+00 0. -1.
          1    1    1    2  502    0  0.22944590534E+02  0.45147477481E+02  0.22928303795E+04  0.22933896089E+04  0.00000000000E+00 0. -1.
         22    1    3    3    0    0 -0.22098335351E+02  0.51220069413E+01  0.19305675804E+03  0.19438488420E+03  0.00000000000E+00 0. -1.
         22    1    3    3    0    0 -0.24296067194E+01 -0.73775748676E+02  0.52303310756E+02  0.90467675981E+02  0.00000000000E+00 0. -1.
</event>
<event>
 7    1  0.6597701E-006  0.3986936E+02  0.7818608E-02  0.1539211E+00
          2   -1    0    0  502    0  0.00000000000E+00  0.00000000000E+00  0.14241740404E+04  0.14241740404E+04  0.00000000000E+00 0. -1.
          1   -1    0    0  501    0 -0.00000000000E+00 -0.00000000000E+00 -0.67836727383E+03  0.67836727383E+03  0.00000000000E+00 0. -1.
         25    2    1    2    0    0 -0.62615870874E+02  0.30605885774E+02 -0.23975983067E+03  0.27921450790E+03  0.12497398726E+03 0.  0.
          2    1    1    2  501    0  0.30812006409E+02 -0.23214882630E+02 -0.41780153940E+03  0.41957888035E+03  0.00000000000E+00 0. -1.
          1    1    1    2  502    0  0.31803864464E+02 -0.73910031433E+01  0.14033681367E+04  0.14037479260E+04  0.00000000000E+00 0. -1.
         22    1    3    3    0    0 -0.88620950759E+02  0.23560525766E+02 -0.95259372136E+02  0.13222374699E+03  0.00000000000E+00 0. -1.
         22    1    3    3    0    0  0.26005079886E+02  0.70453600072E+01 -0.14450045853E+03  0.14699076091E+03  0.00000000000E+00 0. -1.
</event>
<event>
 7    1  0.6597701E-006  0.8755211E+02  0.7818608E-02  0.1385427E+00
          2   -1    0    0  502    0  0.00000000000E+00  0.00000000000E+00  0.45028138343E+03  0.45028138343E+03  0.00000000000E+00 0. -1.
          1   -1    0    0  501    0 -0.00000000000E+00 -0.00000000000E+00 -0.23886709683E+04  0.23886709683E+04  0.00000000000E+00 0. -1.
         25    2    1    2    0    0  0.81919145416E+01 -0.57733221584E+02 -0.32172110412E+03  0.35004184329E+03  0.12499836350E+03 0.  0.
          2    1    1    2  501    0 -0.37810724994E+02 -0.25161120253E+02 -0.20480933176E+04  0.20485968297E+04  0.00000000000E+00 0. -1.
          1    1    1    2  502    0  0.29618810452E+02  0.82894341837E+02  0.43142483687E+03  0.44031367876E+03  0.00000000000E+00 0. -1.
         22    1    3    3    0    0  0.43282078555E+02 -0.79819765075E+02 -0.16966043938E+03  0.19242972200E+03  0.00000000000E+00 0. -1.
         22    1    3    3    0    0 -0.35090164013E+02  0.22086543491E+02 -0.15206066474E+03  0.15761212128E+03  0.00000000000E+00 0. -1.
</event>
<event>
 7    1  0.6597701E-006  0.6460950E+02  0.7818608E-02  0.1521753E+00
          2   -1    0    0  502    0  0.00000000000E+00  0.00000000000E+00  0.77320398397E+03  0.77320398397E+03  0.00000000000E+00 0. -1.
          1   -1    0    0  501    0 -0.00000000000E+00 -0.00000000000E+00 -0.74928584014E+03  0.74928584014E+03  0.00000000000E+00 0. -1.
         25    2    1    2    0    0 -0.83777518528E+02 -0.95964747788E+01  0.13417004139E+03  0.20183784932E+03  0.12500460980E+03 0.  0.
          2    1    1    2  501    0  0.21928058183E+02 -0.54960090649E+01 -0.71359815020E+03  0.71395613718E+03  0.00000000000E+00 0. -1.
          1    1    1    2  502    0  0.61849460345E+02  0.15092483844E+02  0.60334625263E+03  0.60669583761E+03  0.00000000000E+00 0. -1.
         22    1    3    3    0    0 -0.16972508468E+02 -0.37105253488E+02  0.12191109467E+03  0.12855808370E+03  0.00000000000E+00 0. -1.
         22    1    3    3    0    0 -0.66805010060E+02  0.27508778709E+02  0.12258946723E+02  0.73279765624E+02  0.00000000000E+00 0. -1.
</event>
<event>
 7    1  0.6597701E-006  0.2720842E+02  0.7818608E-02  0.1637987E+00
          2   -1    0    0  502    0  0.00000000000E+00  0.00000000000E+00  0.16653893555E+04  0.16653893555E+04  0.00000000000E+00 0. -1.
          1   -1    0    0  501    0 -0.00000000000E+00 -0.00000000000E+00 -0.52410948119E+01  0.52410948119E+01  0.00000000000E+00 0. -1.
         25    2    1    2    0    0  0.29041056231E+01 -0.30400710132E+01  0.10623873732E+04  0.10697241141E+04  0.12500029445E+03 0.  0.
          2    1    1    2  501    0 -0.70380849960E+01  0.29932607260E+02  0.21607743660E+03  0.21825433380E+03  0.00000000000E+00 0. -1.
          1    1    1    2  502    0  0.41339793729E+01 -0.26892536247E+02  0.38168345081E+03  0.38265200237E+03  0.00000000000E+00 0. -1.
         22    1    3    3    0    0 -0.27416888838E+02 -0.32849635668E+02  0.92310196796E+03  0.92409308384E+03  0.00000000000E+00 0. -1.
         22    1    3    3    0    0  0.30320994461E+02  0.29809564655E+02  0.13928540527E+03  0.14563103025E+03  0.00000000000E+00 0. -1.
</event>
<event>
 7    1  0.6597701E-006  0.7417949E+02  0.7818608E-02  0.1357992E+00
          2   -1    0    0  502    0  0.00000000000E+00  0.00000000000E+00  0.17836634165E+03  0.17836634165E+03  0.00000000000E+00 0. -1.
          1   -1    0    0  501    0 -0.00000000000E+00 -0.00000000000E+00 -0.13695282918E+04  0.13695282918E+04  0.00000000000E+00 0. -1.
         25    2    1    2    0    0 -0.22370022756E+02  0.33398628900E+02 -0.37064113644E+03  0.39321321399E+03  0.12500357315E+03 0.  0.
          2    1    1    2  501    0  0.81722895323E+02 -0.18120032746E+01 -0.97906428720E+03  0.98247075959E+03  0.00000000000E+00 0. -1.
          1    1    1    2  502    0 -0.59352872567E+02 -0.31586625626E+02  0.15854347347E+03  0.17221065989E+03  0.00000000000E+00 0. -1.
         22    1    3    3    0    0  0.26017211755E+02 -0.17401263483E+02 -0.23728546162E+02  0.39277769556E+02  0.00000000000E+00 0. -1.
         22    1    3    3    0    0 -0.48387234511E+02  0.50799892384E+02 -0.34691259028E+03  0.35393544443E+03  0.00000000000E+00 0. -1.
</event>
<event>
 7    1  0.6597701E-006  0.9248156E+02  0.7818608E-02  0.1400553E+00
          2   -1    0    0  502    0  0.00000000000E+00  0.00000000000E+00  0.11690099083E+04  0.11690099083E+04  0.00000000000E+00 0. -1.
          1   -1    0    0  501    0 -0.00000000000E+00 -0.00000000000E+00 -0.49123551855E+03  0.49123551855E+03  0.00000000000E+00 0. -1.
         25    2    1    2    0    0 -0.65247259184E+02  0.88486663331E+02  0.63930107529E+03  0.66061914262E+03  0.12499876926E+03 0.  0.
          2    1    1    2  501    0  0.37742433627E+02 -0.51785522117E+01 -0.47610304372E+03  0.47762476583E+03  0.00000000000E+00 0. -1.
          1    1    1    2  502    0  0.27504825558E+02 -0.83308111120E+02  0.51457635818E+03  0.52200151839E+03  0.00000000000E+00 0. -1.
         22    1    3    3    0    0 -0.77560917523E+02  0.11212024025E+02  0.20791730842E+03  0.22219588779E+03  0.00000000000E+00 0. -1.
         22    1    3    3    0    0  0.12313658339E+02  0.77274639306E+02  0.43138376687E+03  0.43842325484E+03  0.00000000000E+00 0. -1.
</event>
<event>
 7    1  0.1209730E-005  0.4322243E+02  0.7818608E-02  0.1510935E+00
          2   -1    0    0  502    0  0.00000000000E+00  0.00000000000E+00  0.25694631396E+04  0.25694631396E+04  0.00000000000E+00 0. -1.
          1   -1    0    0  501    0 -0.00000000000E+00 -0.00000000000E+00 -0.10442135162E+04  0.10442135162E+04  0.00000000000E+00 0. -1.
         25    2    1    2    0    0  0.11087258681E+02  0.10587486609E+02 -0.22737351489E+03  0.25991909280E+03  0.12499678935E+03 0.  0.
          2    1    1    2  501    0  0.21578575288E+01 -0.44428080285E+02 -0.79981992400E+03  0.80105581671E+03  0.00000000000E+00 0. -1.
          1    1    1    2  502    0 -0.13245116210E+02  0.33840593676E+02  0.25524430623E+04  0.25527017463E+04  0.00000000000E+00 0. -1.
         22    1    3    3    0    0  0.56259335351E+02  0.41166437584E+02 -0.14814855628E+03  0.16373082521E+03  0.00000000000E+00 0.  1.
         22    1    3    3    0    0 -0.45172076670E+02 -0.30578950975E+02 -0.79224958616E+02  0.96188267585E+02  0.00000000000E+00 0.  1.
</event>
<event>
 7    1  0.6597701E-006  0.9639372E+02  0.7818608E-02  0.1355453E+00
          2   -1    0    0  502    0  0.00000000000E+00  0.00000000000E+00  0.14267358327E+04  0.14267358327E+04  0.00000000000E+00 0. -1.
          1   -1    0    0  501    0 -0.00000000000E+00 -0.00000000000E+00 -0.82117801509E+02  0.82117801509E+02  0.00000000000E+00 0. -1.
         25    2    1    2    0    0  0.29350467320E+02 -0.10344386289E+03  0.53403796755E+03  0.55891256843E+03  0.12499850261E+03 0.  0.
          2    1    1    2  501    0  0.22627265615E+02  0.93819536124E+02 -0.35037484199E+02  0.10267289714E+03  0.00000000000E+00 0. -1.
          1    1    1    2  502    0 -0.51977732935E+02  0.96243267643E+01  0.84561754781E+03  0.84726816862E+03  0.00000000000E+00 0. -1.
         22    1    3    3    0    0 -0.40781141616E+02 -0.34771525510E+02  0.30584443954E+03  0.31050439884E+03  0.00000000000E+00 0.  1.
         22    1    3    3    0    0  0.70131608936E+02 -0.68672337379E+02  0.22819352801E+03  0.24840816959E+03  0.00000000000E+00 0.  1.
</event>
<event>
 7    1  0.6597701E-006  0.6330792E+02  0.7818608E-02  0.1460916E+00
          2   -1    0    0  502    0  0.00000000000E+00  0.00000000000E+00  0.98419450679E+03  0.98419450679E+03  0.00000000000E+00 0. -1.
          1   -1    0    0  501    0 -0.00000000000E+00 -0.00000000000E+00 -0.68796590149E+02  0.68796590149E+02  0.00000000000E+00 0. -1.
         25    2    1    2    0    0  0.42860318555E+02  0.55798238046E+02  0.14594602609E+03  0.20463638360E+03  0.12500142674E+03 0.  0.
          2    1    1    2  501    0 -0.58633321643E+02 -0.24300315442E+02 -0.13268914639E+02  0.64841621149E+02  0.00000000000E+00 0. -1.
          1    1    1    2  502    0  0.15773003088E+02 -0.31497922604E+02  0.78272080519E+03  0.78351309219E+03  0.00000000000E+00 0. -1.
         22    1    3    3    0    0  0.69437421729E+02  0.81085262173E+02  0.10929038713E+03  0.15277684378E+03  0.00000000000E+00 0.  1.
         22    1    3    3    0    0 -0.26577103174E+02 -0.25287024127E+02  0.36655638962E+02  0.51859539817E+02  0.00000000000E+00 0.  1.
</event>
<event>
 7    1  0.6597701E-006  0.1001614E+03  0.7818608E-02  0.1458690E+00
          2   -1    0    0  502    0  0.00000000000E+00  0.00000000000E+00  0.37009833327E+03  0.37009833327E+03  0.00000000000E+00 0. -1.
          1   -1    0    0  501    0 -0.00000000000E+00 -0.00000000000E+00 -0.18140044945E+03  0.18140044945E+03  0.00000000000E+00 0. -1.
         25    2    1    2    0    0 -0.91350856514E+02  0.33068170134E+02  0.86962672911E+01  0.15855306202E+03  0.12499986220E+03 0.  0.
          2    1    1    2  501    0  0.10081675687E+03 -0.12514862582E+02 -0.81638827077E+02  0.13032857836E+03  0.00000000000E+00 0. -1.
          1    1    1    2  502    0 -0.94659003603E+01 -0.20553307552E+02  0.26164044360E+03  0.26261714233E+03  0.00000000000E+00 0. -1.
         22    1    3    3    0    0 -0.53068598049E+02  0.41950664335E+02  0.62382423456E+02  0.92020112439E+02  0.00000000000E+00 0.  1.
         22    1    3    3    0    0 -0.38282258465E+02 -0.88824942008E+01 -0.53686156165E+02  0.66532949583E+02  0.00000000000E+00 0.  1.
</event>
<event>
 7    1  0.6597701E-006  0.1889023E+03  0.7818608E-02  0.1354468E+00
          2   -1    0    0  502    0  0.00000000000E+00  0.00000000000E+00  0.18119663957E+03  0.18119663957E+03  0.00000000000E+00 0. -1.
          1   -1    0    0  501    0 -0.00000000000E+00 -0.00000000000E+00 -0.11542478769E+04  0.11542478769E+04  0.00000000000E+00 0. -1.
         25    2    1    2    0    0  0.11739558500E+03  0.16340363595E+03 -0.77254376193E+03  0.80804136244E+03  0.12499803076E+03 0.  0.
          2    1    1    2  501    0  0.10268232157E+02 -0.25187638396E+02 -0.30901092941E+03  0.31020575142E+03  0.00000000000E+00 0. -1.
          1    1    1    2  502    0 -0.12766381715E+03 -0.13821599756E+03  0.10850345398E+03  0.21719740265E+03  0.00000000000E+00 0. -1.
         22    1    3    3    0    0  0.67008259557E+02  0.78977686544E+02 -0.60482209174E+03  0.61362638835E+03  0.00000000000E+00 0.  1.
         22    1    3    3    0    0  0.50387325441E+02  0.84425949409E+02 -0.16772167019E+03  0.19441497409E+03  0.00000000000E+00 0.  1.
</event>
<event>
 7    1  0.6597701E-006  0.9096961E+02  0.7818608E-02  0.1333414E+00
          2   -1    0    0  502    0  0.00000000000E+00  0.00000000000E+00  0.37961069915E+03  0.37961069915E+03  0.00000000000E+00 0. -1.
          1   -1    0    0  501    0 -0.00000000000E+00 -0.00000000000E+00 -0.33951184920E+03  0.33951184920E+03  0.00000000000E+00 0. -1.
         25    2    1    2    0    0 -0.17307169628E+02  0.11840956372E+03 -0.81443925254E+02  0.19125429976E+03  0.12499892526E+03 0.  0.
          2    1    1    2  501    0  0.59777763582E+02 -0.65676388085E+02 -0.18964010218E+03  0.20940424381E+03  0.00000000000E+00 0. -1.
          1    1    1    2  502    0 -0.42470593955E+02 -0.52733175636E+02  0.31118287738E+03  0.31846400478E+03  0.00000000000E+00 0. -1.
         22    1    3    3    0    0 -0.41756284549E+02  0.66379413498E+02 -0.10334940682E+03  0.12973401144E+03  0.00000000000E+00 0. -1.
         22    1    3    3    0    0  0.24449114921E+02  0.52030150223E+02  0.21905481563E+02  0.61520288321E+02  0.00000000000E+00 0. -1.
</event>
<event>
 7    1  0.6597701E-006  0.1278220E+03  0.7818608E-02  0.1360507E+00
          2   -1    0    0  502    0  0.00000000000E+00  0.00000000000E+00  0.13144864888E+04  0.13144864888E+04  0.00000000000E+00 0. -1.
          1   -1    0    0  501    0 -0.00000000000E+00 -0.00000000000E+00 -0.14446463836E+04  0.14446463836E+04  0.00000000000E+00 0. -1.
         25    2    1    2    0    0  0.55647298464E+01  0.13961047433E+03  0.22891707548E+03  0.29589127039E+03  0.12500626258E+03 0.  0.
          2    1    1    2  501    0  0.33298414628E+02 -0.18723562389E+02 -0.14070676525E+04  0.14075861376E+04  0.00000000000E+00 0. -1.
          1    1    1    2  502    0 -0.38863144475E+02 -0.12088691194E+03  0.10479906822E+04  0.10556554644E+04  0.00000000000E+00 0. -1.
         22    1    3    3    0    0  0.14694459102E+02  0.47992011586E+01 -0.12067370757E+02  0.19610734231E+02  0.00000000000E+00 0. -1.
         22    1    3    3    0    0 -0.91297292560E+01  0.13481127317E+03  0.24098444624E+03  0.27628053616E+03  0.00000000000E+00 0. -1.
</event>
<event>
 7    1  0.6597701E-006  0.1280610E+03  0.7818608E-02  0.1330872E+00
          2   -1    0    0  502    0  0.00000000000E+00  0.00000000000E+00  0.12541535432E+04  0.12541535432E+04  0.00000000000E+00 0. -1.
          1   -1    0    0  501    0 -0.00000000000E+00 -0.00000000000E+00 -0.19483907015E+04  0.19483907015E+04  0.00000000000E+00 0. -1.
         25    2    1    2    0    0 -0.13077445440E+03  0.16392184787E+02 -0.98598063239E+02  0.20668006697E+03  0.12499764143E+03 0.  0.
          2    1    1    2  501    0  0.18550834202E+02  0.45549440889E+02 -0.17919904952E+04  0.17926652838E+04  0.00000000000E+00 0. -1.
          1    1    1    2  502    0  0.11222362020E+03 -0.61941625676E+02  0.11963514001E+04  0.12031988939E+04  0.00000000000E+00 0. -1.
         22    1    3    3    0    0  0.21579634006E+02  0.14270385438E+02 -0.29903758232E+02  0.39541867189E+02  0.00000000000E+00 0.  1.
         22    1    3    3    0    0 -0.15235408841E+03  0.21217993493E+01 -0.68694305007E+02  0.16713819979E+03  0.00000000000E+00 0.  1.
</event>
<event>
 7    1  0.6597701E-006  0.9020541E+02  0.7818608E-02  0.1310990E+00
          2   -1    0    0  502    0  0.00000000000E+00  0.00000000000E+00  0.99784457362E+02  0.99784457362E+02  0.00000000000E+00 0. -1.
          1   -1    0    0  501    0 -0.00000000000E+00 -0.00000000000E+00 -0.13902252223E+04  0.13902252223E+04  0.00000000000E+00 0. -1.
         25    2    1    2    0    0 -0.10547534996E+03  0.39118988032E+02 -0.17377210397E+03  0.24182018411E+03  0.12499965061E+03 0.  0.
          2    1    1    2  501    0  0.70037402267E+02  0.45230560447E+02 -0.11483465612E+04  0.11513691267E+04  0.00000000000E+00 0. -1.
          1    1    1    2  502    0  0.35437947692E+02 -0.84349548479E+02  0.31677900210E+02  0.96820368864E+02  0.00000000000E+00 0. -1.
         22    1    3    3    0    0  0.64885209017E+01  0.16871992207E+02 -0.10916730993E+03  0.11065381413E+03  0.00000000000E+00 0. -1.
         22    1    3    3    0    0 -0.11196387086E+03  0.22246995825E+02 -0.64604794041E+02  0.13116636998E+03  0.00000000000E+00 0. -1.
</event>
<event>
 7    1  0.6597701E-006  0.3970816E+02  0.7818608E-02  0.1556354E+00
          2   -1    0    0  502    0  0.00000000000E+00  0.00000000000E+00  0.60686195033E+03  0.60686195033E+03  0.00000000000E+00 0. -1.
          1   -1    0    0  501    0 -0.00000000000E+00 -0.00000000000E+00 -0.18280275510E+04  0.18280275510E+04  0.00000000000E+00 0. -1.
         25    2    1    2    0    0 -0.20054855941E+02 -0.94057256306E+01  0.18902447854E+03  0.22769697807E+03  0.12499998165E+03 0.  0.
          2    1    1    2  501    0  0.12405272807E+02  0.37747673411E+02 -0.18079320791E+04  0.18083686516E+04  0.00000000000E+00 0. -1.
          1    1    1    2  502    0  0.76495831335E+01 -0.28341947780E+02  0.39774199987E+03  0.39882387164E+03  0.00000000000E+00 0. -1.
         22    1    3    3    0    0  0.24576305055E+02  0.28783063572E+02  0.98053816229E+01  0.39097378781E+02  0.00000000000E+00 0.  1.
         22    1    3    3    0    0 -0.44631160996E+02 -0.38188789203E+02  0.17921909691E+03  0.18859959929E+03  0.00000000000E+00 0.  1.
</event>
<event>
 7    1  0.6597701E-006  0.6065538E+02  0.7818608E-02  0.1461832E+00
          2   -1    0    0  502    0  0.00000000000E+00  0.00000000000E+00  0.50027910535E+03  0.50027910535E+03  0.00000000000E+00 0. -1.
          1   -1    0    0  501    0 -0.00000000000E+00 -0.00000000000E+00 -0.31464017989E+03  0.31464017989E+03  0.00000000000E+00 0. -1.
         25    2    1    2    0    0 -0.26101066882E+02  0.20647224549E+02 -0.32481812417E+02  0.13337160451E+03  0.12500137270E+03 0.  0.
          2    1    1    2  501    0 -0.34672353541E+02 -0.11481123257E+02 -0.22815486041E+03  0.23105979447E+03  0.00000000000E+00 0. -1.
          1    1    1    2  502    0  0.60773420424E+02 -0.91661012919E+01  0.44627559829E+03  0.45048788626E+03  0.00000000000E+00 0. -1.
         22    1    3    3    0    0 -0.47040712626E+02 -0.31434287970E+02  0.16434166201E+02  0.58915404804E+02  0.00000000000E+00 0. -1.
         22    1    3    3    0    0  0.20939645744E+02  0.52081512519E+02 -0.48915978618E+02  0.74456199704E+02  0.00000000000E+00 0. -1.
</event>
<event>
 7    1  0.6597701E-006  0.8628003E+02  0.7818608E-02  0.1491123E+00
          2   -1    0    0  502    0  0.00000000000E+00  0.00000000000E+00  0.10876427042E+04  0.10876427042E+04  0.00000000000E+00 0. -1.
          1   -1    0    0  501    0 -0.00000000000E+00 -0.00000000000E+00 -0.46740807071E+03  0.46740807071E+03  0.00000000000E+00 0. -1.
         25    2    1    2    0    0 -0.35821891509E+02  0.90831452766E+02  0.45150153620E+03  0.47855210221E+03  0.12499966647E+03 0.  0.
          2    1    1    2  501    0  0.46222495611E+02 -0.72753882947E+02 -0.44961311967E+03  0.45780083438E+03  0.00000000000E+00 0. -1.
          1    1    1    2  502    0 -0.10400604102E+02 -0.18077569818E+02  0.61834621699E+03  0.61869783833E+03  0.00000000000E+00 0. -1.
         22    1    3    3    0    0 -0.74863344182E+02  0.90383942381E+02  0.37026716517E+03  0.38842187238E+03  0.00000000000E+00 0. -1.
         22    1    3    3    0    0  0.39041452673E+02  0.44751038487E+00  0.81234371028E+02  0.90130229827E+02  0.00000000000E+00 0. -1.
</event>
<event>
 7    1  0.6597701E-006  0.2401928E+02  0.7818608E-02  0.1677638E+00
          2   -1    0    0  502    0  0.00000000000E+00  0.00000000000E+00  0.36137875274E+03  0.36137875274E+03  0.00000000000E+00 0. -1.
          1   -1    0    0  501    0 -0.00000000000E+00 -0.00000000000E+00 -0.17290989912E+04  0.17290989912E+04  0.00000000000E+00 0. -1.
         25    2    1    2    0    0  0.21403089720E+02  0.27069153011E+01 -0.10780444316E+03  0.16646918981E+03  0.12499909420E+03 0.  0.
          2    1    1    2  501    0 -0.13731641799E+02  0.19759959831E+02 -0.15914467595E+04  0.15916286634E+04  0.00000000000E+00 0. -1.
          1    1    1    2  502    0 -0.76714479214E+01 -0.22466875132E+02  0.33153096413E+03  0.33237989074E+03  0.00000000000E+00 0. -1.
         22    1    3    3    0    0  0.42948869313E+02  0.55214666692E+02 -0.63376213493E+02  0.94391785818E+02  0.00000000000E+00 0.  1.
         22    1    3    3    0    0 -0.21545779593E+02 -0.52507751391E+02 -0.44428229665E+02  0.72077403988E+02  0.00000000000E+00 0.  1.
</event>
<event>
 7    1  0.6597701E-006  0.9426944E+02  0.7818608E-02  0.1406572E+00
          2   -1    0    0  502    0  0.00000000000E+00  0.00000000000E+00  0.12181761278E+03  0.12181761278E+03  0.00000000000E+00 0. -1.
          1   -1    0    0  501    0 -0.00000000000E+00 -0.00000000000E+00 -0.36234581278E+03  0.36234581278E+03  0.00000000000E+00 0. -1.
         25    2    1    2    0    0  0.80725750914E+02 -0.24599644717E+01 -0.15369885974E+03  0.21393998178E+03  0.12499711210E+03 0.  0.
          2    1    1    2  501    0  0.10873603629E+02  0.33943704492E+02 -0.15026884614E+03  0.15443813147E+03  0.00000000000E+00 0. -1.
          1    1    1    2  502    0 -0.91599354543E+02 -0.31483740020E+02  0.63439505891E+02  0.11578531231E+03  0.00000000000E+00 0. -1.
         22    1    3    3    0    0  0.10031412245E+03  0.30096749713E+02 -0.13697623349E+03  0.17242745155E+03  0.00000000000E+00 0. -1.
         22    1    3    3    0    0 -0.19588371535E+02 -0.32556714185E+02 -0.16722626252E+02  0.41512530237E+02  0.00000000000E+00 0. -1.
</event>
<event>
 7    1  0.9343306E-006  0.1252726E+03  0.7818608E-02  0.1255764E+00
          2   -1    0    0  502    0  0.00000000000E+00  0.00000000000E+00  0.12923189415E+04  0.12923189415E+04  0.00000000000E+00 0. -1.
          1   -1    0    0  501    0 -0.00000000000E+00 -0.00000000000E+00 -0.18947145502E+04  0.18947145502E+04  0.00000000000E+00 0. -1.
         25    2    1    2    0    0  0.50446947247E+02 -0.15058527624E+02 -0.15837528251E+03  0.20852340439E+03  0.12501050487E+03 0.  0.
          2    1    1    2  501    0 -0.12153345452E+03 -0.57076130654E+02 -0.17066007048E+04  0.17118744203E+04  0.00000000000E+00 0. -1.
          1    1    1    2  502    0  0.71086507271E+02  0.72134658277E+02  0.12625803786E+04  0.12666356670E+04  0.00000000000E+00 0. -1.
         22    1    3    3    0    0 -0.21901758214E+02 -0.45977948596E+02 -0.93816390943E+02  0.10674818022E+03  0.00000000000E+00 0.  1.
         22    1    3    3    0    0  0.72348705460E+02  0.30919420972E+02 -0.64558891566E+02  0.10177522417E+03  0.00000000000E+00 0.  1.
</event>
<event>
 7    1  0.6597701E-006  0.8522634E+03  0.7818608E-02  0.1055505E+00
          2   -1    0    0  502    0  0.00000000000E+00  0.00000000000E+00  0.12356049914E+04  0.12356049914E+04  0.00000000000E+00 0. -1.
          1   -1    0    0  501    0 -0.00000000000E+00 -0.00000000000E+00 -0.25443673226E+04  0.25443673226E+04  0.00000000000E+00 0. -1.
         25    2    1    2    0    0 -0.13025596386E+03  0.91215128261E+03 -0.98448015481E+03  0.13541827904E+04  0.12499310460E+03 0.  0.
          2    1    1    2  501    0 -0.11827474253E+03 -0.10596178385E+03 -0.11996231038E+04  0.12100877677E+04  0.00000000000E+00 0. -1.
          1    1    1    2  502    0  0.24853070639E+03 -0.80618949877E+03  0.87534092743E+03  0.12157017559E+04  0.00000000000E+00 0. -1.
         22    1    3    3    0    0 -0.97898194287E+02  0.42028894013E+03 -0.53249314069E+03  0.68540192188E+03  0.00000000000E+00 0. -1.
         22    1    3    3    0    0 -0.32357769578E+02  0.49186234249E+03 -0.45198701412E+03  0.66878086856E+03  0.00000000000E+00 0. -1.
</event>
<event>
 7    1  0.6597701E-006  0.2759921E+03  0.7818608E-02  0.1305602E+00
          2   -1    0    0  502    0  0.00000000000E+00  0.00000000000E+00  0.12670700295E+04  0.12670700295E+04  0.00000000000E+00 0. -1.
          1   -1    0    0  501    0 -0.00000000000E+00 -0.00000000000E+00 -0.22321187680E+04  0.22321187680E+04  0.00000000000E+00 0. -1.
         25    2    1    2    0    0 -0.10557922957E+03  0.23518398261E+03  0.10083978325E+03  0.30373221293E+03  0.12500446349E+03 0.  0.
          2    1    1    2  501    0  0.13319706938E+03 -0.24268675309E+03 -0.21214855269E+04  0.21394717012E+04  0.00000000000E+00 0. -1.
          1    1    1    2  502    0 -0.27617839819E+02  0.75027704814E+01  0.10555970052E+04  0.10559848834E+04  0.00000000000E+00 0. -1.
         22    1    3    3    0    0  0.88668935712E+01  0.22029895722E+02  0.51649285567E+02  0.56847047475E+02  0.00000000000E+00 0. -1.
         22    1    3    3    0    0 -0.11444612314E+03  0.21315408689E+03  0.49190497684E+02  0.24688516545E+03  0.00000000000E+00 0. -1.
</event>
<event>
 7    1  0.6597701E-006  0.9724891E+02  0.7818608E-02  0.1402562E+00
          2   -1    0    0  502    0  0.00000000000E+00  0.00000000000E+00  0.13068544339E+04  0.13068544339E+04  0.00000000000E+00 0. -1.
          1   -1    0    0  501    0 -0.00000000000E+00 -0.00000000000E+00 -0.80720417458E+02  0.80720417458E+02  0.00000000000E+00 0. -1.
         25    2    1    2    0    0  0.26139795665E+02  0.11992553757E+03  0.12407744233E+03  0.21468094407E+03  0.12500908996E+03 0.  0.
          2    1    1    2  501    0 -0.93972273927E+01 -0.88442647666E+02  0.21177733073E+02  0.91427053911E+02  0.00000000000E+00 0. -1.
          1    1    1    2  502    0 -0.16742568273E+02 -0.31482889903E+02  0.10808788410E+04  0.10814668533E+04  0.00000000000E+00 0. -1.
         22    1    3    3    0    0  0.13317683806E+02 -0.24608289109E+02  0.87091777977E+01  0.29304920623E+02  0.00000000000E+00 0.  1.
         22    1    3    3    0    0  0.12822111860E+02  0.14453382668E+03  0.11536826453E+03  0.18537602344E+03  0.00000000000E+00 0.  1.
</event>
<event>
 7    1  0.6597701E-006  0.6990995E+02  0.7818608E-02  0.1396122E+00
          2   -1    0    0  502    0  0.00000000000E+00  0.00000000000E+00  0.38713128174E+03  0.38713128174E+03  0.00000000000E+00 0. -1.
          1   -1    0    0  501    0 -0.00000000000E+00 -0.00000000000E+00 -0.60876194814E+03  0.60876194814E+03  0.00000000000E+00 0. -1.
         25    2    1    2    0    0  0.68412350492E+02  0.54131138693E+02 -0.13228691260E+03  0.20183057657E+03  0.12500129807E+03 0.  0.
          2    1    1    2  501    0  0.14623076290E+01 -0.52179139174E+02 -0.43666654646E+03  0.43977548102E+03  0.00000000000E+00 0. -1.
          1    1    1    2  502    0 -0.69874658121E+02 -0.19519995184E+01  0.34732279265E+03  0.35428717229E+03  0.00000000000E+00 0. -1.
         22    1    3    3    0    0  0.75180115376E+02  0.79552047026E+01 -0.17045064329E+02  0.77497543496E+02  0.00000000000E+00 0. -1.
         22    1    3    3    0    0 -0.67677648842E+01  0.46175933990E+02 -0.11524184827E+03  0.12433303308E+03  0.00000000000E+00 0. -1.
</event>
<event>
 7    1  0.6597701E-006  0.1633601E+03  0.7818608E-02  0.1303975E+00
          2   -1    0    0  502    0  0.00000000000E+00  0.00000000000E+00  0.10071174473E+04  0.10071174473E+04  0.00000000000E+00 0. -1.
          1   -1    0    0  501    0 -0.00000000000E+00 -0.00000000000E+00 -0.78350933367E+03  0.78350933367E+03  0.00000000000E+00 0. -1.
         25    2    1    2    0    0 -0.17877962717E+03 -0.10801990149E+03  0.12625589561E+03  0.27422281451E+03  0.12500858616E+03 0.  0.
          2    1    1    2  501    0  0.13230547804E+03  0.92254093968E+02 -0.69959478808E+03  0.71794736916E+03  0.00000000000E+00 0. -1.
          1    1    1    2  502    0  0.46474149128E+02  0.15765807523E+02  0.79694700614E+03  0.79845659733E+03  0.00000000000E+00 0. -1.
         22    1    3    3    0    0  0.15510897648E+02 -0.24677348707E+01 -0.57256671372E+01  0.16717084836E+02  0.00000000000E+00 0.  1.
         22    1    3    3    0    0 -0.19429052481E+03 -0.10555216662E+03  0.13198156275E+03  0.25750572967E+03  0.00000000000E+00 0.  1.
</event>
<event>
 7    1  0.6597701E-006  0.2195804E+03  0.7818608E-02  0.1230084E+00
          2   -1    0    0  502    0  0.00000000000E+00  0.00000000000E+00  0.21287597810E+04  0.21287597810E+04  0.00000000000E+00 0. -1.
          1   -1    0    0  501    0 -0.00000000000E+00 -0.00000000000E+00 -0.14332174498E+04  0.14332174498E+04  0.00000000000E+00 0. -1.
         25    2    1    2    0    0  0.18267575404E+03  0.12683479961E+03 -0.24894545763E+03  0.35644124029E+03  0.12497607530E+03 0.  0.
          2    1    1    2  501    0 -0.54328829388E+02  0.51559685286E+02 -0.11234546537E+04  0.11259486586E+04  0.00000000000E+00 0. -1.
          1    1    1    2  502    0 -0.12834692465E+03 -0.17839448490E+03  0.20679424426E+04  0.20795873320E+04  0.00000000000E+00 0. -1.
         22    1    3    3    0    0 -0.18972193759E+02  0.54930740442E+01 -0.20031830556E+02  0.28131694473E+02  0.00000000000E+00 0.  1.
         22    1    3    3    0    0  0.20164794779E+03  0.12134172557E+03 -0.22891362707E+03  0.32830954581E+03  0.00000000000E+00 0.  1.
</event>
<event>
 7    1  0.6597701E-006  0.9775827E+02  0.7818608E-02  0.1360940E+00
          2   -1    0    0  502    0  0.00000000000E+00  0.00000000000E+00  0.18976175845E+04  0.18976175845E+04  0.00000000000E+00 0. -1.
          1   -1    0    0  501    0 -0.00000000000E+00 -0.00000000000E+00 -0.11736045296E+04  0.11736045296E+04  0.00000000000E+00 0. -1.
         25    2    1    2    0    0  0.55207210836E+01  0.66597497424E+02  0.89196999333E+03  0.90316168166E+03  0.12499939678E+03 0.  0.
          2    1    1    2  501    0 -0.52699418041E+02 -0.82442248635E+02 -0.11653379307E+04  0.11694385173E+04  0.00000000000E+00 0. -1.
          1    1    1    2  502    0  0.47178696958E+02  0.15844751211E+02  0.99738099234E+03  0.99862191517E+03  0.00000000000E+00 0. -1.
         22    1    3    3    0    0  0.14841648198E+02  0.13391757379E+02  0.76396396418E+03  0.76422545904E+03  0.00000000000E+00 0. -1.
         22    1    3    3    0    0 -0.93209271148E+01  0.53205740045E+02  0.12800602915E+03  0.13893622262E+03  0.00000000000E+00 0. -1.
</event>
<event>
 7    1  0.6597701E-006  0.8956800E+02  0.7818608E-02  0.1336344E+00
          2   -1    0    0  502    0  0.00000000000E+00  0.00000000000E+00  0.10129374871E+04  0.10129374871E+04  0.00000000000E+00 0. -1.
          1   -1    0    0  501    0 -0.00000000000E+00 -0.00000000000E+00 -0.95769301989E+03  0.95769301989E+03  0.00000000000E+00 0. -1.
         25    2    1    2    0    0  0.37617711606E+02  0.21665608872E+02  0.23763432145E+03  0.27199540993E+03  0.12500776559E+03 0.  0.
          2    1    1    2  501    0  0.61848482359E+02 -0.25846910452E+02 -0.93604048112E+03  0.93843757376E+03  0.00000000000E+00 0. -1.
          1    1    1    2  502    0 -0.99466193965E+02  0.41813015801E+01  0.75365062693E+03  0.76019752334E+03  0.00000000000E+00 0. -1.
         22    1    3    3    0    0  0.64824484206E+02  0.14298283625E+02  0.52246135352E+02  0.84476702862E+02  0.00000000000E+00 0.  1.
         22    1    3    3    0    0 -0.27206772601E+02  0.73673252470E+01  0.18538818609E+03  0.18751870707E+03  0.00000000000E+00 0.  1.
</event>
<event>
 7    1  0.6597701E-006  0.1449607E+03  0.7818608E-02  0.1244121E+00
          2   -1    0    0  502    0  0.00000000000E+00  0.00000000000E+00  0.25827528162E+04  0.25827528162E+04  0.00000000000E+00 0. -1.
          1   -1    0    0  501    0 -0.00000000000E+00 -0.00000000000E+00 -0.21619183974E+03  0.21619183974E+03  0.00000000000E+00 0. -1.
         25    2    1    2    0    0  0.43820378297E+02  0.90418869082E+02  0.17650815899E+03  0.23848628899E+03  0.12499912961E+03 0.  0.
          2    1    1    2  501    0  0.93631627651E+02 -0.29984363056E+02 -0.16959846119E+03  0.19603464429E+03  0.00000000000E+00 0. -1.
          1    1    1    2  502    0 -0.13745200595E+03 -0.60434506026E+02  0.23596512786E+04  0.23644237226E+04  0.00000000000E+00 0. -1.
         22    1    3    3    0    0 -0.11749528403E+01 -0.22482139844E+02  0.80542007291E+02  0.83629193853E+02  0.00000000000E+00 0. -1.
         22    1    3    3    0    0  0.44995331137E+02  0.11290100893E+03  0.95966151701E+02  0.15485709513E+03  0.00000000000E+00 0. -1.
</event>
<event>
 7    1  0.6597701E-006  0.8538831E+02  0.7818608E-02  0.1454354E+00
          2   -1    0    0  502    0  0.00000000000E+00  0.00000000000E+00  0.73073696412E+03  0.73073696412E+03  0.00000000000E+00 0. -1.
          1   -1    0    0  501    0 -0.00000000000E+00 -0.00000000000E+00 -0.22529652451E+04  0.22529652451E+04  0.00000000000E+00 0. -1.
         25    2    1    2    0    0 -0.22565471053E+02  0.10674720548E+03 -0.44988452470E+03  0.47949739851E+03  0.12497000943E+03 0.  0.
          2    1    1    2  501    0  0.16748114398E+02 -0.21681374252E+02 -0.17856301635E+04  0.17858403238E+04  0.00000000000E+00 0. -1.
          1    1    1    2  502    0  0.58173566545E+01 -0.85065831232E+02  0.71328640723E+03  0.71836448689E+03  0.00000000000E+00 0. -1.
         22    1    3    3    0    0  0.39960676074E+00  0.11764619600E+03 -0.43367408451E+03  0.44934841570E+03  0.00000000000E+00 0.  1.
         22    1    3    3    0    0 -0.22965077813E+02 -0.10898990520E+02 -0.16210440185E+02  0.30148982807E+02  0.00000000000E+00 0.  1.
</event>
<event>
 7    1  0.6597701E-006  0.2324022E+03  0.7818608E-02  0.1186873E+00
          2   -1    0    0  502    0  0.00000000000E+00  0.00000000000E+00  0.88113511167E+03  0.88113511167E+03  0.00000000000E+00 0. -1.
          1   -1    0    0  501    0 -0.00000000000E+00 -0.00000000000E+00 -0.51837167031E+03  0.51837167031E+03  0.00000000000E+00 0. -1.
         25    2    1    2    0    0  0.18711725104E+03  0.98449252903E+02 -0.32559575504E+03  0.40785010210E+03  0.12499595612E+03 0.  0.
          2    1    1    2  501    0 -0.29214313053E+03 -0.13850313833E+03  0.31043149268E+02  0.32479902272E+03  0.00000000000E+00 0. -1.
          1    1    1    2  502    0  0.10502587949E+03  0.40053885427E+02  0.65731604713E+03  0.66685765716E+03  0.00000000000E+00 0. -1.
         22    1    3    3    0    0 -0.28724628015E+01 -0.49881617186E+01 -0.81461805512E+02  0.81664916317E+02  0.00000000000E+00 0.  1.
         22    1    3    3    0    0  0.18998971384E+03  0.10343741462E+03 -0.24413394953E+03  0.32618518578E+03  0.00000000000E+00 0.  1.
</event>
<event>
 7    1  0.6597701E-006  0.1107221E+03  0.7818608E-02  0.1342226E+00
          2   -1    0    0  502    0  0.00000000000E+00  0.00000000000E+00  0.13284298502E+04  0.13284298502E+04  0.00000000000E+00 0. -1.
          1   -1    0    0  501    0 -0.00000000000E+00 -0.00000000000E+00 -0.10376234689E+03  0.10376234689E+03  0.00000000000E+00 0. -1.
         25    2    1    2    0    0  0.72195887730E+02  0.47180385722E+02  0.69468518483E+03  0.71109161315E+03  0.12500216502E+03 0.  0.
          2    1    1    2  501    0  0.22398921458E+02  0.46405823065E+02 -0.80887290263E+02  0.95906025998E+02  0.00000000000E+00 0. -1.
          1    1    1    2  502    0 -0.94594809188E+02 -0.93586208786E+02  0.61086960877E+03  0.62519455797E+03  0.00000000000E+00 0. -1.
         22    1    3    3    0    0 -0.28722619642E+02 -0.10592076683E+01  0.28385338827E+03  0.28530484895E+03  0.00000000000E+00 0. -1.
         22    1    3    3    0    0  0.10091850737E+03  0.48239593390E+02  0.41083179656E+03  0.42578676420E+03  0.00000000000E+00 0. -1.
</event>
<event>
 7    1  0.6597701E-006  0.3707110E+02  0.7818608E-02  0.1543505E+00
          2   -1    0    0  502    0  0.00000000000E+00  0.00000000000E+00  0.11444389652E+03  0.11444389652E+03  0.00000000000E+00 0. -1.
          1   -1    0    0  501    0 -0.00000000000E+00 -0.00000000000E+00 -0.13145704503E+04  0.13145704503E+04  0.00000000000E+00 0. -1.
         25    2    1    2    0    0 -0.62677357336E+00  0.65462736600E+02 -0.45558081847E+03  0.47693353933E+03  0.12500382415E+03 0.  0.
          2    1    1    2  501    0  0.13176776849E+02 -0.33702566824E+02 -0.84510587883E+03  0.84588027338E+03  0.00000000000E+00 0. -1.
          1    1    1    2  502    0 -0.12550003276E+02 -0.31760169776E+02  0.10056014356E+03  0.10620053408E+03  0.00000000000E+00 0. -1.
         22    1    3    3    0    0  0.34325854177E+02  0.91365911076E+02 -0.31654520844E+03  0.33125045353E+03  0.00000000000E+00 0. -1.
         22    1    3    3    0    0 -0.34952627750E+02 -0.25903174476E+02 -0.13903561003E+03  0.14568308581E+03  0.00000000000E+00 0. -1.
</event>
<event>
 7    1  0.6597701E-006  0.1225795E+03  0.7818608E-02  0.1316164E+00
          2   -1    0    0  502    0  0.00000000000E+00  0.00000000000E+00  0.23763699446E+03  0.23763699446E+03  0.00000000000E+00 0. -1.
          1   -1    0    0  501    0 -0.00000000000E+00 -0.00000000000E+00 -0.10590137657E+04  0.10590137657E+04  0.00000000000E+00 0. -1.
         25    2    1    2    0    0  0.13847232105E+02  0.15596495782E+03 -0.11173081933E+03  0.22940247337E+03  0.12499961958E+03 0.  0.
          2    1    1    2  501    0  0.29873833030E+02 -0.11701409730E+03 -0.87941305069E+03  0.88766663708E+03  0.00000000000E+00 0. -1.
          1    1    1    2  502    0 -0.43721065135E+02 -0.38950860520E+02  0.16976709879E+03  0.17958164969E+03  0.00000000000E+00 0. -1.
         22    1    3    3    0    0 -0.25695028973E+02  0.95160249610E+02 -0.28929764595E+01  0.98610734368E+02  0.00000000000E+00 0.  1.
         22    1    3    3    0    0  0.39542261078E+02  0.60804708215E+02 -0.10883784287E+03  0.13079173900E+03  0.00000000000E+00 0.  1.
</event>
<event>
 7    1  0.6597701E-006  0.3368405E+03  0.7818608E-02  0.1185154E+00
          2   -1    0    0  502    0  0.00000000000E+00  0.00000000000E+00  0.11950822672E+04  0.11950822672E+04  0.00000000000E+00 0. -1.
          1   -1    0    0  501    0 -0.00000000000E+00 -0.00000000000E+00 -0.18540890742E+04  0.18540890742E+04  0.00000000000E+00 0. -1.
         25    2    1    2    0    0 -0.18398663005E+03  0.19394626477E+03 -0.11045057516E+02  0.29533340818E+03  0.12503437541E+03 0.  0.
          2    1    1    2  501    0  0.24754582936E+03 -0.24094845772E+03 -0.16818354159E+04  0.17169465522E+04  0.00000000000E+00 0. -1.
          1    1    1    2  502    0 -0.63559199313E+02  0.47002192949E+02  0.10338736665E+04  0.10368913811E+04  0.00000000000E+00 0. -1.
         22    1    3    3    0    0  0.15270711894E+01  0.64226398355E+02 -0.24033660302E+02  0.68592849625E+02  0.00000000000E+00 0. -1.
         22    1    3    3    0    0 -0.18551370124E+03  0.12971986641E+03  0.12988602786E+02  0.22674055855E+03  0.00000000000E+00 0. -1.
</event>
<event>
 7    1  0.6597701E-006  0.8804375E+02  0.7818608E-02  0.1324561E+00
          2   -1    0    0  502    0  0.00000000000E+00  0.00000000000E+00  0.10009180685E+04  0.10009180685E+04  0.00000000000E+00 0. -1.
          1   -1    0    0  501    0 -0.00000000000E+00 -0.00000000000E+00 -0.44007858144E+03  0.44007858144E+03  0.00000000000E+00 0. -1.
         25    2    1    2    0    0 -0.48542652965E+02 -0.14841922210E+03 -0.10840142633E+03  0.22751108837E+03  0.12500308577E+03 0.  0.
          2    1    1    2  501    0  0.36644023395E+00  0.75633753373E+02 -0.26479243699E+03  0.27538270391E+03  0.00000000000E+00 0. -1.
          1    1    1    2  502    0  0.48176212731E+02  0.72785468730E+02  0.93403335039E+03  0.93810285767E+03  0.00000000000E+00 0. -1.
         22    1    3    3    0    0 -0.57291357827E+02 -0.16222843597E+03 -0.11793384253E+03  0.20858752679E+03  0.00000000000E+00 0.  1.
         22    1    3    3    0    0  0.87487048618E+01  0.13809213865E+02  0.95324161929E+01  0.18923561578E+02  0.00000000000E+00 0.  1.
</event>
<event>
 7    1  0.6597701E-006  0.1000664E+03  0.7818608E-02  0.1289900E+00
          2   -1    0    0  502    0  0.00000000000E+00  0.00000000000E+00  0.13021186625E+03  0.13021186625E+03  0.00000000000E+00 0. -1.
          1   -1    0    0  501    0 -0.00000000000E+00 -0.00000000000E+00 -0.81871146239E+03  0.81871146239E+03  0.00000000000E+00 0. -1.
         25    2    1    2    0    0  0.11108639067E+02  0.59671356227E+02 -0.19393628811E+03  0.23858090913E+03  0.12500197495E+03 0.  0.
          2    1    1    2  501    0 -0.10219372078E+03 -0.53811534417E+02 -0.57633694016E+03  0.58779546306E+03  0.00000000000E+00 0. -1.
          1    1    1    2  502    0  0.91085081718E+02 -0.58598218099E+01  0.81773632123E+02  0.12254695644E+03  0.00000000000E+00 0. -1.
         22    1    3    3    0    0 -0.44421073396E+02  0.48171820601E+01 -0.22101240936E+02  0.49848789911E+02  0.00000000000E+00 0. -1.
         22    1    3    3    0    0  0.55529712462E+02  0.54854174167E+02 -0.17183504717E+03  0.18873211922E+03  0.00000000000E+00 0. -1.
</event>
<event>
 7    1  0.6597701E-006  0.1086884E+03  0.7818608E-02  0.1273550E+00
          2   -1    0    0  502    0  0.00000000000E+00  0.00000000000E+00  0.31450268168E+03  0.31450268168E+03  0.00000000000E+00 0. -1.
          1   -1    0    0  501    0 -0.00000000000E+00 -0.00000000000E+00 -0.59858829810E+03  0.59858829810E+03  0.00000000000E+00 0. -1.
         25    2    1    2    0    0 -0.55554357614E+01 -0.17299243042E+03 -0.31212316430E+03  0.37815790123E+03  0.12500113888E+03 0.  0.
          2    1    1    2  501    0  0.57949860476E+02  0.79199812188E+02 -0.23290681493E+03  0.25273777126E+03  0.00000000000E+00 0. -1.
          1    1    1    2  502    0 -0.52394424714E+02  0.93792618235E+02  0.26094436281E+03  0.28219530730E+03  0.00000000000E+00 0. -1.
         22    1    3    3    0    0  0.48468316655E+02 -0.13488048953E+03 -0.24564851265E+03  0.28440308709E+03  0.00000000000E+00 0.  1.
         22    1    3    3    0    0 -0.54023752417E+02 -0.38111940893E+02 -0.66474651645E+02  0.93754814144E+02  0.00000000000E+00 0.  1.
</event>
<event>
 7    1  0.6597701E-006  0.1447355E+03  0.7818608E-02  0.1345218E+00
          2   -1    0    0  502    0  0.00000000000E+00  0.00000000000E+00  0.47308951669E+03  0.47308951669E+03  0.00000000000E+00 0. -1.
          1   -1    0    0  501    0 -0.00000000000E+00 -0.00000000000E+00 -0.11374066999E+04  0.11374066999E+04  0.00000000000E+00 0. -1.
         25    2    1    2    0    0  0.49089863303E+02 -0.10073543456E+03 -0.21558035837E+02  0.16925274295E+03  0.12499719850E+03 0.  0.
          2    1    1    2  501    0  0.76765962535E+01 -0.37641407938E+02 -0.10276216441E+04  0.10283394620E+04  0.00000000000E+00 0. -1.
          1    1    1    2  502    0 -0.56766459557E+02  0.13837684249E+03  0.38486249670E+03  0.41290401165E+03  0.00000000000E+00 0. -1.
         22    1    3    3    0    0  0.79120235913E+02 -0.83345111287E+02  0.18341264601E+02  0.11637362800E+03  0.00000000000E+00 0. -1.
         22    1    3    3    0    0 -0.30030372610E+02 -0.17390323268E+02 -0.39899300438E+02  0.52879114950E+02  0.00000000000E+00 0. -1.
</event>
<event>
 7    1  0.6597701E-006  0.7891123E+02  0.7818608E-02  0.1428642E+00
          2   -1    0    0  502    0  0.00000000000E+00  0.00000000000E+00  0.41196765600E+03  0.41196765600E+03  0.00000000000E+00 0. -1.
          1   -1    0    0  501    0 -0.00000000000E+00 -0.00000000000E+00 -0.21298940149E+03  0.21298940149E+03  0.00000000000E+00 0. -1.
         25    2    1    2    0    0  0.52255321256E+02 -0.41979346292E+02  0.19126374915E+03  0.23811773948E+03  0.12500140801E+03 0.  0.
          2    1    1    2  501    0  0.30097683950E+02  0.19589773220E+02 -0.17845946251E+03  0.18203683570E+03  0.00000000000E+00 0. -1.
          1    1    1    2  502    0 -0.82353005206E+02  0.22389573072E+02  0.18617396787E+03  0.20480248231E+03  0.00000000000E+00 0. -1.
         22    1    3    3    0    0  0.42631022934E+02 -0.37698803186E+02  0.20948155420E+03  0.21707400910E+03  0.00000000000E+00 0.  1.
         22    1    3    3    0    0  0.96242983215E+01 -0.42805431059E+01 -0.18217805051E+02  0.21043730381E+02  0.00000000000E+00 0.  1.
</event>
<event>
 7    1  0.6597701E-006  0.8522673E+02  0.7818608E-02  0.1409252E+00
          2   -1    0    0  502    0  0.00000000000E+00  0.00000000000E+00  0.14527806738E+04  0.14527806738E+04  0.00000000000E+00 0. -1.
          1   -1    0    0  501    0 -0.00000000000E+00 -0.00000000000E+00 -0.12141019450E+03  0.12141019450E+03  0.00000000000E+00 0. -1.
         25    2    1    2    0    0 -0.56248553970E+02  0.26003662011E+02  0.42924217364E+03  0.45135152217E+03  0.12501704952E+03 0.  0.
          2    1    1    2  501    0  0.57251439663E+02 -0.64596883952E+02 -0.93045435603E+02  0.12691705105E+03  0.00000000000E+00 0. -1.
          1    1    1    2  502    0 -0.10028856933E+01  0.38593221941E+02  0.99517374122E+03  0.99592229505E+03  0.00000000000E+00 0. -1.
         22    1    3    3    0    0 -0.37443732429E+02  0.76635547210E+02  0.27521592376E+03  0.28812990974E+03  0.00000000000E+00 0.  1.
         22    1    3    3    0    0 -0.18804821540E+02 -0.50631885199E+02  0.15402624988E+03  0.16322161243E+03  0.00000000000E+00 0.  1.
</event>
<event>
 7    1  0.6597701E-006  0.3482239E+03  0.7818608E-02  0.1234530E+00
          2   -1    0    0  502    0  0.00000000000E+00  0.00000000000E+00  0.36447506548E+04  0.36447506548E+04  0.00000000000E+00 0. -1.
          1   -1    0    0  501    0 -0.00000000000E+00 -0.00000000000E+00 -0.49275183120E+02  0.49275183120E+02  0.00000000000E+00 0. -1.
         25    2    1    2    0    0 -0.35625625950E+02  0.35860321317E+03  0.18565091250E+04  0.18952881451E+04  0.12500228709E+03 0.  0.
          2    1    1    2  501    0 -0.35878176573E+02 -0.27358633625E+02  0.24979593044E+02  0.51572458316E+02  0.00000000000E+00 0. -1.
          1    1    1    2  502    0  0.71503802524E+02 -0.33124457954E+03  0.17139867536E+04  0.17471652346E+04  0.00000000000E+00 0. -1.
         22    1    3    3    0    0  0.45980716197E+02  0.16468738043E+03  0.84901545839E+03  0.86606201170E+03  0.00000000000E+00 0.  1.
         22    1    3    3    0    0 -0.81606342148E+02  0.19391583274E+03  0.10074936666E+04  0.10292261334E+04  0.00000000000E+00 0.  1.
</event>
<event>
 7    1  0.6597701E-006  0.9254842E+02  0.7818608E-02  0.1340977E+00
          2   -1    0    0  502    0  0.00000000000E+00  0.00000000000E+00  0.10280698079E+04  0.10280698079E+04  0.00000000000E+00 0. -1.
          1   -1    0    0  501    0 -0.00000000000E+00 -0.00000000000E+00 -0.38125669294E+03  0.38125669294E+03  0.00000000000E+00 0. -1.
         25    2    1    2    0    0 -0.17998635635E+02  0.33588421498E+02  0.18055405088E+03  0.22288498392E+03  0.12500327126E+03 0.  0.
          2    1    1    2  501    0 -0.28894862293E+02  0.55212366684E+02 -0.35431103345E+03  0.35974939461E+03  0.00000000000E+00 0. -1.
          1    1    1    2  502    0  0.46893497928E+02 -0.88800788182E+02  0.82057009751E+03  0.82669212229E+03  0.00000000000E+00 0. -1.
         22    1    3    3    0    0 -0.24787271909E+02  0.64534300224E+02  0.42295946656E+02  0.81043394904E+02  0.00000000000E+00 0. -1.
         22    1    3    3    0    0  0.67886362733E+01 -0.30945878726E+02  0.13825810422E+03  0.14184158902E+03  0.00000000000E+00 0. -1.
</event>
<event>
 7    1  0.6597701E-006  0.6844840E+02  0.7818608E-02  0.1473355E+00
          2   -1    0    0  502    0  0.00000000000E+00  0.00000000000E+00  0.71252583009E+03  0.71252583009E+03  0.00000000000E+00 0. -1.
          1   -1    0    0  501    0 -0.00000000000E+00 -0.00000000000E+00 -0.93036181426E+03  0.93036181426E+03  0.00000000000E+00 0. -1.
         25    2    1    2    0    0  0.47734657551E+02 -0.57654652699E+02  0.27047223202E+03  0.30721984617E+03  0.12500459624E+03 0.  0.
          2    1    1    2  501    0  0.13152268834E+02  0.26732833481E+02 -0.90899065185E+03  0.90947876924E+03  0.00000000000E+00 0. -1.
          1    1    1    2  502    0 -0.60886926385E+02  0.30921819218E+02  0.42068243566E+03  0.42618902893E+03  0.00000000000E+00 0. -1.
         22    1    3    3    0    0  0.62330293905E+02  0.11074238901E+02  0.68018500447E+02  0.92920507471E+02  0.00000000000E+00 0.  1.
         22    1    3    3    0    0 -0.14595636354E+02 -0.68728891601E+02  0.20245373157E+03  0.21429933870E+03  0.00000000000E+00 0.  1.
</event>
<event>
 7    1  0.6597701E-006  0.6659464E+02  0.7818608E-02  0.1415260E+00
          2   -1    0    0  502    0  0.00000000000E+00  0.00000000000E+00  0.29035072998E+04  0.29035072998E+04  0.00000000000E+00 0. -1.
          1   -1    0    0  501    0 -0.00000000000E+00 -0.00000000000E+00 -0.20979638855E+03  0.20979638855E+03  0.00000000000E+00 0. -1.
         25    2    1    2    0    0 -0.13261391573E+02  0.27386345412E+02  0.22051403857E+03  0.25529859398E+03  0.12500021784E+03 0.  0.
          2    1    1    2  501    0  0.60298851969E+02 -0.30675484350E+02 -0.18624161960E+03  0.19814862543E+03  0.00000000000E+00 0. -1.
          1    1    1    2  502    0 -0.47037460397E+02  0.32891389372E+01  0.26594384923E+04  0.26598564690E+04  0.00000000000E+00 0. -1.
         22    1    3    3    0    0  0.52596995105E+01  0.59696373570E+02  0.42593937284E+02  0.73522547219E+02  0.00000000000E+00 0.  1.
         22    1    3    3    0    0 -0.18521091083E+02 -0.32310028157E+02  0.17792010128E+03  0.18177604676E+03  0.00000000000E+00 0.  1.
</event>
<event>
 7    1  0.6597701E-006  0.5383921E+02  0.7818608E-02  0.1436098E+00
          2   -1    0    0  502    0  0.00000000000E+00  0.00000000000E+00  0.32052167915E+03  0.32052167915E+03  0.00000000000E+00 0. -1.
          1   -1    0    0  501    0 -0.00000000000E+00 -0.00000000000E+00 -0.12113812199E+04  0.12113812199E+04  0.00000000000E+00 0. -1.
         25    2    1    2    0    0 -0.30182834091E+02 -0.54217260414E+02 -0.18357817580E+03  0.23060377561E+03  0.12500655941E+03 0.  0.
          2    1    1    2  501    0 -0.19441276851E+02  0.50655051674E+02 -0.10014672479E+04  0.10029359631E+04  0.00000000000E+00 0. -1.
          1    1    1    2  502    0  0.49624110942E+02  0.35622087400E+01  0.29418588294E+03  0.29836316032E+03  0.00000000000E+00 0. -1.
         22    1    3    3    0    0 -0.44462539646E+01 -0.27023073637E+02  0.13124817660E+02  0.30369005939E+02  0.00000000000E+00 0. -1.
         22    1    3    3    0    0 -0.25736580126E+02 -0.27194186778E+02 -0.19670299346E+03  0.20023476967E+03  0.00000000000E+00 0. -1.
</event>
<event>
 7    1  0.6597701E-006  0.1092419E+03  0.7818608E-02  0.1388549E+00
          2   -1    0    0  502    0  0.00000000000E+00  0.00000000000E+00  0.18580623062E+04  0.18580623062E+04  0.00000000000E+00 0. -1.
          1   -1    0    0  501    0 -0.00000000000E+00 -0.00000000000E+00 -0.17712051726E+03  0.17712051726E+03  0.00000000000E+00 0. -1.
         25    2    1    2    0    0  0.85274376399E+02  0.88595295497E+00  0.77098008642E+03  0.78568917556E+03  0.12499873101E+03 0.  0.
          2    1    1    2  501    0  0.34634398479E+02  0.77640993117E+01 -0.16452105814E+03  0.16830627252E+03  0.00000000000E+00 0. -1.
          1    1    1    2  502    0 -0.11990877488E+03 -0.86500522667E+01  0.10744827607E+04  0.10811873754E+04  0.00000000000E+00 0. -1.
         22    1    3    3    0    0  0.16212861886E+02 -0.35025915854E+02  0.55087153356E+03  0.55222198268E+03  0.00000000000E+00 0. -1.
         22    1    3    3    0    0  0.69061514513E+02  0.35911868809E+02  0.22010855286E+03  0.23346719288E+03  0.00000000000E+00 0. -1.
</event>
<event>
 7    1  0.6597701E-006  0.7278510E+02  0.7818608E-02  0.1404753E+00
          2   -1    0    0  502    0  0.00000000000E+00  0.00000000000E+00  0.25090641948E+03  0.25090641948E+03  0.00000000000E+00 0. -1.
          1   -1    0    0  501    0 -0.00000000000E+00 -0.00000000000E+00 -0.18092625161E+04  0.18092625161E+04  0.00000000000E+00 0. -1.
         25    2    1    2    0    0  0.83573394864E+02  0.83658215656E+02 -0.23987596526E+03  0.29521107082E+03  0.12500355295E+03 0.  0.
          2    1    1    2  501    0 -0.50644735939E+02 -0.50363096961E+02 -0.15384255759E+04  0.15400826547E+04  0.00000000000E+00 0. -1.
          1    1    1    2  502    0 -0.32928658925E+02 -0.33295118694E+02  0.21994544455E+03  0.22487521003E+03  0.00000000000E+00 0. -1.
         22    1    3    3    0    0  0.10792642255E+03  0.57901687933E+02 -0.22617662292E+03  0.25720922010E+03  0.00000000000E+00 0.  1.
         22    1    3    3    0    0 -0.24353027685E+02  0.25756527723E+02 -0.13699342345E+02  0.38001850724E+02  0.00000000000E+00 0.  1.
</event>
<event>
 7    1  0.6597701E-006  0.4622539E+02  0.7818608E-02  0.1591702E+00
          2   -1    0    0  502    0  0.00000000000E+00  0.00000000000E+00  0.95438563705E+03  0.95438563705E+03  0.00000000000E+00 0. -1.
          1   -1    0    0  501    0 -0.00000000000E+00 -0.00000000000E+00 -0.51955082799E+03  0.51955082799E+03  0.00000000000E+00 0. -1.
         25    2    1    2    0    0 -0.25693244907E+02  0.54158036304E+01 -0.31774921145E+03  0.34245986843E+03  0.12499890539E+03 0.  0.
          2    1    1    2  501    0 -0.18553573915E+02  0.80823748013E+01 -0.18833594792E+03  0.18942013928E+03  0.00000000000E+00 0. -1.
          1    1    1    2  502    0  0.44246818821E+02 -0.13498178432E+02  0.94091996843E+03  0.94205645733E+03  0.00000000000E+00 0. -1.
         22    1    3    3    0    0 -0.54450121557E+02 -0.30796775579E+02 -0.26512686890E+03  0.27240689003E+03  0.00000000000E+00 0. -1.
         22    1    3    3    0    0  0.28756876650E+02  0.36212579210E+02 -0.52622342551E+02  0.70052978404E+02  0.00000000000E+00 0. -1.
</event>
<event>
 7    1  0.6597701E-006  0.1716103E+03  0.7818608E-02  0.1228028E+00
          2   -1    0    0  502    0  0.00000000000E+00  0.00000000000E+00  0.84336913919E+03  0.84336913919E+03  0.00000000000E+00 0. -1.
          1   -1    0    0  501    0 -0.00000000000E+00 -0.00000000000E+00 -0.40611434348E+03  0.40611434348E+03  0.00000000000E+00 0. -1.
         25    2    1    2    0    0  0.79007280068E+02 -0.55412611575E+02  0.37675783378E+02  0.16233811025E+03  0.12498595745E+03 0.  0.
          2    1    1    2  501    0 -0.17211236430E+03  0.85666178518E+02 -0.31329538225E+03  0.36758040838E+03  0.00000000000E+00 0. -1.
          1    1    1    2  502    0  0.93105084232E+02 -0.30253566943E+02  0.71287439458E+03  0.71956496404E+03  0.00000000000E+00 0. -1.
         22    1    3    3    0    0  0.84062961612E+02 -0.86368114518E+02  0.10753545454E+02  0.12100277460E+03  0.00000000000E+00 0. -1.
         22    1    3    3    0    0 -0.50556815431E+01  0.30955502943E+02  0.26922237924E+02  0.41335335648E+02  0.00000000000E+00 0. -1.
</event>
<event>
 7    1  0.6597701E-006  0.1178395E+03  0.7818608E-02  0.1313171E+00
          2   -1    0    0  502    0  0.00000000000E+00  0.00000000000E+00  0.30029918023E+03  0.30029918023E+03  0.00000000000E+00 0. -1.
          1   -1    0    0  501    0 -0.00000000000E+00 -0.00000000000E+00 -0.21486154367E+03  0.21486154367E+03  0.00000000000E+00 0. -1.
         25    2    1    2    0    0 -0.17738549486E+02 -0.14874685469E+03  0.56676436533E+02  0.20316284469E+03  0.12499055999E+03 0.  0.
          2    1    1    2  501    0  0.55758621541E+02  0.99046904603E+02 -0.11099742681E+03  0.15887020471E+03  0.00000000000E+00 0. -1.
          1    1    1    2  502    0 -0.38020072055E+02  0.49699950090E+02  0.13975862684E+03  0.15312767449E+03  0.00000000000E+00 0. -1.
         22    1    3    3    0    0  0.33877586968E+02 -0.10651153783E+03  0.74260261526E+02  0.13419010780E+03  0.00000000000E+00 0. -1.
         22    1    3    3    0    0 -0.51616136454E+02 -0.42235316858E+02 -0.17583824994E+02  0.68972736889E+02  0.00000000000E+00 0. -1.
</event>
<event>
 7    1  0.6597701E-006  0.8575335E+02  0.7818608E-02  0.1365769E+00
          2   -1    0    0  502    0  0.00000000000E+00  0.00000000000E+00  0.53524165930E+03  0.53524165930E+03  0.00000000000E+00 0. -1.
          1   -1    0    0  501    0 -0.00000000000E+00 -0.00000000000E+00 -0.16397713426E+03  0.16397713426E+03  0.00000000000E+00 0. -1.
         25    2    1    2    0    0 -0.10192632802E+03  0.34886869622E+02  0.33503300843E+03  0.37346927017E+03  0.12500443596E+03 0.  0.
          2    1    1    2  501    0  0.48823372944E+02  0.24197623087E+02 -0.13030289107E+03  0.14123770789E+03  0.00000000000E+00 0. -1.
          1    1    1    2  502    0  0.53102955077E+02 -0.59084492709E+02  0.16653440769E+03  0.18451181550E+03  0.00000000000E+00 0. -1.
         22    1    3    3    0    0 -0.45293062846E+02  0.19271800822E+01  0.16464030516E+02  0.48231108901E+02  0.00000000000E+00 0.  1.
         22    1    3    3    0    0 -0.56633265175E+02  0.32959689540E+02  0.31856897791E+03  0.32523816127E+03  0.00000000000E+00 0.  1.
</event>
<event>
 7    1  0.6597701E-006  0.7527161E+02  0.7818608E-02  0.1346138E+00
          2   -1    0    0  502    0  0.00000000000E+00  0.00000000000E+00  0.64144008328E+02  0.64144008328E+02  0.00000000000E+00 0. -1.
          1   -1    0    0  501    0 -0.00000000000E+00 -0.00000000000E+00 -0.12730018434E+04  0.12730018434E+04  0.00000000000E+00 0. -1.
         25    2    1    2    0    0  0.35066566704E+02  0.13104866550E+03 -0.10310016621E+04  0.10473738675E+04  0.12499669673E+03 0.  0.
          2    1    1    2  501    0 -0.45064466247E+02 -0.57794053023E+02 -0.19966393014E+03  0.21268907749E+03  0.00000000000E+00 0. -1.
          1    1    1    2  502    0  0.99978995432E+01 -0.73254612473E+02  0.21807757161E+02  0.77082906771E+02  0.00000000000E+00 0. -1.
         22    1    3    3    0    0  0.60747290394E+02  0.25103529863E+02 -0.56400713423E+03  0.56782432843E+03  0.00000000000E+00 0.  1.
         22    1    3    3    0    0 -0.25680723690E+02  0.10594513563E+03 -0.46699452785E+03  0.47954953902E+03  0.00000000000E+00 0.  1.
</event>
<event>
 7    1  0.6597701E-006  0.8955958E+02  0.7818608E-02  0.1324562E+00
          2   -1    0    0  502    0  0.00000000000E+00  0.00000000000E+00  0.35009108780E+04  0.35009108780E+04  0.00000000000E+00 0. -1.
          1   -1    0    0  501    0 -0.00000000000E+00 -0.00000000000E+00 -0.67366714787E+03  0.67366714787E+03  0.00000000000E+00 0. -1.
         25    2    1    2    0    0  0.15516773526E+03  0.17503885276E+02  0.24693875824E+03  0.31778623685E+03  0.12500371971E+03 0.  0.
          2    1    1    2  501    0 -0.82478118370E+02 -0.33147991136E+02 -0.63471649219E+03  0.64091064493E+03  0.00000000000E+00 0. -1.
          1    1    1    2  502    0 -0.72689616894E+02  0.15644105859E+02  0.32150214641E+04  0.32158811441E+04  0.00000000000E+00 0. -1.
         22    1    3    3    0    0  0.91385950836E+01  0.47694703927E+02  0.41161741571E+02  0.63659937732E+02  0.00000000000E+00 0. -1.
         22    1    3    3    0    0  0.14602914018E+03 -0.30190818651E+02  0.20577701667E+03  0.25412629912E+03  0.00000000000E+00 0. -1.
</event>
<event>
 7    1  0.6597701E-006  0.4866024E+02  0.7818608E-02  0.1515721E+00
          2   -1    0    0  502    0  0.00000000000E+00  0.00000000000E+00  0.54474318650E+03  0.54474318650E+03  0.00000000000E+00 0. -1.
          1   -1    0    0  501    0 -0.00000000000E+00 -0.00000000000E+00 -0.32589446525E+04  0.32589446525E+04  0.00000000000E+00 0. -1.
         25    2    1    2    0    0  0.20930404538E+02  0.36878482398E+02 -0.19411787503E+03  0.23474172881E+03  0.12499530207E+03 0.  0.
          2    1    1    2  501    0 -0.45529069539E+02 -0.17599192485E+02 -0.30438533573E+04  0.30442447156E+04  0.00000000000E+00 0. -1.
          1    1    1    2  502    0  0.24598665001E+02 -0.19279289912E+02  0.52376976634E+03  0.52470139458E+03  0.00000000000E+00 0. -1.
         22    1    3    3    0    0  0.56778022854E+02 -0.15348972740E+02 -0.49556079552E+02  0.76909946457E+02  0.00000000000E+00 0. -1.
         22    1    3    3    0    0 -0.35847618316E+02  0.52227455138E+02 -0.14456179547E+03  0.15783178235E+03  0.00000000000E+00 0. -1.
</event>
<event>
 7    1  0.6597701E-006  0.1830018E+03  0.7818608E-02  0.1262438E+00
          2   -1    0    0  502    0  0.00000000000E+00  0.00000000000E+00  0.12345897564E+04  0.12345897564E+04  0.00000000000E+00 0. -1.
          1   -1    0    0  501    0 -0.00000000000E+00 -0.00000000000E+00 -0.25904718617E+04  0.25904718617E+04  0.00000000000E+00 0. -1.
         25    2    1    2    0    0 -0.98011006430E+02 -0.16894268359E+03  0.71863516642E+02  0.24277025566E+03  0.12500097716E+03 0.  0.
          2    1    1    2  501    0 -0.41054300571E+02  0.50290348122E+02 -0.24968384104E+04  0.24976822501E+04  0.00000000000E+00 0. -1.
          1    1    1    2  502    0  0.13906530700E+03  0.11865233547E+03  0.10690927884E+04  0.10846091124E+04  0.00000000000E+00 0. -1.
         22    1    3    3    0    0  0.26516804594E+02 -0.61203432889E+02  0.13399607770E+02  0.68033452151E+02  0.00000000000E+00 0. -1.
         22    1    3    3    0    0 -0.12452781102E+03 -0.10773925070E+03  0.58463908872E+02  0.17473680351E+03  0.00000000000E+00 0. -1.
</event>
<event>
 7    1  0.6597701E-006  0.8723364E+02  0.7818608E-02  0.1382599E+00
          2   -1    0    0  502    0  0.00000000000E+00  0.00000000000E+00  0.20747934484E+04  0.20747934484E+04  0.00000000000E+00 0. -1.
          1   -1    0    0  501    0 -0.00000000000E+00 -0.00000000000E+00 -0.22321989071E+03  0.22321989071E+03  0.00000000000E+00 0. -1.
         25    2    1    2    0    0 -0.12784640337E+02  0.80234344756E+02 -0.12042831206E+03  0.19164824371E+03  0.12500029545E+03 0.  0.
          2    1    1    2  501    0 -0.44416971240E+02 -0.14228531389E+02 -0.58032885753E+02  0.74452228096E+02  0.00000000000E+00 0. -1.
          1    1    1    2  502    0  0.57201611577E+02 -0.66005813367E+02  0.20300347555E+04  0.20319128673E+04  0.00000000000E+00 0. -1.
         22    1    3    3    0    0  0.25168113179E+02  0.10057230044E+03 -0.68820965551E+02  0.12443691911E+03  0.00000000000E+00 0.  1.
         22    1    3    3    0    0 -0.37952753516E+02 -0.20337955686E+02 -0.51607346510E+02  0.67211324602E+02  0.00000000000E+00 0.  1.
</event>
<event>
 7    1  0.6597701E-006  0.5774493E+02  0.7818608E-02  0.1537781E+00
          2   -1    0    0  502    0  0.00000000000E+00  0.00000000000E+00  0.94056528516E+03  0.94056528516E+03  0.00000000000E+00 0. -1.
          1   -1    0    0  501    0 -0.00000000000E+00 -0.00000000000E+00 -0.49007137147E+03  0.49007137147E+03  0.00000000000E+00 0. -1.
         25    2    1    2    0    0 -0.70538518712E+02  0.36448832683E+02  0.55845611671E+02  0.15826584421E+03  0.12500058029E+03 0.  0.
          2    1    1    2  501    0  0.48562582442E+02 -0.30545678304E+02 -0.43682999084E+03  0.44058121132E+03  0.00000000000E+00 0. -1.
          1    1    1    2  502    0  0.21975936270E+02 -0.59031543783E+01  0.83147829285E+03  0.83178960110E+03  0.00000000000E+00 0. -1.
         22    1    3    3    0    0 -0.95464438878E+02  0.29684067469E+02  0.75937761367E+02  0.12554340506E+03  0.00000000000E+00 0. -1.
         22    1    3    3    0    0  0.24925920166E+02  0.67647652137E+01 -0.20092149696E+02  0.32722439150E+02  0.00000000000E+00 0. -1.
</event>
<event>
 7    1  0.6597701E-006  0.1029974E+03  0.7818608E-02  0.1286030E+00
          2   -1    0    0  502    0  0.00000000000E+00  0.00000000000E+00  0.10640845206E+04  0.10640845206E+04  0.00000000000E+00 0. -1.
          1   -1    0    0  501    0 -0.00000000000E+00 -0.00000000000E+00 -0.15078715021E+04  0.15078715021E+04  0.00000000000E+00 0. -1.
         25    2    1    2    0    0  0.69811952956E+02 -0.19480093502E+02  0.12708107761E+03  0.19242667212E+03  0.12500096415E+03 0.  0.
          2    1    1    2  501    0 -0.36346908772E+02 -0.84471957895E+02 -0.14704602178E+04  0.14733329093E+04  0.00000000000E+00 0. -1.
          1    1    1    2  502    0 -0.33465044184E+02  0.10395205140E+03  0.89959215868E+03  0.90619644125E+03  0.00000000000E+00 0. -1.
         22    1    3    3    0    0 -0.31546561438E+02  0.29461877370E+01  0.62762305348E+02  0.70306276628E+02  0.00000000000E+00 0.  1.
         22    1    3    3    0    0  0.10135851439E+03 -0.22426281239E+02  0.64318772260E+02  0.12212039549E+03  0.00000000000E+00 0.  1.
</event>
<event>
 7    1  0.6597701E-006  0.1636914E+03  0.7818608E-02  0.1250873E+00
          2   -1    0    0  502    0  0.00000000000E+00  0.00000000000E+00  0.81803924490E+03  0.81803924490E+03  0.00000000000E+00 0. -1.
          1   -1    0    0  501    0 -0.00000000000E+00 -0.00000000000E+00 -0.25310667565E+03  0.25310667565E+03  0.00000000000E+00 0. -1.
         25    2    1    2    0    0  0.68693996228E+02  0.70479307132E+02  0.40545706717E+03  0.43555419926E+03  0.12500331726E+03 0.  0.
          2    1    1    2  501    0 -0.14972077586E+03 -0.77888520512E+02 -0.20305970514E+03  0.26403820974E+03  0.00000000000E+00 0. -1.
          1    1    1    2  502    0  0.81026779633E+02  0.74092133808E+01  0.36253520722E+03  0.37155351154E+03  0.00000000000E+00 0. -1.
         22    1    3    3    0    0  0.21451893007E+02  0.65144340115E+02  0.74749675934E+02  0.10144694581E+03  0.00000000000E+00 0.  1.
         22    1    3    3    0    0  0.47242103220E+02  0.53349670164E+01  0.33070739123E+03  0.33410725345E+03  0.00000000000E+00 0.  1.
</event>
<event>
 7    1  0.6597701E-006  0.8602696E+02  0.7818608E-02  0.1402417E+00
          2   -1    0    0  502    0  0.00000000000E+00  0.00000000000E+00  0.19444499672E+04  0.19444499672E+04  0.00000000000E+00 0. -1.
          1   -1    0    0  501    0 -0.00000000000E+00 -0.00000000000E+00 -0.75949150366E+02  0.75949150366E+02  0.00000000000E+00 0. -1.
         25    2    1    2    0    0 -0.33290368484E+02 -0.77565103960E+02  0.51741586096E+02  0.15945206868E+03  0.12499270574E+03 0.  0.
          2    1    1    2  501    0 -0.33307832373E+02  0.22784861607E+02 -0.17509724426E+01  0.40393409367E+02  0.00000000000E+00 0. -1.
          1    1    1    2  502    0  0.66598200857E+02  0.54780242353E+02  0.18185102032E+04  0.18205536395E+04  0.00000000000E+00 0. -1.
         22    1    3    3    0    0 -0.44223170057E+02 -0.99124937435E+02  0.72089494147E+01  0.10878148254E+03  0.00000000000E+00 0.  1.
         22    1    3    3    0    0  0.10932801573E+02  0.21559833476E+02  0.44532636682E+02  0.50670586138E+02  0.00000000000E+00 0.  1.
</event>
<event>
 7    1  0.6597701E-006  0.7177340E+02  0.7818608E-02  0.1485128E+00
          2   -1    0    0  502    0  0.00000000000E+00  0.00000000000E+00  0.51445331914E+03  0.51445331914E+03  0.00000000000E+00 0. -1.
          1   -1    0    0  501    0 -0.00000000000E+00 -0.00000000000E+00 -0.23935553913E+04  0.23935553913E+04  0.00000000000E+00 0. -1.
         25    2    1    2    0    0 -0.23452636477E+02  0.67754719118E+02 -0.47823953579E+03  0.49947838251E+03  0.12499949153E+03 0.  0.
          2    1    1    2  501    0  0.25834782777E+02  0.40043243158E+01 -0.19020482427E+04  0.19022279013E+04  0.00000000000E+00 0. -1.
          1    1    1    2  502    0 -0.23821463004E+01 -0.71759043434E+02  0.50118570639E+03  0.50630242665E+03  0.00000000000E+00 0. -1.
         22    1    3    3    0    0 -0.72912105311E+02  0.36513212997E+02 -0.33437826122E+03  0.34417758701E+03  0.00000000000E+00 0. -1.
         22    1    3    3    0    0  0.49459468834E+02  0.31241506121E+02 -0.14386127456E+03  0.15530079550E+03  0.00000000000E+00 0. -1.
</event>
<event>
 7    1  0.6597701E-006  0.1492873E+03  0.7818608E-02  0.1246216E+00
          2   -1    0    0  502    0  0.00000000000E+00  0.00000000000E+00  0.72054173848E+03  0.72054173848E+03  0.00000000000E+00 0. -1.
          1   -1    0    0  501    0 -0.00000000000E+00 -0.00000000000E+00 -0.13834215253E+04  0.13834215253E+04  0.00000000000E+00 0. -1.
         25    2    1    2    0    0 -0.20901301290E+03  0.97008861158E+02 -0.33652676479E+02  0.26429907842E+03  0.12499736603E+03 0.  0.
          2    1    1    2  501    0  0.11583519879E+03 -0.89572951174E+02 -0.12264552176E+04  0.12351653766E+04  0.00000000000E+00 0. -1.
          1    1    1    2  502    0  0.93177814108E+02 -0.74359099840E+01  0.59722810720E+03  0.60449880879E+03  0.00000000000E+00 0. -1.
         22    1    3    3    0    0 -0.13012145028E+03  0.63651571596E+02  0.41142513221E+02  0.15058492881E+03  0.00000000000E+00 0. -1.
         22    1    3    3    0    0 -0.78891562617E+02  0.33357289562E+02 -0.74795189700E+02  0.11371414961E+03  0.00000000000E+00 0. -1.
</event>
<event>
 7    1  0.6597701E-006  0.4765480E+02  0.7818608E-02  0.1502464E+00
          2   -1    0    0  502    0  0.00000000000E+00  0.00000000000E+00  0.26483594225E+04  0.26483594225E+04  0.00000000000E+00 0. -1.
          1   -1    0    0  501    0 -0.00000000000E+00 -0.00000000000E+00 -0.58833112254E+03  0.58833112254E+03  0.00000000000E+00 0. -1.
         25    2    1    2    0    0 -0.17083857615E+02  0.26308903297E+01  0.48440247577E+03  0.50057021955E+03  0.12500402553E+03 0.  0.
          2    1    1    2  501    0 -0.28329024315E+02 -0.20412726279E+02 -0.57944581554E+03  0.58049691313E+03  0.00000000000E+00 0. -1.
          1    1    1    2  502    0  0.45412881930E+02  0.17781835949E+02  0.21550716398E+04  0.21556234124E+04  0.00000000000E+00 0. -1.
         22    1    3    3    0    0 -0.50709191654E+02  0.40465874431E+02  0.36745902098E+03  0.37314211932E+03  0.00000000000E+00 0. -1.
         22    1    3    3    0    0  0.33625334039E+02 -0.37834984102E+02  0.11694345478E+03  0.12742810023E+03  0.00000000000E+00 0. -1.
</event>
<event>
 7    1  0.6597701E-006  0.1085041E+03  0.7818608E-02  0.1357004E+00
          2   -1    0    0  502    0  0.00000000000E+00  0.00000000000E+00  0.36459815681E+03  0.36459815681E+03  0.00000000000E+00 0. -1.
          1   -1    0    0  501    0 -0.00000000000E+00 -0.00000000000E+00 -0.54471615719E+03  0.54471615719E+03  0.00000000000E+00 0. -1.
         25    2    1    2    0    0  0.77980673729E+02 -0.18079212064E+02 -0.12031830842E+03  0.19107570516E+03  0.12500234548E+03 0.  0.
          2    1    1    2  501    0 -0.11597413841E+03 -0.84692260539E+01 -0.37861612700E+03  0.39607057476E+03  0.00000000000E+00 0. -1.
          1    1    1    2  502    0  0.37993464680E+02  0.26548438118E+02  0.31881643504E+03  0.32216803407E+03  0.00000000000E+00 0. -1.
         22    1    3    3    0    0 -0.27583902130E+02  0.18361662334E+02 -0.11303058002E+02  0.35011161371E+02  0.00000000000E+00 0. -1.
         22    1    3    3    0    0  0.10556457586E+03 -0.36440874398E+02 -0.10901525042E+03  0.15606454379E+03  0.00000000000E+00 0. -1.
</event>
<event>
 7    1  0.6597701E-006  0.7291614E+02  0.7818608E-02  0.1391697E+00
          2   -1    0    0  502    0  0.00000000000E+00  0.00000000000E+00  0.46034675038E+03  0.46034675038E+03  0.00000000000E+00 0. -1.
          1   -1    0    0  501    0 -0.00000000000E+00 -0.00000000000E+00 -0.31668417467E+03  0.31668417467E+03  0.00000000000E+00 0. -1.
         25    2    1    2    0    0  0.59042287725E+02 -0.91589913063E+02  0.51522618139E+02  0.17365018296E+03  0.12500040779E+03 0.  0.
          2    1    1    2  501    0  0.78318153194E-01  0.51848738354E+02 -0.24927657610E+03  0.25461168315E+03  0.00000000000E+00 0. -1.
          1    1    1    2  502    0 -0.59120605878E+02  0.39741174709E+02  0.34141653367E+03  0.34876905894E+03  0.00000000000E+00 0. -1.
         22    1    3    3    0    0 -0.35139678948E+02 -0.53576020489E+02  0.15846976218E+02  0.66002376194E+02  0.00000000000E+00 0.  1.
         22    1    3    3    0    0  0.94181966673E+02 -0.38013892574E+02  0.35675641920E+02  0.10764780677E+03  0.00000000000E+00 0.  1.
</event>
<event>
 7    1  0.6597701E-006  0.8869636E+02  0.7818608E-02  0.1336187E+00
          2   -1    0    0  502    0  0.00000000000E+00  0.00000000000E+00  0.52163700932E+03  0.52163700932E+03  0.00000000000E+00 0. -1.
          1   -1    0    0  501    0 -0.00000000000E+00 -0.00000000000E+00 -0.91910666238E+03  0.91910666238E+03  0.00000000000E+00 0. -1.
         25    2    1    2    0    0 -0.44385606584E+02 -0.28113466359E+02 -0.27815045002E+02  0.13841543721E+03  0.12499882986E+03 0.  0.
          2    1    1    2  501    0  0.27650989649E+02 -0.61887169921E+02 -0.83010408252E+03  0.83286696828E+03  0.00000000000E+00 0. -1.
          1    1    1    2  502    0  0.16734616935E+02  0.90000636280E+02  0.46044947446E+03  0.46946126621E+03  0.00000000000E+00 0. -1.
         22    1    3    3    0    0 -0.59596857895E+02  0.29438072190E+02 -0.40104626176E+02  0.77632252356E+02  0.00000000000E+00 0.  1.
         22    1    3    3    0    0  0.15211251310E+02 -0.57551538549E+02  0.12289581174E+02  0.60783184856E+02  0.00000000000E+00 0.  1.
</event>
<event>
 7    1  0.6597701E-006  0.6604430E+02  0.7818608E-02  0.1420199E+00
          2   -1    0    0  502    0  0.00000000000E+00  0.00000000000E+00  0.99895864771E+02  0.99895864771E+02  0.00000000000E+00 0. -1.
          1   -1    0    0  501    0 -0.00000000000E+00 -0.00000000000E+00 -0.11169541571E+04  0.11169541571E+04  0.00000000000E+00 0. -1.
         25    2    1    2    0    0  0.43389895433E+02  0.30667062679E+02 -0.40293279073E+02  0.14167187131E+03  0.12499687605E+03 0.  0.
          2    1    1    2  501    0  0.29309488400E+02 -0.35151236000E+02 -0.99820267166E+03  0.99925133435E+03  0.00000000000E+00 0. -1.
          1    1    1    2  502    0 -0.72699383832E+02  0.44841733215E+01  0.21437658410E+02  0.75926816199E+02  0.00000000000E+00 0. -1.
         22    1    3    3    0    0  0.50260205061E+02  0.25675614851E+02  0.34664833994E+02  0.66234251913E+02  0.00000000000E+00 0. -1.
         22    1    3    3    0    0 -0.68703096281E+01  0.49914478274E+01 -0.74958113066E+02  0.75437619397E+02  0.00000000000E+00 0. -1.
</event>
<event>
 7    1  0.6597701E-006  0.7228455E+02  0.7818608E-02  0.1406751E+00
          2   -1    0    0  502    0  0.00000000000E+00  0.00000000000E+00  0.22726877303E+04  0.22726877303E+04  0.00000000000E+00 0. -1.
          1   -1    0    0  501    0 -0.00000000000E+00 -0.00000000000E+00 -0.75811040503E+02  0.75811040503E+02  0.00000000000E+00 0. -1.
         25    2    1    2    0    0 -0.35712245273E+02  0.87793330154E+02  0.19215658860E+04  0.19279585863E+04  0.12500329167E+03 0.  0.
          2    1    1    2  501    0  0.35138061155E+02 -0.30331301153E+02 -0.62513781388E+02  0.77862982442E+02  0.00000000000E+00 0. -1.
          1    1    1    2  502    0  0.57418411763E+00 -0.57462029000E+02  0.33782458519E+03  0.34267720208E+03  0.00000000000E+00 0. -1.
         22    1    3    3    0    0  0.84642030670E+01  0.18779429859E+02  0.43760712134E+02  0.48366410305E+02  0.00000000000E+00 0. -1.
         22    1    3    3    0    0 -0.44176448340E+02  0.69013900295E+02  0.18778051739E+04  0.18795921760E+04  0.00000000000E+00 0. -1.
</event>
<event>
 7    1  0.6597701E-006  0.1427575E+03  0.7818608E-02  0.1211174E+00
          2   -1    0    0  502    0  0.00000000000E+00  0.00000000000E+00  0.10101086879E+04  0.10101086879E+04  0.00000000000E+00 0. -1.
          1   -1    0    0  501    0 -0.00000000000E+00 -0.00000000000E+00 -0.14763427081E+03  0.14763427081E+03  0.00000000000E+00 0. -1.
         25    2    1    2    0    0 -0.96420731055E+02 -0.13891614640E+03  0.22367832096E+03  0.30700444408E+03  0.12500033724E+03 0.  0.
          2    1    1    2  501    0  0.14275613517E+03  0.62248392256E+00 -0.46464392030E+02  0.15012874922E+03  0.00000000000E+00 0. -1.
          1    1    1    2  502    0 -0.46335404116E+02  0.13829366248E+03  0.68526048812E+03  0.70060976537E+03  0.00000000000E+00 0. -1.
         22    1    3    3    0    0 -0.35136593882E+02 -0.10122243932E+03  0.20709245814E+03  0.23316914176E+03  0.00000000000E+00 0.  1.
         22    1    3    3    0    0 -0.61284137173E+02 -0.37693707085E+02  0.16585862815E+02  0.73835302317E+02  0.00000000000E+00 0.  1.
</event>
<event>
 7    1  0.6597701E-006  0.1222210E+03  0.7818608E-02  0.1287192E+00
          2   -1    0    0  502    0  0.00000000000E+00  0.00000000000E+00  0.12796628109E+04  0.12796628109E+04  0.00000000000E+00 0. -1.
          1   -1    0    0  501    0 -0.00000000000E+00 -0.00000000000E+00 -0.32403905400E+03  0.32403905400E+03  0.00000000000E+00 0. -1.
         25    2    1    2    0    0 -0.18854641705E+03 -0.25129136673E+02  0.39757528052E+03  0.45811466209E+03  0.12498685949E+03 0.  0.
          2    1    1    2  501    0  0.76319486640E+02  0.71344010203E+01 -0.28488924791E+03  0.29502109636E+03  0.00000000000E+00 0. -1.
          1    1    1    2  502    0  0.11222693041E+03  0.17994735653E+02  0.84293772429E+03  0.85056610646E+03  0.00000000000E+00 0. -1.
         22    1    3    3    0    0  0.82839121678E+01  0.22084505299E+02  0.60481650264E+02  0.64918245462E+02  0.00000000000E+00 0.  1.
         22    1    3    3    0    0 -0.19683032922E+03 -0.47213641972E+02  0.33709363026E+03  0.39319641663E+03  0.00000000000E+00 0.  1.
</event>
<event>
 7    1  0.6597701E-006  0.1593012E+03  0.7818608E-02  0.1391162E+00
          2   -1    0    0  502    0  0.00000000000E+00  0.00000000000E+00  0.31581096440E+04  0.31581096440E+04  0.00000000000E+00 0. -1.
          1   -1    0    0  501    0 -0.00000000000E+00 -0.00000000000E+00 -0.38767231690E+03  0.38767231690E+03  0.00000000000E+00 0. -1.
         25    2    1    2    0    0 -0.87499830563E+02 -0.14869180009E+03  0.12048029759E+03  0.24475568224E+03  0.12499748047E+03 0.  0.
          2    1    1    2  501    0  0.23617266883E+02  0.32105338536E+01 -0.32297403697E+03  0.32385229871E+03  0.00000000000E+00 0. -1.
          1    1    1    2  502    0  0.63882563679E+02  0.14548126623E+03  0.29729310665E+04  0.29771739800E+04  0.00000000000E+00 0. -1.
         22    1    3    3    0    0 -0.89005361705E+02 -0.33341300941E+02  0.73697562712E+02  0.12027022703E+03  0.00000000000E+00 0. -1.
         22    1    3    3    0    0  0.15055311419E+01 -0.11535049914E+03  0.46782734874E+02  0.12448545521E+03  0.00000000000E+00 0. -1.
</event>
<event>
 7    1  0.6597701E-006  0.3072095E+02  0.7818608E-02  0.1637859E+00
          2   -1    0    0  502    0  0.00000000000E+00  0.00000000000E+00  0.10600647887E+04  0.10600647887E+04  0.00000000000E+00 0. -1.
          1   -1    0    0  501    0 -0.00000000000E+00 -0.00000000000E+00 -0.11973059970E+03  0.11973059970E+03  0.00000000000E+00 0. -1.
         25    2    1    2    0    0 -0.27765036812E+02  0.42934248519E+02  0.68737035642E+03  0.70051138694E+03  0.12499579747E+03 0.  0.
          2    1    1    2  501    0  0.79252184370E+01 -0.21790349824E+02 -0.11139032724E+03  0.11377800066E+03  0.00000000000E+00 0. -1.
          1    1    1    2  502    0  0.19839818375E+02 -0.21143898695E+02  0.36435415982E+03  0.36550600080E+03  0.00000000000E+00 0. -1.
         22    1    3    3    0    0 -0.68599804065E+02  0.50251692688E+02  0.33157481150E+03  0.34230545038E+03  0.00000000000E+00 0. -1.
         22    1    3    3    0    0  0.40834767253E+02 -0.73174441690E+01  0.35579554492E+03  0.35820593657E+03  0.00000000000E+00 0. -1.
</event>
<event>
 7    1  0.6597701E-006  0.8551269E+02  0.7818608E-02  0.1365319E+00
          2   -1    0    0  502    0  0.00000000000E+00  0.00000000000E+00  0.20533518915E+03  0.20533518915E+03  0.00000000000E+00 0. -1.
          1   -1    0    0  501    0 -0.00000000000E+00 -0.00000000000E+00 -0.25714332602E+03  0.25714332602E+03  0.00000000000E+00 0. -1.
         25    2    1    2    0    0 -0.11440029542E+02  0.39717676373E+02  0.15912541882E+03  0.20652838632E+03  0.12499882938E+03 0.  0.
          2    1    1    2  501    0 -0.15691249476E+02 -0.87386874444E+02 -0.14680489480E+03  0.17156444350E+03  0.00000000000E+00 0. -1.
          1    1    1    2  502    0  0.27131279018E+02  0.47669198071E+02 -0.64128660888E+02  0.84385685357E+02  0.00000000000E+00 0. -1.
         22    1    3    3    0    0 -0.21664797346E+02 -0.21536616968E+02 -0.50839274916E+01  0.30968300457E+02  0.00000000000E+00 0.  1.
         22    1    3    3    0    0  0.10224767804E+02  0.61254293341E+02  0.16420934632E+03  0.17556008586E+03  0.00000000000E+00 0.  1.
</event>
<event>
 7    1  0.6597701E-006  0.8049816E+02  0.7818608E-02  0.1478936E+00
          2   -1    0    0  502    0  0.00000000000E+00  0.00000000000E+00  0.38868783705E+03  0.38868783705E+03  0.00000000000E+00 0. -1.
          1   -1    0    0  501    0 -0.00000000000E+00 -0.00000000000E+00 -0.16535766129E+04  0.16535766129E+04  0.00000000000E+00 0. -1.
         25    2    1    2    0    0  0.49175184399E+02  0.84162107600E+02 -0.62470509978E+02  0.17037957458E+03  0.12500070281E+03 0.  0.
          2    1    1    2  501    0 -0.53077873765E+02 -0.60127933622E+02 -0.15356608918E+04  0.15377538827E+04  0.00000000000E+00 0. -1.
          1    1    1    2  502    0  0.39026893666E+01 -0.24034173978E+02  0.33324262596E+03  0.33413099267E+03  0.00000000000E+00 0. -1.
         22    1    3    3    0    0  0.72175956408E+02  0.74162625530E+02 -0.87074490675E+02  0.13524581559E+03  0.00000000000E+00 0.  1.
         22    1    3    3    0    0 -0.23000772009E+02  0.99994820705E+01  0.24603980697E+02  0.35133758991E+02  0.00000000000E+00 0.  1.
</event>
<event>
 7    1  0.6597701E-006  0.1480698E+03  0.7818608E-02  0.1229200E+00
          2   -1    0    0  502    0  0.00000000000E+00  0.00000000000E+00  0.23707618481E+04  0.23707618481E+04  0.00000000000E+00 0. -1.
          1   -1    0    0  501    0 -0.00000000000E+00 -0.00000000000E+00 -0.39927048821E+03  0.39927048821E+03  0.00000000000E+00 0. -1.
         25    2    1    2    0    0  0.43913266481E+02 -0.93397542790E+02 -0.24696187013E+02  0.16397243570E+03  0.12500232816E+03 0.  0.
          2    1    1    2  501    0  0.99997817097E+02  0.50648427606E+02 -0.29209154142E+03  0.31286146329E+03  0.00000000000E+00 0. -1.
          1    1    1    2  502    0 -0.14391108358E+03  0.42749115184E+02  0.22882790883E+04  0.22931984373E+04  0.00000000000E+00 0. -1.
         22    1    3    3    0    0  0.13265289712E+02  0.21040481144E+02 -0.37300405304E+02  0.44832911948E+02  0.00000000000E+00 0.  1.
         22    1    3    3    0    0  0.30647976769E+02 -0.11443802393E+03  0.12604218290E+02  0.11913952376E+03  0.00000000000E+00 0.  1.
</event>
<event>
 7    1  0.6597701E-006  0.6654819E+02  0.7818608E-02  0.1456456E+00
          2   -1    0    0  502    0  0.00000000000E+00  0.00000000000E+00  0.71959749624E+03  0.71959749624E+03  0.00000000000E+00 0. -1.
          1   -1    0    0  501    0 -0.00000000000E+00 -0.00000000000E+00 -0.88517812389E+02  0.88517812389E+02  0.00000000000E+00 0. -1.
         25    2    1    2    0    0  0.94963821530E+02  0.18752206746E+02  0.28528568553E+03  0.32615524267E+03  0.12497818728E+03 0.  0.
          2    1    1    2  501    0 -0.65049572739E+02 -0.13319687877E+01 -0.51612577324E+02  0.83048655572E+02  0.00000000000E+00 0. -1.
          1    1    1    2  502    0 -0.29914248791E+02 -0.17420237958E+02  0.39740657564E+03  0.39891141039E+03  0.00000000000E+00 0. -1.
         22    1    3    3    0    0  0.92683363677E+02  0.62046978965E+02  0.23233345129E+03  0.25771857925E+03  0.00000000000E+00 0. -1.
         22    1    3    3    0    0  0.22804578526E+01 -0.43294772219E+02  0.52952234239E+02  0.68436663423E+02  0.00000000000E+00 0. -1.
</event>
<event>
 7    1  0.6597701E-006  0.2343365E+03  0.7818608E-02  0.1255455E+00
          2   -1    0    0  502    0  0.00000000000E+00  0.00000000000E+00  0.64956927665E+03  0.64956927665E+03  0.00000000000E+00 0. -1.
          1   -1    0    0  501    0 -0.00000000000E+00 -0.00000000000E+00 -0.83845397609E+03  0.83845397609E+03  0.00000000000E+00 0. -1.
         25    2    1    2    0    0 -0.17754199824E+03 -0.21064180895E+03 -0.23476471209E+03  0.38292364360E+03  0.12499965588E+03 0.  0.
          2    1    1    2  501    0  0.14648439972E+03  0.16609332688E+03 -0.50506498425E+03  0.55148464250E+03  0.00000000000E+00 0. -1.
          1    1    1    2  502    0  0.31057598521E+02  0.44548482068E+02  0.55094499689E+03  0.55361496663E+03  0.00000000000E+00 0. -1.
         22    1    3    3    0    0 -0.72176834144E+02 -0.37181270481E+02 -0.13315236612E+03  0.15595350225E+03  0.00000000000E+00 0.  1.
         22    1    3    3    0    0 -0.10536516410E+03 -0.17346053847E+03 -0.10161234597E+03  0.22697014135E+03  0.00000000000E+00 0.  1.
</event>
<event>
 7    1  0.6597701E-006  0.5485092E+02  0.7818608E-02  0.1477861E+00
          2   -1    0    0  502    0  0.00000000000E+00  0.00000000000E+00  0.83035033093E+02  0.83035033093E+02  0.00000000000E+00 0. -1.
          1   -1    0    0  501    0 -0.00000000000E+00 -0.00000000000E+00 -0.90614001458E+03  0.90614001458E+03  0.00000000000E+00 0. -1.
         25    2    1    2    0    0  0.11133654069E+02  0.37241749114E+02 -0.16107152460E+03  0.20756916740E+03  0.12502006674E+03 0.  0.
          2    1    1    2  501    0 -0.46607516054E+02 -0.31068091235E+02 -0.71520204276E+03  0.71739211650E+03  0.00000000000E+00 0. -1.
          1    1    1    2  502    0  0.35473861985E+02 -0.61736578793E+01  0.53168585867E+02  0.64213763781E+02  0.00000000000E+00 0. -1.
         22    1    3    3    0    0 -0.15165803860E+02 -0.39848370494E+02 -0.26300334973E+02  0.50095926555E+02  0.00000000000E+00 0. -1.
         22    1    3    3    0    0  0.26299457929E+02  0.77090119608E+02 -0.13477118962E+03  0.15747324084E+03  0.00000000000E+00 0. -1.
</event>
<event>
 7    1  0.6597701E-006  0.7372929E+02  0.7818608E-02  0.1469177E+00
          2   -1    0    0  502    0  0.00000000000E+00  0.00000000000E+00  0.10791992577E+04  0.10791992577E+04  0.00000000000E+00 0. -1.
          1   -1    0    0  501    0 -0.00000000000E+00 -0.00000000000E+00 -0.86101447117E+02  0.86101447117E+02  0.00000000000E+00 0. -1.
         25    2    1    2    0    0  0.99347990674E+02 -0.15414887335E+02  0.40895632221E+03  0.43929109147E+03  0.12499499019E+03 0.  0.
          2    1    1    2  501    0 -0.70851177221E+02  0.15652445103E+02 -0.51975650815E+02  0.89254448791E+02  0.00000000000E+00 0. -1.
          1    1    1    2  502    0 -0.28496813453E+02 -0.23755776820E+00  0.63611713916E+03  0.63675516452E+03  0.00000000000E+00 0. -1.
         22    1    3    3    0    0  0.12939275376E+03 -0.15749205145E+02  0.32991982698E+03  0.35473597847E+03  0.00000000000E+00 0.  1.
         22    1    3    3    0    0 -0.30044763083E+02  0.33431780986E+00  0.79036495226E+02  0.84555113001E+02  0.00000000000E+00 0.  1.
</event>
<event>
 7    1  0.6597701E-006  0.9459318E+02  0.7818608E-02  0.1313312E+00
          2   -1    0    0  502    0  0.00000000000E+00  0.00000000000E+00  0.11378942999E+04  0.11378942999E+04  0.00000000000E+00 0. -1.
          1   -1    0    0  501    0 -0.00000000000E+00 -0.00000000000E+00 -0.11637840082E+03  0.11637840082E+03  0.00000000000E+00 0. -1.
         25    2    1    2    0    0 -0.23515884633E+02  0.57047623735E+02  0.15709546419E+03  0.21002607115E+03  0.12499814995E+03 0.  0.
          2    1    1    2  501    0 -0.45819360270E+02 -0.92456127084E+02 -0.58118495335E+02  0.11842849619E+03  0.00000000000E+00 0. -1.
          1    1    1    2  502    0  0.69335244903E+02  0.35408503348E+02  0.92253893020E+03  0.92581813335E+03  0.00000000000E+00 0. -1.
         22    1    3    3    0    0  0.81666011181E+01 -0.28622997345E+02  0.95058037649E+02  0.99609235879E+02  0.00000000000E+00 0.  1.
         22    1    3    3    0    0 -0.31682485752E+02  0.85670621080E+02  0.62037426546E+02  0.11041683527E+03  0.00000000000E+00 0.  1.
</event>
<event>
 7    1  0.6597701E-006  0.1023755E+03  0.7818608E-02  0.1332077E+00
          2   -1    0    0  502    0  0.00000000000E+00  0.00000000000E+00  0.35943291743E+03  0.35943291743E+03  0.00000000000E+00 0. -1.
          1   -1    0    0  501    0 -0.00000000000E+00 -0.00000000000E+00 -0.11503669475E+04  0.11503669475E+04  0.00000000000E+00 0. -1.
         25    2    1    2    0    0  0.27889750233E+02  0.13927232184E+03  0.90624309741E+02  0.20979076670E+03  0.12499912991E+03 0.  0.
          2    1    1    2  501    0 -0.41964727427E+02 -0.44098742557E+02 -0.10788201269E+04  0.10805362575E+04  0.00000000000E+00 0. -1.
          1    1    1    2  502    0  0.14074977194E+02 -0.95173579283E+02  0.19726178712E+03  0.21947284077E+03  0.00000000000E+00 0. -1.
         22    1    3    3    0    0 -0.49345085216E+02  0.41450008804E+02  0.34535583527E+02  0.73114616831E+02  0.00000000000E+00 0.  1.
         22    1    3    3    0    0  0.77234835448E+02  0.97822313037E+02  0.56088726214E+02  0.13667614987E+03  0.00000000000E+00 0.  1.
</event>
<event>
 7    1  0.6597701E-006  0.1155687E+03  0.7818608E-02  0.1293963E+00
          2   -1    0    0  502    0  0.00000000000E+00  0.00000000000E+00  0.12804056337E+04  0.12804056337E+04  0.00000000000E+00 0. -1.
          1   -1    0    0  501    0 -0.00000000000E+00 -0.00000000000E+00 -0.52209685680E+03  0.52209685680E+03  0.00000000000E+00 0. -1.
         25    2    1    2    0    0 -0.17959909468E+03 -0.62303533663E+02  0.29732933656E+03  0.37438798680E+03  0.12499626061E+03 0.  0.
          2    1    1    2  501    0  0.10852280824E+03  0.35145234729E+02 -0.47527535433E+03  0.48877300444E+03  0.00000000000E+00 0. -1.
          1    1    1    2  502    0  0.71076286438E+02  0.27158298934E+02  0.93625479465E+03  0.93934149924E+03  0.00000000000E+00 0. -1.
         22    1    3    3    0    0 -0.95823993775E+01 -0.30292188535E+02  0.16501259313E+01  0.31814493233E+02  0.00000000000E+00 0. -1.
         22    1    3    3    0    0 -0.17001669530E+03 -0.32011345128E+02  0.29567921063E+03  0.34257349357E+03  0.00000000000E+00 0. -1.
</event>
<event>
 7    1  0.6597701E-006  0.1532395E+03  0.7818608E-02  0.1253982E+00
          2   -1    0    0  502    0  0.00000000000E+00  0.00000000000E+00  0.28867608664E+03  0.28867608664E+03  0.00000000000E+00 0. -1.
          1   -1    0    0  501    0 -0.00000000000E+00 -0.00000000000E+00 -0.10961992946E+04  0.10961992946E+04  0.00000000000E+00 0. -1.
         25    2    1    2    0    0 -0.42071307453E+02 -0.63889892177E+02  0.87601606044E+02  0.17073525795E+03  0.12499829475E+03 0.  0.
          2    1    1    2  501    0  0.53716408399E+02  0.14734824866E+03 -0.10371806406E+04  0.10489712294E+04  0.00000000000E+00 0. -1.
          1    1    1    2  502    0 -0.11645100947E+02 -0.83458356482E+02  0.14205582658E+03  0.16516889389E+03  0.00000000000E+00 0. -1.
         22    1    3    3    0    0  0.10984197821E+02 -0.48831853240E+02 -0.16688149660E+02  0.52760750863E+02  0.00000000000E+00 0.  1.
         22    1    3    3    0    0 -0.53055505273E+02 -0.15058038938E+02  0.10428975570E+03  0.11797450708E+03  0.00000000000E+00 0.  1.
</event>
<event>
 7    1  0.6597701E-006  0.5824659E+02  0.7818608E-02  0.1421056E+00
          2   -1    0    0  502    0  0.00000000000E+00  0.00000000000E+00  0.14440952463E+04  0.14440952463E+04  0.00000000000E+00 0. -1.
          1   -1    0    0  501    0 -0.00000000000E+00 -0.00000000000E+00 -0.50764337318E+02  0.50764337318E+02  0.00000000000E+00 0. -1.
         25    2    1    2    0    0  0.94390003805E+01 -0.56280861953E+01  0.44036977040E+03  0.45789659997E+03  0.12499196572E+03 0.  0.
          2    1    1    2  501    0 -0.60666484762E+02 -0.16296945821E+00 -0.19048683847E+02  0.63586958480E+02  0.00000000000E+00 0. -1.
          1    1    1    2  502    0  0.51227484382E+02  0.57910556535E+01  0.97200982241E+03  0.97337602515E+03  0.00000000000E+00 0. -1.
         22    1    3    3    0    0  0.58064025133E+02 -0.29237586056E+01  0.35400643596E+03  0.35874856945E+03  0.00000000000E+00 0.  1.
         22    1    3    3    0    0 -0.48625024753E+02 -0.27043275897E+01  0.86363334439E+02  0.99148030517E+02  0.00000000000E+00 0.  1.
</event>
<event>
 7    1  0.6597701E-006  0.2317204E+03  0.7818608E-02  0.1205671E+00
          2   -1    0    0  502    0  0.00000000000E+00  0.00000000000E+00  0.19066094112E+04  0.19066094112E+04  0.00000000000E+00 0. -1.
          1   -1    0    0  501    0 -0.00000000000E+00 -0.00000000000E+00 -0.27725066854E+03  0.27725066854E+03  0.00000000000E+00 0. -1.
         25    2    1    2    0    0  0.28228984902E+03 -0.11084121159E+03  0.95005313426E+02  0.34150274074E+03  0.12499911722E+03 0.  0.
          2    1    1    2  501    0 -0.58238310359E+02  0.70958649622E+02 -0.13186417489E+03  0.16067044336E+03  0.00000000000E+00 0. -1.
          1    1    1    2  502    0 -0.22405153866E+03  0.39882561971E+02  0.16662176042E+04  0.16816868957E+04  0.00000000000E+00 0. -1.
         22    1    3    3    0    0  0.83210424144E+02 -0.64803532474E+01 -0.24433149213E+02  0.86965213994E+02  0.00000000000E+00 0.  1.
         22    1    3    3    0    0  0.19907942488E+03 -0.10436085835E+03  0.11943846264E+03  0.25453752675E+03  0.00000000000E+00 0.  1.
</event>
<event>
 7    1  0.6597701E-006  0.8615382E+02  0.7818608E-02  0.1408043E+00
          2   -1    0    0  502    0  0.00000000000E+00  0.00000000000E+00  0.70482605924E+02  0.70482605924E+02  0.00000000000E+00 0. -1.
          1   -1    0    0  501    0 -0.00000000000E+00 -0.00000000000E+00 -0.11006276174E+04  0.11006276174E+04  0.00000000000E+00 0. -1.
         25    2    1    2    0    0  0.11264832843E+03  0.30350444961E+02 -0.12996903836E+03  0.21477470217E+03  0.12500170540E+03 0.  0.
          2    1    1    2  501    0 -0.84777553932E+02 -0.37121463254E+01 -0.91205436164E+03  0.91599354379E+03  0.00000000000E+00 0. -1.
          1    1    1    2  502    0 -0.27870774499E+02 -0.26638298635E+02  0.11878388506E+02  0.40341977379E+02  0.00000000000E+00 0. -1.
         22    1    3    3    0    0  0.13426648006E+03  0.44857312182E+02 -0.92334512476E+02  0.16901280519E+03  0.00000000000E+00 0.  1.
         22    1    3    3    0    0 -0.21618151633E+02 -0.14506867222E+02 -0.37634525885E+02  0.45761896980E+02  0.00000000000E+00 0.  1.
</event>
<event>
 7    1  0.6597701E-006  0.1522633E+03  0.7818608E-02  0.1346025E+00
          2   -1    0    0  502    0  0.00000000000E+00  0.00000000000E+00  0.42151708517E+03  0.42151708517E+03  0.00000000000E+00 0. -1.
          1   -1    0    0  501    0 -0.00000000000E+00 -0.00000000000E+00 -0.77033208092E+03  0.77033208092E+03  0.00000000000E+00 0. -1.
         25    2    1    2    0    0 -0.25106499781E+02 -0.12035060505E+03 -0.45112243586E+03  0.48399450313E+03  0.12499848979E+03 0.  0.
          2    1    1    2  501    0 -0.27614460999E+02 -0.23506875470E+02 -0.28710454873E+03  0.28938582127E+03  0.00000000000E+00 0. -1.
          1    1    1    2  502    0  0.52720960780E+02  0.14385748052E+03  0.38941198885E+03  0.41846884169E+03  0.00000000000E+00 0. -1.
         22    1    3    3    0    0 -0.37248380277E+02 -0.13755384387E+03 -0.30848177717E+03  0.33980804676E+03  0.00000000000E+00 0.  1.
         22    1    3    3    0    0  0.12141880496E+02  0.17203238811E+02 -0.14264065869E+03  0.14418645637E+03  0.00000000000E+00 0.  1.
</event>
<event>
 7    1  0.6597701E-006  0.8012019E+02  0.7818608E-02  0.1378053E+00
          2   -1    0    0  502    0  0.00000000000E+00  0.00000000000E+00  0.30978474041E+03  0.30978474041E+03  0.00000000000E+00 0. -1.
          1   -1    0    0  501    0 -0.00000000000E+00 -0.00000000000E+00 -0.13610448462E+04  0.13610448462E+04  0.00000000000E+00 0. -1.
         25    2    1    2    0    0  0.33467642257E+02 -0.12020092057E+03  0.10239356257E+03  0.20414659105E+03  0.12499217814E+03 0.  0.
          2    1    1    2  501    0 -0.41557512173E+02  0.68127458605E+02 -0.13044783263E+04  0.13069170139E+04  0.00000000000E+00 0. -1.
          1    1    1    2  502    0  0.80898699165E+01  0.52073461965E+02  0.15082465797E+03  0.15976598163E+03  0.00000000000E+00 0. -1.
         22    1    3    3    0    0 -0.25003571950E+02 -0.11453562524E+03  0.76236431588E+02  0.13984127274E+03  0.00000000000E+00 0.  1.
         22    1    3    3    0    0  0.58471214207E+02 -0.56652953289E+01  0.26157130983E+02  0.64305318312E+02  0.00000000000E+00 0.  1.
</event>
<event>
 7    1  0.6597701E-006  0.8540638E+02  0.7818608E-02  0.1318340E+00
          2   -1    0    0  502    0  0.00000000000E+00  0.00000000000E+00  0.67761178270E+03  0.67761178270E+03  0.00000000000E+00 0. -1.
          1   -1    0    0  501    0 -0.00000000000E+00 -0.00000000000E+00 -0.18755932420E+04  0.18755932420E+04  0.00000000000E+00 0. -1.
         25    2    1    2    0    0  0.42259300257E+02  0.10033850145E+03  0.10593250840E+03  0.19672224685E+03  0.12499713091E+03 0.  0.
          2    1    1    2  501    0 -0.80927987284E+02 -0.27556740716E+02 -0.18259655059E+04  0.18279657387E+04  0.00000000000E+00 0. -1.
          1    1    1    2  502    0  0.38668687027E+02 -0.72781760733E+02  0.52205153824E+03  0.52851703911E+03  0.00000000000E+00 0. -1.
         22    1    3    3    0    0  0.47244149725E+02  0.11272866091E+03  0.38747918173E+02  0.12822309401E+03  0.00000000000E+00 0.  1.
         22    1    3    3    0    0 -0.49848494680E+01 -0.12390159460E+02  0.67184590229E+02  0.68499152841E+02  0.00000000000E+00 0.  1.
</event>
<event>
 7    1  0.6597701E-006  0.9791685E+02  0.7818608E-02  0.1294583E+00
          2   -1    0    0  502    0  0.00000000000E+00  0.00000000000E+00  0.19054633058E+04  0.19054633058E+04  0.00000000000E+00 0. -1.
          1   -1    0    0  501    0 -0.00000000000E+00 -0.00000000000E+00 -0.92754169421E+03  0.92754169421E+03  0.00000000000E+00 0. -1.
         25    2    1    2    0    0  0.57545316610E+02  0.21553758707E+02  0.80606120919E+03  0.81800703694E+03  0.12499924617E+03 0.  0.
          2    1    1    2  501    0 -0.10688111400E+02 -0.97559380914E+02 -0.91712345050E+03  0.92235974109E+03  0.00000000000E+00 0. -1.
          1    1    1    2  502    0 -0.46857205210E+02  0.76005622207E+02  0.10889838529E+04  0.10926382220E+04  0.00000000000E+00 0. -1.
         22    1    3    3    0    0  0.21189233941E+02  0.42998761627E+02  0.72528429460E+03  0.72686669007E+03  0.00000000000E+00 0. -1.
         22    1    3    3    0    0  0.36356082670E+02 -0.21445002920E+02  0.80776914590E+02  0.91140346872E+02  0.00000000000E+00 0. -1.
</event>
<event>
 7    1  0.8742560E-006  0.5685603E+02  0.7818608E-02  0.1488922E+00
          2   -1    0    0  502    0  0.00000000000E+00  0.00000000000E+00  0.22281396636E+04  0.22281396636E+04  0.00000000000E+00 0. -1.
          1   -1    0    0  501    0 -0.00000000000E+00 -0.00000000000E+00 -0.58326418263E+03  0.58326418263E+03  0.00000000000E+00 0. -1.
         25    2    1    2    0    0 -0.22490235448E+02 -0.46277555028E+02 -0.49402151867E+03  0.51218986214E+03  0.12503507979E+03 0.  0.
          2    1    1    2  501    0  0.30537272866E+02 -0.10016552292E+02 -0.76557617205E+02  0.83029664012E+02  0.00000000000E+00 0. -1.
          1    1    1    2  502    0 -0.80470374177E+01  0.56294107320E+02  0.22154546168E+04  0.22161843200E+04  0.00000000000E+00 0. -1.
         22    1    3    3    0    0 -0.56608634135E+02 -0.68224428838E+02 -0.26051811154E+03  0.27518865636E+03  0.00000000000E+00 0.  1.
         22    1    3    3    0    0  0.34118398687E+02  0.21946873810E+02 -0.23350340713E+03  0.23700120578E+03  0.00000000000E+00 0.  1.
</event>
<event>
 7    1  0.6597701E-006  0.1194090E+03  0.7818608E-02  0.1419239E+00
          2   -1    0    0  502    0  0.00000000000E+00  0.00000000000E+00  0.13884791949E+04  0.13884791949E+04  0.00000000000E+00 0. -1.
          1   -1    0    0  501    0 -0.00000000000E+00 -0.00000000000E+00 -0.87411339717E+03  0.87411339717E+03  0.00000000000E+00 0. -1.
         25    2    1    2    0    0 -0.10535872635E+03  0.94195006880E+02 -0.12649862267E+03  0.22715619706E+03  0.12499950315E+03 0.  0.
          2    1    1    2  501    0  0.24617880807E+02 -0.66542879930E+01 -0.69440183433E+03  0.69486993540E+03  0.00000000000E+00 0. -1.
          1    1    1    2  502    0  0.80740845540E+02 -0.87540718887E+02  0.13352662547E+04  0.13405664596E+04  0.00000000000E+00 0. -1.
         22    1    3    3    0    0 -0.14045708797E+02 -0.24715041856E+02 -0.53094103589E+02  0.60225402162E+02  0.00000000000E+00 0.  1.
         22    1    3    3    0    0 -0.91313017550E+02  0.11891004874E+03 -0.73404519082E+02  0.16693079490E+03  0.00000000000E+00 0.  1.
</event>
<event>
 7    1  0.6597701E-006  0.5369383E+02  0.7818608E-02  0.1479608E+00
          2   -1    0    0  502    0  0.00000000000E+00  0.00000000000E+00  0.14476739578E+03  0.14476739578E+03  0.00000000000E+00 0. -1.
          1   -1    0    0  501    0 -0.00000000000E+00 -0.00000000000E+00 -0.92697147319E+03  0.92697147319E+03  0.00000000000E+00 0. -1.
         25    2    1    2    0    0  0.60768568773E+02  0.48158653958E+02 -0.21612851562E+02  0.14867449343E+03  0.12499965897E+03 0.  0.
          2    1    1    2  501    0 -0.36251165846E+02 -0.24054083494E+01 -0.83309926489E+03  0.83389107093E+03  0.00000000000E+00 0. -1.
          1    1    1    2  502    0 -0.24517402927E+02 -0.45753245608E+02  0.72508039038E+02  0.89173304611E+02  0.00000000000E+00 0. -1.
         22    1    3    3    0    0  0.45468206970E+02 -0.21112527676E+02 -0.51341103783E+02  0.71756571877E+02  0.00000000000E+00 0. -1.
         22    1    3    3    0    0  0.15300361803E+02  0.69271181634E+02  0.29728252221E+02  0.76917921555E+02  0.00000000000E+00 0. -1.
</event>
<event>
 7    1  0.6597701E-006  0.9804519E+02  0.7818608E-02  0.1287393E+00
          2   -1    0    0  502    0  0.00000000000E+00  0.00000000000E+00  0.18087928534E+03  0.18087928534E+03  0.00000000000E+00 0. -1.
          1   -1    0    0  501    0 -0.00000000000E+00 -0.00000000000E+00 -0.16460724560E+04  0.16460724560E+04  0.00000000000E+00 0. -1.
         25    2    1    2    0    0  0.19943236844E+02  0.73360246548E+01 -0.12826287320E+03  0.18033416292E+03  0.12496997928E+03 0.  0.
          2    1    1    2  501    0  0.56150673562E+02 -0.80373885679E+02 -0.14719905671E+04  0.14752522120E+04  0.00000000000E+00 0. -1.
          1    1    1    2  502    0 -0.76093910406E+02  0.73037861024E+02  0.13506026964E+03  0.17136536633E+03  0.00000000000E+00 0. -1.
         22    1    3    3    0    0 -0.18715461214E+02 -0.17888296313E+02 -0.13153455804E+03  0.13405819480E+03  0.00000000000E+00 0. -1.
         22    1    3    3    0    0  0.38658698058E+02  0.25224320968E+02  0.32716848436E+01  0.46275968121E+02  0.00000000000E+00 0. -1.
</event>
<event>
 7    1  0.6597701E-006  0.7501957E+02  0.7818608E-02  0.1391170E+00
          2   -1    0    0  502    0  0.00000000000E+00  0.00000000000E+00  0.22177357933E+03  0.22177357933E+03  0.00000000000E+00 0. -1.
          1   -1    0    0  501    0 -0.00000000000E+00 -0.00000000000E+00 -0.58083387625E+03  0.58083387625E+03  0.00000000000E+00 0. -1.
         25    2    1    2    0    0 -0.22087514553E+02 -0.12096764243E+03  0.12265501214E+03  0.21398756667E+03  0.12500159147E+03 0.  0.
          2    1    1    2  501    0  0.26525495043E+01  0.74239832846E+02 -0.51992611444E+03  0.52520639112E+03  0.00000000000E+00 0. -1.
          1    1    1    2  502    0  0.19434965049E+02  0.46727809588E+02  0.38210805374E+02  0.63413497796E+02  0.00000000000E+00 0. -1.
         22    1    3    3    0    0 -0.51838793353E+02 -0.48638416746E+02  0.11527645474E+03  0.13543122645E+03  0.00000000000E+00 0.  1.
         22    1    3    3    0    0  0.29751278799E+02 -0.72329225688E+02  0.73785573970E+01  0.78556340216E+02  0.00000000000E+00 0.  1.
</event>
<event>
 7    1  0.6597701E-006  0.1217668E+03  0.7818608E-02  0.1250441E+00
          2   -1    0    0  502    0  0.00000000000E+00  0.00000000000E+00  0.18765029250E+04  0.18765029250E+04  0.00000000000E+00 0. -1.
          1   -1    0    0  501    0 -0.00000000000E+00 -0.00000000000E+00 -0.15833210604E+04  0.15833210604E+04  0.00000000000E+00 0. -1.
         25    2    1    2    0    0 -0.72624946532E+01 -0.21374870499E+03  0.44989877426E+03  0.51358749047E+03  0.12498780169E+03 0.  0.
          2    1    1    2  501    0  0.39037825117E+02  0.10268022375E+03 -0.15471337373E+04  0.15510286848E+04  0.00000000000E+00 0. -1.
          1    1    1    2  502    0 -0.31775330464E+02  0.11106848125E+03  0.13904168275E+04  0.13952078101E+04  0.00000000000E+00 0. -1.
         22    1    3    3    0    0  0.22300831904E+02 -0.92968305577E+02  0.84447915093E+02  0.12756129236E+03  0.00000000000E+00 0.  1.
         22    1    3    3    0    0 -0.29563326558E+02 -0.12078039942E+03  0.36545085916E+03  0.38602619811E+03  0.00000000000E+00 0.  1.
</event>
<event>
 7    1  0.6597701E-006  0.7412542E+02  0.7818608E-02  0.1491153E+00
          2   -1    0    0  502    0  0.00000000000E+00  0.00000000000E+00  0.34636254336E+03  0.34636254336E+03  0.00000000000E+00 0. -1.
          1   -1    0    0  501    0 -0.00000000000E+00 -0.00000000000E+00 -0.10147133471E+03  0.10147133471E+03  0.00000000000E+00 0. -1.
         25    2    1    2    0    0  0.86524824680E+02  0.41572588342E+02  0.14915936042E+03  0.21700051689E+03  0.12500353652E+03 0.  0.
          2    1    1    2  501    0 -0.63926388945E+02 -0.32719667049E+02 -0.47147547818E+02  0.85907223681E+02  0.00000000000E+00 0. -1.
          1    1    1    2  502    0 -0.22598435735E+02 -0.88529212927E+01  0.14287939605E+03  0.14492613749E+03  0.00000000000E+00 0. -1.
         22    1    3    3    0    0 -0.10593220956E+00 -0.15206773057E+02  0.10210921849E+03  0.10323540899E+03  0.00000000000E+00 0.  1.
         22    1    3    3    0    0  0.86630756889E+02  0.56779361398E+02  0.47050141931E+02  0.11376510790E+03  0.00000000000E+00 0.  1.
</event>
<event>
 7    1  0.6597701E-006  0.1620503E+03  0.7818608E-02  0.1203730E+00
          2   -1    0    0  502    0  0.00000000000E+00  0.00000000000E+00  0.25053211945E+04  0.25053211945E+04  0.00000000000E+00 0. -1.
          1   -1    0    0  501    0 -0.00000000000E+00 -0.00000000000E+00 -0.11918833147E+03  0.11918833147E+03  0.00000000000E+00 0. -1.
         25    2    1    2    0    0  0.44398556329E+02  0.25407861848E+03  0.54644861613E+03  0.61705589231E+03  0.12499883198E+03 0.  0.
          2    1    1    2  501    0  0.37428041620E+02 -0.14791642804E+03 -0.10012817173E+02  0.15290645667E+03  0.00000000000E+00 0. -1.
          1    1    1    2  502    0 -0.81826597949E+02 -0.10616219044E+03  0.18496970641E+04  0.18545471770E+04  0.00000000000E+00 0. -1.
         22    1    3    3    0    0 -0.15260122816E+02  0.30720767180E+02  0.14881898090E+02  0.37391279401E+02  0.00000000000E+00 0.  1.
         22    1    3    3    0    0  0.59658679145E+02  0.22335785130E+03  0.53156671804E+03  0.57966461291E+03  0.00000000000E+00 0.  1.
</event>
<event>
 7    1  0.6597701E-006  0.1551660E+03  0.7818608E-02  0.1252386E+00
          2   -1    0    0  502    0  0.00000000000E+00  0.00000000000E+00  0.34746370928E+03  0.34746370928E+03  0.00000000000E+00 0. -1.
          1   -1    0    0  501    0 -0.00000000000E+00 -0.00000000000E+00 -0.79594575538E+03  0.79594575538E+03  0.00000000000E+00 0. -1.
         25    2    1    2    0    0  0.72054960655E+02  0.41016601753E+02 -0.19652314258E+03  0.24722539012E+03  0.12499907590E+03 0.  0.
          2    1    1    2  501    0  0.43942725922E+02  0.72235094321E+02 -0.55023811453E+03  0.55669637568E+03  0.00000000000E+00 0. -1.
          1    1    1    2  502    0 -0.11599768658E+03 -0.11325169607E+03  0.29827921101E+03  0.33948769886E+03  0.00000000000E+00 0. -1.
         22    1    3    3    0    0  0.23660176705E+02  0.16724101983E+02  0.12313924078E+02  0.31482253335E+02  0.00000000000E+00 0.  1.
         22    1    3    3    0    0  0.48394783950E+02  0.24292499770E+02 -0.20883706666E+03  0.21574313678E+03  0.00000000000E+00 0.  1.
</event>
<event>
 7    1  0.6597701E-006  0.1496799E+03  0.7818608E-02  0.1256027E+00
          2   -1    0    0  502    0  0.00000000000E+00  0.00000000000E+00  0.93467391249E+03  0.93467391249E+03  0.00000000000E+00 0. -1.
          1   -1    0    0  501    0 -0.00000000000E+00 -0.00000000000E+00 -0.26617779696E+03  0.26617779696E+03  0.00000000000E+00 0. -1.
         25    2    1    2    0    0 -0.73977232292E+02  0.43332013581E+02  0.13439999887E+03  0.20257967238E+03  0.12499947866E+03 0.  0.
          2    1    1    2  501    0  0.10545622452E+03 -0.12179333922E+03 -0.20141412149E+03  0.25791913676E+03  0.00000000000E+00 0. -1.
          1    1    1    2  502    0 -0.31478992233E+02  0.78461325635E+02  0.73551023816E+03  0.74035290032E+03  0.00000000000E+00 0. -1.
         22    1    3    3    0    0 -0.12751106962E+01 -0.38053233616E+02  0.57940771169E+02  0.69331143504E+02  0.00000000000E+00 0.  1.
         22    1    3    3    0    0 -0.72702121596E+02  0.81385247196E+02  0.76459227704E+02  0.13324852887E+03  0.00000000000E+00 0.  1.
</event>
<event>
 7    1  0.6597701E-006  0.2811089E+02  0.7818608E-02  0.1648376E+00
          2   -1    0    0  502    0  0.00000000000E+00  0.00000000000E+00  0.38607031546E+02  0.38607031546E+02  0.00000000000E+00 0. -1.
          1   -1    0    0  501    0 -0.00000000000E+00 -0.00000000000E+00 -0.99959828653E+03  0.99959828653E+03  0.00000000000E+00 0. -1.
         25    2    1    2    0    0  0.11072688824E+02  0.43300016533E+02 -0.45874391213E+03  0.47756394096E+03  0.12499537962E+03 0.  0.
          2    1    1    2  501    0 -0.18448698939E+02 -0.20601990876E+02 -0.52614252512E+03  0.52686881978E+03  0.00000000000E+00 0. -1.
          1    1    1    2  502    0  0.73760101151E+01 -0.22698025657E+02  0.23895182256E+02  0.33772557336E+02  0.00000000000E+00 0. -1.
         22    1    3    3    0    0  0.53936149127E+02  0.53851867567E+02 -0.37734947841E+03  0.38496981788E+03  0.00000000000E+00 0. -1.
         22    1    3    3    0    0 -0.42863460303E+02 -0.10551851035E+02 -0.81394433714E+02  0.92594123081E+02  0.00000000000E+00 0. -1.
</event>
<event>
 7    1  0.6597701E-006  0.4876447E+02  0.7818608E-02  0.1460763E+00
          2   -1    0    0  502    0  0.00000000000E+00  0.00000000000E+00  0.43727989316E+03  0.43727989316E+03  0.00000000000E+00 0. -1.
          1   -1    0    0  501    0 -0.00000000000E+00 -0.00000000000E+00 -0.10211508749E+04  0.10211508749E+04  0.00000000000E+00 0. -1.
         25    2    1    2    0    0  0.40249591323E+02  0.14351487868E+02 -0.27088260455E+03  0.30137736982E+03  0.12499975515E+03 0.  0.
          2    1    1    2  501    0 -0.10449276894E+02 -0.49108576015E+02 -0.73291781975E+03  0.73463553557E+03  0.00000000000E+00 0. -1.
          1    1    1    2  502    0 -0.29800314429E+02  0.34757088147E+02  0.41992944259E+03  0.42241786264E+03  0.00000000000E+00 0. -1.
         22    1    3    3    0    0 -0.12118636608E+02  0.45746252723E+01  0.94460059499E+01  0.16031705400E+02  0.00000000000E+00 0. -1.
         22    1    3    3    0    0  0.52368227930E+02  0.97768625955E+01 -0.28032861050E+03  0.28534566442E+03  0.00000000000E+00 0. -1.
</event>
<event>
 7    1  0.6597701E-006  0.1250719E+03  0.7818608E-02  0.1253117E+00
          2   -1    0    0  502    0  0.00000000000E+00  0.00000000000E+00  0.13211681181E+04  0.13211681181E+04  0.00000000000E+00 0. -1.
          1   -1    0    0  501    0 -0.00000000000E+00 -0.00000000000E+00 -0.27286882654E+03  0.27286882654E+03  0.00000000000E+00 0. -1.
         25    2    1    2    0    0 -0.14427865278E+03 -0.65741630881E+02  0.36642196859E+03  0.41836323771E+03  0.12499779168E+03 0.  0.
          2    1    1    2  501    0  0.12007297162E+03 -0.35542007428E+02 -0.22785671962E+03  0.25999891823E+03  0.00000000000E+00 0. -1.
          1    1    1    2  502    0  0.24205681160E+02  0.10128363831E+03  0.90973404260E+03  0.91567478870E+03  0.00000000000E+00 0. -1.
         22    1    3    3    0    0 -0.13505012567E+03  0.45311073132E+00  0.24296147478E+03  0.27797305622E+03  0.00000000000E+00 0.  1.
         22    1    3    3    0    0 -0.92285271097E+01 -0.66194741613E+02  0.12346049380E+03  0.14039018150E+03  0.00000000000E+00 0.  1.
</event>
<event>
 7    1  0.6597701E-006  0.7329891E+02  0.7818608E-02  0.1411006E+00
          2   -1    0    0  502    0  0.00000000000E+00  0.00000000000E+00  0.60644388632E+02  0.60644388632E+02  0.00000000000E+00 0. -1.
          1   -1    0    0  501    0 -0.00000000000E+00 -0.00000000000E+00 -0.19549317124E+04  0.19549317124E+04  0.00000000000E+00 0. -1.
         25    2    1    2    0    0 -0.10978049129E+03  0.32920082266E+02 -0.35888481055E+03  0.39693461232E+03  0.12499316432E+03 0.  0.
          2    1    1    2  501    0  0.70432349061E+02 -0.12614015487E+02 -0.15641910631E+04  0.15658267820E+04  0.00000000000E+00 0. -1.
          1    1    1    2  502    0  0.39348142234E+02 -0.20306066779E+02  0.28788549891E+02  0.52814706759E+02  0.00000000000E+00 0. -1.
         22    1    3    3    0    0 -0.67629162183E+02  0.79247732803E+02 -0.18806279563E+03  0.21499191109E+03  0.00000000000E+00 0. -1.
         22    1    3    3    0    0 -0.42151329112E+02 -0.46327650538E+02 -0.17082201492E+03  0.18194270123E+03  0.00000000000E+00 0. -1.
</event>
<event>
 7    1  0.6597701E-006  0.1846242E+03  0.7818608E-02  0.1337422E+00
          2   -1    0    0  502    0  0.00000000000E+00  0.00000000000E+00  0.33097789282E+04  0.33097789282E+04  0.00000000000E+00 0. -1.
          1   -1    0    0  501    0 -0.00000000000E+00 -0.00000000000E+00 -0.32403538023E+02  0.32403538023E+02  0.00000000000E+00 0. -1.
         25    2    1    2    0    0  0.68734703468E+02  0.20092651792E+03  0.62988878808E+03  0.67637388954E+03  0.12500331213E+03 0.  0.
          2    1    1    2  501    0 -0.16300971204E+02 -0.27787444700E+02  0.36994162245E+02  0.49055395069E+02  0.00000000000E+00 0. -1.
          1    1    1    2  502    0 -0.52433732264E+02 -0.17313907322E+03  0.26104924398E+04  0.26167531816E+04  0.00000000000E+00 0. -1.
         22    1    3    3    0    0 -0.13998193715E+02  0.14678771706E+03  0.36796218298E+03  0.39640730493E+03  0.00000000000E+00 0. -1.
         22    1    3    3    0    0  0.82732897183E+02  0.54138800861E+02  0.26192660510E+03  0.27996658460E+03  0.00000000000E+00 0. -1.
</event>
<event>
 7    1  0.6597701E-006  0.1661068E+03  0.7818608E-02  0.1324318E+00
          2   -1    0    0  502    0  0.00000000000E+00  0.00000000000E+00  0.96448511784E+03  0.96448511784E+03  0.00000000000E+00 0. -1.
          1   -1    0    0  501    0 -0.00000000000E+00 -0.00000000000E+00 -0.57868795131E+02  0.57868795131E+02  0.00000000000E+00 0. -1.
         25    2    1    2    0    0 -0.16014063766E+03  0.92985731547E+02  0.26984971171E+03  0.35033800681E+03  0.12500592787E+03 0.  0.
          2    1    1    2  501    0  0.12186188868E+03 -0.80784296984E+02  0.30954243448E+03  0.34233454587E+03  0.00000000000E+00 0. -1.
          1    1    1    2  502    0  0.38278748977E+02 -0.12201434563E+02  0.32722417652E+03  0.32968136030E+03  0.00000000000E+00 0. -1.
         22    1    3    3    0    0 -0.11357094110E+03  0.77573433180E+02  0.26802175443E+03  0.30125015692E+03  0.00000000000E+00 0. -1.
         22    1    3    3    0    0 -0.46569696558E+02  0.15412298367E+02  0.18279572796E+01  0.49087849884E+02  0.00000000000E+00 0. -1.
</event>
<event>
 7    1  0.6597701E-006  0.7267685E+02  0.7818608E-02  0.1366560E+00
          2   -1    0    0  502    0  0.00000000000E+00  0.00000000000E+00  0.12628135427E+02  0.12628135427E+02  0.00000000000E+00 0. -1.
          1   -1    0    0  501    0 -0.00000000000E+00 -0.00000000000E+00 -0.24163619911E+04  0.24163619911E+04  0.00000000000E+00 0. -1.
         25    2    1    2    0    0 -0.86812770739E+01 -0.32110545339E+02 -0.10138682831E+04  0.10220860618E+04  0.12499828170E+03 0.  0.
          2    1    1    2  501    0  0.49067620937E+02 -0.40891956143E+02 -0.11699936643E+04  0.11717358739E+04  0.00000000000E+00 0. -1.
          1    1    1    2  502    0 -0.40386343863E+02  0.73002501482E+02 -0.21987190820E+03  0.23516819089E+03  0.00000000000E+00 0. -1.
         22    1    3    3    0    0  0.10093485350E+02 -0.15791989228E+02 -0.18258574304E+02  0.26165643618E+02  0.00000000000E+00 0. -1.
         22    1    3    3    0    0 -0.18774762424E+02 -0.16318556111E+02 -0.99560970882E+03  0.99592041814E+03  0.00000000000E+00 0. -1.
</event>
<event>
 7    1  0.6597701E-006  0.2329906E+03  0.7818608E-02  0.1173983E+00
          2   -1    0    0  502    0  0.00000000000E+00  0.00000000000E+00  0.26316526696E+04  0.26316526696E+04  0.00000000000E+00 0. -1.
          1   -1    0    0  501    0 -0.00000000000E+00 -0.00000000000E+00 -0.94267550427E+03  0.94267550427E+03  0.00000000000E+00 0. -1.
         25    2    1    2    0    0 -0.20492533644E+03  0.21233560826E+03 -0.66007212845E+03  0.73375830805E+03  0.12500094326E+03 0.  0.
          2    1    1    2  501    0  0.15475677133E+03 -0.92854721987E+02 -0.21076530212E+03  0.27747733285E+03  0.00000000000E+00 0. -1.
          1    1    1    2  502    0  0.50168565105E+02 -0.11948088627E+03  0.25598145959E+04  0.25630925330E+04  0.00000000000E+00 0. -1.
         22    1    3    3    0    0 -0.47791041189E+02  0.13116462545E+03 -0.23463370569E+03  0.27302219403E+03  0.00000000000E+00 0. -1.
         22    1    3    3    0    0 -0.15713429525E+03  0.81170982806E+02 -0.42543842277E+03  0.46073611402E+03  0.00000000000E+00 0. -1.
</event>
<event>
 7    1  0.6597701E-006  0.4514601E+02  0.7818608E-02  0.1523370E+00
          2   -1    0    0  502    0  0.00000000000E+00  0.00000000000E+00  0.34178004645E+04  0.34178004645E+04  0.00000000000E+00 0. -1.
          1   -1    0    0  501    0 -0.00000000000E+00 -0.00000000000E+00 -0.30876923998E+03  0.30876923998E+03  0.00000000000E+00 0. -1.
         25    2    1    2    0    0 -0.38166635050E+02 -0.11011173382E+02  0.11314831622E+04  0.11390593817E+04  0.12499676281E+03 0.  0.
          2    1    1    2  501    0  0.22717828062E+02  0.39041623406E+02 -0.30319571503E+03  0.30654198682E+03  0.00000000000E+00 0. -1.
          1    1    1    2  502    0  0.15448806988E+02 -0.28030450023E+02  0.22807437774E+04  0.22809683360E+04  0.00000000000E+00 0. -1.
         22    1    3    3    0    0 -0.43539225660E+02 -0.50895869859E+02  0.98112091605E+03  0.98340444663E+03  0.00000000000E+00 0.  1.
         22    1    3    3    0    0  0.53725906099E+01  0.39884696477E+02  0.15036224616E+03  0.15565493507E+03  0.00000000000E+00 0.  1.
</event>
<event>
 7    1  0.6597701E-006  0.1220615E+03  0.7818608E-02  0.1261246E+00
          2   -1    0    0  502    0  0.00000000000E+00  0.00000000000E+00  0.13545765476E+03  0.13545765476E+03  0.00000000000E+00 0. -1.
          1   -1    0    0  501    0 -0.00000000000E+00 -0.00000000000E+00 -0.12675081030E+04  0.12675081030E+04  0.00000000000E+00 0. -1.
         25    2    1    2    0    0  0.69268298876E+01  0.38453575862E+02 -0.30992131238E+02  0.13458041314E+03  0.12499886773E+03 0.  0.
          2    1    1    2  501    0 -0.50792926474E+02  0.11099140755E+03 -0.11058457786E+04  0.11125618635E+04  0.00000000000E+00 0. -1.
          1    1    1    2  502    0  0.43866096587E+02 -0.14944498341E+03  0.47874615994E+01  0.15582348118E+03  0.00000000000E+00 0. -1.
         22    1    3    3    0    0  0.38402773256E+02 -0.34414175226E+02 -0.13394241918E+02  0.53277707972E+02  0.00000000000E+00 0. -1.
         22    1    3    3    0    0 -0.31475943368E+02  0.72867751088E+02 -0.17597889320E+02  0.81302705170E+02  0.00000000000E+00 0. -1.
</event>
<event>
 7    1  0.6597701E-006  0.8971349E+02  0.7818608E-02  0.1315228E+00
          2   -1    0    0  502    0  0.00000000000E+00  0.00000000000E+00  0.30674576081E+03  0.30674576081E+03  0.00000000000E+00 0. -1.
          1   -1    0    0  501    0 -0.00000000000E+00 -0.00000000000E+00 -0.37589253666E+03  0.37589253666E+03  0.00000000000E+00 0. -1.
         25    2    1    2    0    0 -0.89742501516E+02 -0.26563004157E+02 -0.16878214346E+03  0.22995124022E+03  0.12502340245E+03 0.  0.
          2    1    1    2  501    0  0.15594354101E+02  0.79161242737E+02 -0.15913091600E+03  0.17841618385E+03  0.00000000000E+00 0. -1.
          1    1    1    2  502    0  0.74148147416E+02 -0.52598238580E+02  0.25876628360E+03  0.27427087340E+03  0.00000000000E+00 0. -1.
         22    1    3    3    0    0 -0.37846307603E+02  0.44025747141E+02 -0.28789697206E+02  0.64803210381E+02  0.00000000000E+00 0. -1.
         22    1    3    3    0    0 -0.51896193914E+02 -0.70588751298E+02 -0.13999244625E+03  0.16514802984E+03  0.00000000000E+00 0. -1.
</event>
<event>
 7    1  0.6597701E-006  0.3984411E+02  0.7818608E-02  0.1568017E+00
          2   -1    0    0  502    0  0.00000000000E+00  0.00000000000E+00  0.24138437022E+03  0.24138437022E+03  0.00000000000E+00 0. -1.
          1   -1    0    0  501    0 -0.00000000000E+00 -0.00000000000E+00 -0.57237108177E+03  0.57237108177E+03  0.00000000000E+00 0. -1.
         25    2    1    2    0    0 -0.97336593121E+01  0.11577024090E+02 -0.46300785635E+03  0.47982237494E+03  0.12499785936E+03 0.  0.
          2    1    1    2  501    0 -0.26785575317E+02  0.45959800340E+01 -0.97369610050E+02  0.10109120159E+03  0.00000000000E+00 0. -1.
          1    1    1    2  502    0  0.36519234630E+02 -0.16173004124E+02  0.22939075485E+03  0.23284187547E+03  0.00000000000E+00 0. -1.
         22    1    3    3    0    0  0.34505912641E+02  0.44477628768E+02 -0.12168075334E+03  0.13407133624E+03  0.00000000000E+00 0. -1.
         22    1    3    3    0    0 -0.44239571953E+02 -0.32900604677E+02 -0.34132710301E+03  0.34575103870E+03  0.00000000000E+00 0. -1.
</event>
<event>
 7    1  0.6597701E-006  0.9304025E+02  0.7818608E-02  0.1324792E+00
          2   -1    0    0  502    0  0.00000000000E+00  0.00000000000E+00  0.62800162048E+03  0.62800162048E+03  0.00000000000E+00 0. -1.
          1   -1    0    0  501    0 -0.00000000000E+00 -0.00000000000E+00 -0.76281956936E+03  0.76281956936E+03  0.00000000000E+00 0. -1.
         25    2    1    2    0    0  0.89646639420E+02 -0.36576565884E+02  0.19021230087E+03  0.24734714686E+03  0.12500210608E+03 0.  0.
          2    1    1    2  501    0 -0.49505824536E+02 -0.51487047889E+02 -0.72675467290E+03  0.73025618610E+03  0.00000000000E+00 0. -1.
          1    1    1    2  502    0 -0.40140814884E+02  0.88063613773E+02  0.40172442315E+03  0.41321785688E+03  0.00000000000E+00 0. -1.
         22    1    3    3    0    0 -0.13034418463E+02  0.31690882780E+02  0.33271379014E+02  0.47761833900E+02  0.00000000000E+00 0. -1.
         22    1    3    3    0    0  0.10268105788E+03 -0.68267448663E+02  0.15694092186E+03  0.19958531296E+03  0.00000000000E+00 0. -1.
</event>
<event>
 7    1  0.6597701E-006  0.1606528E+03  0.7818608E-02  0.1346692E+00
          2   -1    0    0  502    0  0.00000000000E+00  0.00000000000E+00  0.11099676549E+04  0.11099676549E+04  0.00000000000E+00 0. -1.
          1   -1    0    0  501    0 -0.00000000000E+00 -0.00000000000E+00 -0.10077734464E+03  0.10077734464E+03  0.00000000000E+00 0. -1.
         25    2    1    2    0    0 -0.89972794771E+02 -0.94656092225E+02  0.77713394956E+02  0.19677170807E+03  0.12499941499E+03 0.  0.
          2    1    1    2  501    0 -0.17978323395E+02 -0.29063776708E+02 -0.25734927939E+02  0.42780950722E+02  0.00000000000E+00 0. -1.
          1    1    1    2  502    0  0.10795111817E+03  0.12371986893E+03  0.95721184325E+03  0.97119234075E+03  0.00000000000E+00 0. -1.
         22    1    3    3    0    0 -0.18275994608E+02 -0.10619285270E+03  0.39957251946E+02  0.11492395715E+03  0.00000000000E+00 0.  1.
         22    1    3    3    0    0 -0.71696800163E+02  0.11536760480E+02  0.37756143009E+02  0.81847750922E+02  0.00000000000E+00 0.  1.
</event>
<event>
 7    1  0.6597701E-006  0.1613898E+03  0.7818608E-02  0.1251222E+00
          2   -1    0    0  502    0  0.00000000000E+00  0.00000000000E+00  0.18941161303E+04  0.18941161303E+04  0.00000000000E+00 0. -1.
          1   -1    0    0  501    0 -0.00000000000E+00 -0.00000000000E+00 -0.40296954186E+03  0.40296954186E+03  0.00000000000E+00 0. -1.
         25    2    1    2    0    0  0.17776654496E+02  0.14332210838E+03 -0.17508608013E+03  0.25910620326E+03  0.12499461155E+03 0.  0.
          2    1    1    2  501    0 -0.98044451153E+02 -0.16121496406E+03 -0.13680741200E+03  0.23306489872E+03  0.00000000000E+00 0. -1.
          1    1    1    2  502    0  0.80267796657E+02  0.17892855676E+02  0.18030400806E+04  0.18049145702E+04  0.00000000000E+00 0. -1.
         22    1    3    3    0    0  0.87631832523E+01 -0.44102884006E+01  0.15166178537E+02  0.18062585527E+02  0.00000000000E+00 0.  1.
         22    1    3    3    0    0  0.90134712437E+01  0.14773239679E+03 -0.19025225867E+03  0.24104361774E+03  0.00000000000E+00 0.  1.
</event>
<event>
 7    1  0.6597701E-006  0.1447696E+03  0.7818608E-02  0.1357255E+00
          2   -1    0    0  502    0  0.00000000000E+00  0.00000000000E+00  0.28067248676E+03  0.28067248676E+03  0.00000000000E+00 0. -1.
          1   -1    0    0  501    0 -0.00000000000E+00 -0.00000000000E+00 -0.56586880216E+03  0.56586880216E+03  0.00000000000E+00 0. -1.
         25    2    1    2    0    0 -0.15297772121E+03  0.23293996480E+02 -0.17916838633E+03  0.26771513752E+03  0.12500116294E+03 0.  0.
          2    1    1    2  501    0  0.13271801579E+03 -0.51422768651E+02 -0.32622195876E+03  0.35592013040E+03  0.00000000000E+00 0. -1.
          1    1    1    2  502    0  0.20259705419E+02  0.28128772171E+02  0.22019402969E+03  0.22290602100E+03  0.00000000000E+00 0. -1.
         22    1    3    3    0    0 -0.13228007358E+03  0.68445895010E+02 -0.14072854057E+03  0.20490822468E+03  0.00000000000E+00 0.  1.
         22    1    3    3    0    0 -0.20697647629E+02 -0.45151898529E+02 -0.38439845767E+02  0.62806912842E+02  0.00000000000E+00 0.  1.
</event>
<event>
 7    1  0.6597701E-006  0.4282911E+03  0.7818608E-02  0.1237007E+00
          2   -1    0    0  502    0  0.00000000000E+00  0.00000000000E+00  0.28754573737E+04  0.28754573737E+04  0.00000000000E+00 0. -1.
          1   -1    0    0  501    0 -0.00000000000E+00 -0.00000000000E+00 -0.55681581921E+03  0.55681581921E+03  0.00000000000E+00 0. -1.
         25    2    1    2    0    0 -0.18582516194E+03  0.39792286724E+03  0.21117621694E+04  0.21605641178E+04  0.12499699147E+03 0.  0.
          2    1    1    2  501    0  0.21083810328E+03 -0.37235701588E+03 -0.44586878494E+03  0.61798173634E+03  0.00000000000E+00 0. -1.
          1    1    1    2  502    0 -0.25012941338E+02 -0.25565851361E+02  0.65274817006E+03  0.65372733881E+03  0.00000000000E+00 0. -1.
         22    1    3    3    0    0 -0.15648631386E+03  0.19499543961E+03  0.12482218660E+04  0.12730157166E+04  0.00000000000E+00 0.  1.
         22    1    3    3    0    0 -0.29338848082E+02  0.20292742763E+03  0.86354030338E+03  0.88754840119E+03  0.00000000000E+00 0.  1.
</event>
<event>
 7    1  0.6597701E-006  0.6117442E+02  0.7818608E-02  0.1439251E+00
          2   -1    0    0  502    0  0.00000000000E+00  0.00000000000E+00  0.72345344911E+03  0.72345344911E+03  0.00000000000E+00 0. -1.
          1   -1    0    0  501    0 -0.00000000000E+00 -0.00000000000E+00 -0.46577625302E+03  0.46577625302E+03  0.00000000000E+00 0. -1.
         25    2    1    2    0    0 -0.34374883006E+02 -0.23309721604E+02 -0.40933065348E+02  0.13793468077E+03  0.12500193845E+03 0.  0.
          2    1    1    2  501    0 -0.26421019314E+02  0.33624699272E+02 -0.37371203353E+03  0.37615073397E+03  0.00000000000E+00 0. -1.
          1    1    1    2  502    0  0.60795902320E+02 -0.10314977668E+02  0.67232229496E+03  0.67514428739E+03  0.00000000000E+00 0. -1.
         22    1    3    3    0    0 -0.81127517891E+02 -0.67738318087E+01 -0.32374043641E+02  0.87610716572E+02  0.00000000000E+00 0. -1.
         22    1    3    3    0    0  0.46752634885E+02 -0.16535889796E+02 -0.85590217069E+01  0.50323964198E+02  0.00000000000E+00 0. -1.
</event>
<event>
 7    1  0.6597701E-006  0.1982536E+03  0.7818608E-02  0.1184466E+00
          2   -1    0    0  502    0  0.00000000000E+00  0.00000000000E+00  0.13898697481E+04  0.13898697481E+04  0.00000000000E+00 0. -1.
          1   -1    0    0  501    0 -0.00000000000E+00 -0.00000000000E+00 -0.12133848452E+03  0.12133848452E+03  0.00000000000E+00 0. -1.
         25    2    1    2    0    0 -0.47254911728E+02  0.67369320747E+02  0.50014940507E+03  0.52206101456E+03  0.12500649370E+03 0.  0.
          2    1    1    2  501    0 -0.19677646437E+03  0.24156080094E+02  0.23084948327E+02  0.19959310603E+03  0.00000000000E+00 0. -1.
          1    1    1    2  502    0  0.24403137610E+03 -0.91525400841E+02  0.74529691017E+03  0.78955411203E+03  0.00000000000E+00 0. -1.
         22    1    3    3    0    0  0.10602017429E+02  0.71917970815E+02  0.14501412130E+03  0.16221495823E+03  0.00000000000E+00 0.  1.
         22    1    3    3    0    0 -0.57856929157E+02 -0.45486500685E+01  0.35513528378E+03  0.35984605632E+03  0.00000000000E+00 0.  1.
</event>
<event>
 7    1  0.6597701E-006  0.7886508E+02  0.7818608E-02  0.1391979E+00
          2   -1    0    0  502    0  0.00000000000E+00  0.00000000000E+00  0.64587531601E+03  0.64587531601E+03  0.00000000000E+00 0. -1.
          1   -1    0    0  501    0 -0.00000000000E+00 -0.00000000000E+00 -0.16517209681E+03  0.16517209681E+03  0.00000000000E+00 0. -1.
         25    2    1    2    0    0 -0.64667524135E+02  0.12628870281E+02  0.16217864960E+03  0.21509773369E+03  0.12499497433E+03 0.  0.
          2    1    1    2  501    0  0.54328156743E+02 -0.59327452649E+02 -0.12565659786E+03  0.14920079034E+03  0.00000000000E+00 0. -1.
          1    1    1    2  502    0  0.10339367392E+02  0.46698582368E+02  0.44418116746E+03  0.44674888879E+03  0.00000000000E+00 0. -1.
         22    1    3    3    0    0 -0.10245950725E+02  0.14224928416E+02  0.15963358846E+03  0.16059330827E+03  0.00000000000E+00 0.  1.
         22    1    3    3    0    0 -0.54421573410E+02 -0.15960581349E+01  0.25450611345E+01  0.54504425418E+02  0.00000000000E+00 0.  1.
</event>
<event>
 7    1  0.6597701E-006  0.1174395E+03  0.7818608E-02  0.1358581E+00
          2   -1    0    0  502    0  0.00000000000E+00  0.00000000000E+00  0.46291779889E+03  0.46291779889E+03  0.00000000000E+00 0. -1.
          1   -1    0    0  501    0 -0.00000000000E+00 -0.00000000000E+00 -0.54472434944E+03  0.54472434944E+03  0.00000000000E+00 0. -1.
         25    2    1    2    0    0 -0.24060651028E+02 -0.94170603640E+02 -0.14075270081E+03  0.21185840873E+03  0.12500258016E+03 0.  0.
          2    1    1    2  501    0 -0.42032607552E+02 -0.43541335640E+01 -0.35892147563E+03  0.36140050393E+03  0.00000000000E+00 0. -1.
          1    1    1    2  502    0  0.66093258580E+02  0.98524737204E+02  0.41786762588E+03  0.43438323567E+03  0.00000000000E+00 0. -1.
         22    1    3    3    0    0 -0.31985333471E+02 -0.11553628990E+03 -0.14555675829E+03  0.18856952491E+03  0.00000000000E+00 0. -1.
         22    1    3    3    0    0  0.79246824427E+01  0.21365686258E+02  0.48040574888E+01  0.23288883817E+02  0.00000000000E+00 0. -1.
</event>
<event>
 7    1  0.6597701E-006  0.2511286E+03  0.7818608E-02  0.1356118E+00
          2   -1    0    0  502    0  0.00000000000E+00  0.00000000000E+00  0.21862559004E+03  0.21862559004E+03  0.00000000000E+00 0. -1.
          1   -1    0    0  501    0 -0.00000000000E+00 -0.00000000000E+00 -0.12696954924E+04  0.12696954924E+04  0.00000000000E+00 0. -1.
         25    2    1    2    0    0 -0.45894508916E+02  0.25046305651E+03 -0.83771740086E+03  0.88443993314E+03  0.12500201202E+03 0.  0.
          2    1    1    2  501    0  0.20155635126E+02 -0.91980494664E+00 -0.32760236921E+03  0.32822310702E+03  0.00000000000E+00 0. -1.
          1    1    1    2  502    0  0.25738873790E+02 -0.24954325157E+03  0.11424986767E+03  0.27565804231E+03  0.00000000000E+00 0. -1.
         22    1    3    3    0    0 -0.38063220643E+02  0.22939637306E+03 -0.56754339009E+03  0.61333270284E+03  0.00000000000E+00 0.  1.
         22    1    3    3    0    0 -0.78312882731E+01  0.21066683457E+02 -0.27017401076E+03  0.27110723030E+03  0.00000000000E+00 0.  1.
</event>
<event>
 7    1  0.6597701E-006  0.1844803E+03  0.7818608E-02  0.1188528E+00
          2   -1    0    0  502    0  0.00000000000E+00  0.00000000000E+00  0.10430231421E+04  0.10430231421E+04  0.00000000000E+00 0. -1.
          1   -1    0    0  501    0 -0.00000000000E+00 -0.00000000000E+00 -0.48127474368E+03  0.48127474368E+03  0.00000000000E+00 0. -1.
         25    2    1    2    0    0  0.51065532307E+02 -0.17236324012E+03  0.22586855011E+03  0.31456995361E+03  0.12498351352E+03 0.  0.
          2    1    1    2  501    0 -0.16452535808E+03  0.92015507305E+02 -0.40986348192E+03  0.45113581198E+03  0.00000000000E+00 0. -1.
          1    1    1    2  502    0  0.11345982577E+03  0.80347732819E+02  0.74574333026E+03  0.75859212022E+03  0.00000000000E+00 0. -1.
         22    1    3    3    0    0 -0.16401844155E+02 -0.23713471301E+02  0.11170643102E+03  0.11536756886E+03  0.00000000000E+00 0.  1.
         22    1    3    3    0    0  0.67467376462E+02 -0.14864976882E+03  0.11416211909E+03  0.19920238475E+03  0.00000000000E+00 0.  1.
</event>
<event>
 7    1  0.6597701E-006  0.1681578E+03  0.7818608E-02  0.1232200E+00
          2   -1    0    0  502    0  0.00000000000E+00  0.00000000000E+00  0.31479945078E+04  0.31479945078E+04  0.00000000000E+00 0. -1.
          1   -1    0    0  501    0 -0.00000000000E+00 -0.00000000000E+00 -0.55157540676E+03  0.55157540676E+03  0.00000000000E+00 0. -1.
         25    2    1    2    0    0 -0.80100588944E+02 -0.34106128484E+02  0.12001187624E+03  0.19392601706E+03  0.12500046921E+03 0.  0.
          2    1    1    2  501    0  0.17496357287E+03  0.21514871107E+02 -0.49873022183E+03  0.52896783992E+03  0.00000000000E+00 0. -1.
          1    1    1    2  502    0 -0.94862983923E+02  0.12591257377E+02  0.29751374466E+04  0.29766760575E+04  0.00000000000E+00 0. -1.
         22    1    3    3    0    0  0.64452124890E+00  0.37928125051E+02  0.91746039859E+01  0.39027316534E+02  0.00000000000E+00 0.  1.
         22    1    3    3    0    0 -0.80745110193E+02 -0.72034253535E+02  0.11083727226E+03  0.15489870052E+03  0.00000000000E+00 0.  1.
</event>
<event>
 7    1  0.6597701E-006  0.4561044E+02  0.7818608E-02  0.1575744E+00
          2   -1    0    0  502    0  0.00000000000E+00  0.00000000000E+00  0.20366370937E+04  0.20366370937E+04  0.00000000000E+00 0. -1.
          1   -1    0    0  501    0 -0.00000000000E+00 -0.00000000000E+00 -0.28358262151E+02  0.28358262151E+02  0.00000000000E+00 0. -1.
         25    2    1    2    0    0  0.36883303446E+02  0.14042427500E+02  0.12930581367E+04  0.12996852141E+04  0.12499897207E+03 0.  0.
          2    1    1    2  501    0 -0.45258945758E+02  0.69736387226E+01 -0.37844425956E+01  0.45949165541E+02  0.00000000000E+00 0. -1.
          1    1    1    2  502    0  0.83756423120E+01 -0.21016066222E+02  0.71900513744E+03  0.71936097621E+03  0.00000000000E+00 0. -1.
         22    1    3    3    0    0 -0.60492045162E+00 -0.28927599109E+02  0.10348841478E+04  0.10352885449E+04  0.00000000000E+00 0. -1.
         22    1    3    3    0    0  0.37488223898E+02  0.42970026609E+02  0.25817398896E+03  0.26439666922E+03  0.00000000000E+00 0. -1.
</event>
<event>
 7    1  0.6597701E-006  0.9551749E+02  0.7818608E-02  0.1387821E+00
          2   -1    0    0  502    0  0.00000000000E+00  0.00000000000E+00  0.16388819590E+04  0.16388819590E+04  0.00000000000E+00 0. -1.
          1   -1    0    0  501    0 -0.00000000000E+00 -0.00000000000E+00 -0.77667191661E+03  0.77667191661E+03  0.00000000000E+00 0. -1.
         25    2    1    2    0    0  0.11589974018E+03 -0.59973463422E+02  0.39451854033E+02  0.18496422322E+03  0.12500299595E+03 0.  0.
          2    1    1    2  501    0 -0.40780501016E+02  0.20627913480E+01 -0.70184853685E+03  0.70303532845E+03  0.00000000000E+00 0. -1.
          1    1    1    2  502    0 -0.75119239168E+02  0.57910672074E+02  0.15246067252E+04  0.15275543240E+04  0.00000000000E+00 0. -1.
         22    1    3    3    0    0  0.51776254741E+02 -0.92998306849E+02  0.94953291731E+01  0.10686265441E+03  0.00000000000E+00 0.  1.
         22    1    3    3    0    0  0.64123485443E+02  0.33024843427E+02  0.29956524860E+02  0.78101568809E+02  0.00000000000E+00 0.  1.
</event>
<event>
 7    1  0.6597701E-006  0.1177905E+03  0.7818608E-02  0.1293217E+00
          2   -1    0    0  502    0  0.00000000000E+00  0.00000000000E+00  0.20005774329E+04  0.20005774329E+04  0.00000000000E+00 0. -1.
          1   -1    0    0  501    0 -0.00000000000E+00 -0.00000000000E+00 -0.11081648743E+03  0.11081648743E+03  0.00000000000E+00 0. -1.
         25    2    1    2    0    0 -0.16461969352E+03 -0.60539505823E+02  0.10371437634E+04  0.10592716346E+04  0.12499813865E+03 0.  0.
          2    1    1    2  501    0  0.90470547698E+02  0.72906385351E+02 -0.63849069414E+02  0.13257814560E+03  0.00000000000E+00 0. -1.
          1    1    1    2  502    0  0.74149145819E+02 -0.12366879527E+02  0.91646625148E+03  0.91954414013E+03  0.00000000000E+00 0. -1.
         22    1    3    3    0    0 -0.11849279904E+03 -0.50971536337E+02  0.39771448589E+03  0.41810937950E+03  0.00000000000E+00 0.  1.
         22    1    3    3    0    0 -0.46126894472E+02 -0.95679694865E+01  0.63942927750E+03  0.64116225509E+03  0.00000000000E+00 0.  1.
</event>
<event>
 7    1  0.6597701E-006  0.8046343E+02  0.7818608E-02  0.1352013E+00
          2   -1    0    0  502    0  0.00000000000E+00  0.00000000000E+00  0.12432834097E+04  0.12432834097E+04  0.00000000000E+00 0. -1.
          1   -1    0    0  501    0 -0.00000000000E+00 -0.00000000000E+00 -0.16818650335E+04  0.16818650335E+04  0.00000000000E+00 0. -1.
         25    2    1    2    0    0 -0.28557420208E+02 -0.41557278515E+02 -0.34262921252E+02  0.13905400233E+03  0.12497813467E+03 0.  0.
          2    1    1    2  501    0  0.81388178404E+02  0.33440450095E+01 -0.15932728677E+04  0.15953537692E+04  0.00000000000E+00 0. -1.
          1    1    1    2  502    0 -0.52830758196E+02  0.38213233505E+02  0.11889541651E+04  0.11907406716E+04  0.00000000000E+00 0. -1.
         22    1    3    3    0    0 -0.31376008827E+02 -0.45436942273E+02  0.37745764732E+02  0.66885816196E+02  0.00000000000E+00 0. -1.
         22    1    3    3    0    0  0.28185886188E+01  0.38796637580E+01 -0.72008685984E+02  0.72168186133E+02  0.00000000000E+00 0. -1.
</event>
<event>
 7    1  0.6597701E-006  0.7735244E+02  0.7818608E-02  0.1488247E+00
          2   -1    0    0  502    0  0.00000000000E+00  0.00000000000E+00  0.95624596286E+03  0.95624596286E+03  0.00000000000E+00 0. -1.
          1   -1    0    0  501    0 -0.00000000000E+00 -0.00000000000E+00 -0.73401060404E+03  0.73401060404E+03  0.00000000000E+00 0. -1.
         25    2    1    2    0    0 -0.87836981670E+02  0.39977863516E+02 -0.31531661573E+03  0.35265174999E+03  0.12500049477E+03 0.  0.
          2    1    1    2  501    0  0.64396677224E+02 -0.36255463529E+02 -0.39646123985E+03  0.40329010077E+03  0.00000000000E+00 0. -1.
          1    1    1    2  502    0  0.23440304446E+02 -0.37223999876E+01  0.93401321440E+03  0.93431471615E+03  0.00000000000E+00 0. -1.
         22    1    3    3    0    0 -0.41354225477E+02  0.13511492060E+02 -0.29040515011E+03  0.29364584723E+03  0.00000000000E+00 0. -1.
         22    1    3    3    0    0 -0.46482756192E+02  0.26466371456E+02 -0.24911465621E+02  0.59005902761E+02  0.00000000000E+00 0. -1.
</event>
<event>
 7    1  0.6597701E-006  0.4963904E+02  0.7818608E-02  0.1567588E+00
          2   -1    0    0  502    0  0.00000000000E+00  0.00000000000E+00  0.13285978729E+04  0.13285978729E+04  0.00000000000E+00 0. -1.
          1   -1    0    0  501    0 -0.00000000000E+00 -0.00000000000E+00 -0.10485553858E+04  0.10485553858E+04  0.00000000000E+00 0. -1.
         25    2    1    2    0    0  0.12708825209E+02  0.41265496144E+02  0.10337694160E+03  0.16785341261E+03  0.12499448252E+03 0.  0.
          2    1    1    2  501    0 -0.33996066227E+02 -0.36237006651E+02 -0.10156094758E+04  0.10168242033E+04  0.00000000000E+00 0. -1.
          1    1    1    2  502    0  0.21287241018E+02 -0.50284894928E+01  0.11922750213E+04  0.11924756428E+04  0.00000000000E+00 0. -1.
         22    1    3    3    0    0 -0.39389136378E+02  0.19620464682E+02  0.10237164067E+03  0.11142898866E+03  0.00000000000E+00 0.  1.
         22    1    3    3    0    0  0.52097961587E+02  0.21645031462E+02  0.10053009226E+01  0.56424423953E+02  0.00000000000E+00 0.  1.
</event>
<event>
 7    1  0.6597701E-006  0.9535191E+02  0.7818608E-02  0.1481211E+00
          2   -1    0    0  502    0  0.00000000000E+00  0.00000000000E+00  0.70019688361E+02  0.70019688361E+02  0.00000000000E+00 0. -1.
          1   -1    0    0  501    0 -0.00000000000E+00 -0.00000000000E+00 -0.65688540388E+03  0.65688540388E+03  0.00000000000E+00 0. -1.
         25    2    1    2    0    0  0.83882899729E+02  0.42277788503E+01 -0.12474240831E+03  0.19554737563E+03  0.12499557074E+03 0.  0.
          2    1    1    2  501    0 -0.96321166100E+02  0.11724398540E+02 -0.48854161156E+03  0.49808446551E+03  0.00000000000E+00 0. -1.
          1    1    1    2  502    0  0.12438266371E+02 -0.15952177391E+02  0.26418304349E+02  0.33273251096E+02  0.00000000000E+00 0. -1.
         22    1    3    3    0    0 -0.67550880122E+01  0.10157083915E+02  0.20726273649E+02  0.24049448789E+02  0.00000000000E+00 0. -1.
         22    1    3    3    0    0  0.90637987741E+02 -0.59293050646E+01 -0.14546868196E+03  0.17149792684E+03  0.00000000000E+00 0. -1.
</event>
<event>
 7    1  0.6597701E-006  0.1077284E+03  0.7818608E-02  0.1284237E+00
          2   -1    0    0  502    0  0.00000000000E+00  0.00000000000E+00  0.39729548470E+03  0.39729548470E+03  0.00000000000E+00 0. -1.
          1   -1    0    0  501    0 -0.00000000000E+00 -0.00000000000E+00 -0.17978236874E+03  0.17978236874E+03  0.00000000000E+00 0. -1.
         25    2    1    2    0    0  0.25346760242E+02 -0.25874642705E+02  0.89165776443E+02  0.15775763172E+03  0.12499991715E+03 0.  0.
          2    1    1    2  501    0  0.87354813686E+02  0.63043969784E+02 -0.10943915604E+03  0.15356540781E+03  0.00000000000E+00 0. -1.
          1    1    1    2  502    0 -0.11270157393E+03 -0.37169327079E+02  0.23778649557E+03  0.26575481391E+03  0.00000000000E+00 0. -1.
         22    1    3    3    0    0  0.27354594680E+02  0.32150169522E+02  0.90308147888E+02  0.99686853824E+02  0.00000000000E+00 0.  1.
         22    1    3    3    0    0 -0.20078344381E+01 -0.58024812227E+02 -0.11423714451E+01  0.58070777897E+02  0.00000000000E+00 0.  1.
</event>
<event>
 7    1  0.6597701E-006  0.1080377E+03  0.7818608E-02  0.1288255E+00
          2   -1    0    0  502    0  0.00000000000E+00  0.00000000000E+00  0.17243926891E+03  0.17243926891E+03  0.00000000000E+00 0. -1.
          1   -1    0    0  501    0 -0.00000000000E+00 -0.00000000000E+00 -0.22175981397E+04  0.22175981397E+04  0.00000000000E+00 0. -1.
         25    2    1    2    0    0 -0.64431727986E+02  0.50849575650E+02 -0.16302312386E+03  0.22122176589E+03  0.12500161549E+03 0.  0.
          2    1    1    2  501    0  0.58116739261E+02  0.63191883829E+02 -0.20016560938E+04  0.20034964156E+04  0.00000000000E+00 0. -1.
          1    1    1    2  502    0  0.63149887250E+01 -0.11404145948E+03  0.11952034682E+03  0.16531922715E+03  0.00000000000E+00 0. -1.
         22    1    3    3    0    0  0.29304444873E+02  0.16111916940E+02 -0.93920800492E+02  0.99696846098E+02  0.00000000000E+00 0. -1.
         22    1    3    3    0    0 -0.93736172859E+02  0.34737658710E+02 -0.69102323366E+02  0.12152491979E+03  0.00000000000E+00 0. -1.
</event>
<event>
 7    1  0.6597701E-006  0.7486504E+02  0.7818608E-02  0.1372510E+00
          2   -1    0    0  502    0  0.00000000000E+00  0.00000000000E+00  0.11103695911E+03  0.11103695911E+03  0.00000000000E+00 0. -1.
          1   -1    0    0  501    0 -0.00000000000E+00 -0.00000000000E+00 -0.83663129386E+03  0.83663129386E+03  0.00000000000E+00 0. -1.
         25    2    1    2    0    0 -0.21251460852E+02  0.11519872896E+02 -0.10307836572E+03  0.16381157883E+03  0.12499900727E+03 0.  0.
          2    1    1    2  501    0 -0.54012618750E+02  0.23800421176E+02 -0.68014216790E+03  0.68269846315E+03  0.00000000000E+00 0. -1.
          1    1    1    2  502    0  0.75264079601E+02 -0.35320294072E+02  0.57626198877E+02  0.10115821098E+03  0.00000000000E+00 0. -1.
         22    1    3    3    0    0 -0.51403958765E+02 -0.26332594038E+02 -0.99798948027E+02  0.11530655885E+03  0.00000000000E+00 0.  1.
         22    1    3    3    0    0  0.30152497913E+02  0.37852466935E+02 -0.32794176954E+01  0.48505019986E+02  0.00000000000E+00 0.  1.
</event>
<event>
 7    1  0.6597701E-006  0.9330918E+02  0.7818608E-02  0.1352792E+00
          2   -1    0    0  502    0  0.00000000000E+00  0.00000000000E+00  0.87301358014E+03  0.87301358014E+03  0.00000000000E+00 0. -1.
          1   -1    0    0  501    0 -0.00000000000E+00 -0.00000000000E+00 -0.92861849100E+03  0.92861849100E+03  0.00000000000E+00 0. -1.
         25    2    1    2    0    0 -0.32356288167E+02 -0.50308361176E+02 -0.33921377072E+02  0.14266519212E+03  0.12499934653E+03 0.  0.
          2    1    1    2  501    0  0.33975786383E+02 -0.44332916204E+02 -0.83665479816E+03  0.83851715117E+03  0.00000000000E+00 0. -1.
          1    1    1    2  502    0 -0.16194982163E+01  0.94641277381E+02  0.81497126438E+03  0.82044972784E+03  0.00000000000E+00 0. -1.
         22    1    3    3    0    0 -0.33052119168E+02 -0.70488419714E+02  0.23884472277E+02  0.81434193747E+02  0.00000000000E+00 0. -1.
         22    1    3    3    0    0  0.69583100119E+00  0.20180058537E+02 -0.57805849349E+02  0.61230998378E+02  0.00000000000E+00 0. -1.
</event>
<event>
 7    1  0.6597701E-006  0.7882016E+02  0.7818608E-02  0.1457436E+00
          2   -1    0    0  502    0  0.00000000000E+00  0.00000000000E+00  0.18232213951E+04  0.18232213951E+04  0.00000000000E+00 0. -1.
          1   -1    0    0  501    0 -0.00000000000E+00 -0.00000000000E+00 -0.18435384354E+02  0.18435384354E+02  0.00000000000E+00 0. -1.
         25    2    1    2    0    0 -0.36078983266E+02 -0.73029546638E+02  0.81431916400E+03  0.82787595941E+03  0.12501158188E+03 0.  0.
          2    1    1    2  501    0 -0.21888169951E+02  0.19052618612E+02  0.10871415001E+02  0.30988415963E+02  0.00000000000E+00 0. -1.
          1    1    1    2  502    0  0.57967153218E+02  0.53976928027E+02  0.97959543176E+03  0.98279240409E+03  0.00000000000E+00 0. -1.
         22    1    3    3    0    0  0.11377035823E+02  0.17473361255E+02  0.42042534076E+03  0.42094206544E+03  0.00000000000E+00 0.  1.
         22    1    3    3    0    0 -0.47456019089E+02 -0.90502907893E+02  0.39389382323E+03  0.40693389397E+03  0.00000000000E+00 0.  1.
</event>
<event>
 7    1  0.6597701E-006  0.5902659E+02  0.7818608E-02  0.1456355E+00
          2   -1    0    0  502    0  0.00000000000E+00  0.00000000000E+00  0.48442486128E+03  0.48442486128E+03  0.00000000000E+00 0. -1.
          1   -1    0    0  501    0 -0.00000000000E+00 -0.00000000000E+00 -0.16408092129E+03  0.16408092129E+03  0.00000000000E+00 0. -1.
         25    2    1    2    0    0  0.14152152346E+02  0.80455320484E+02  0.99871053039E+02  0.17964713541E+03  0.12500209604E+03 0.  0.
          2    1    1    2  501    0  0.20070981889E+02 -0.33504922507E+02 -0.11858897909E+03  0.12485499633E+03  0.00000000000E+00 0. -1.
          1    1    1    2  502    0 -0.34223134235E+02 -0.46950397978E+02  0.33906186604E+03  0.34400365084E+03  0.00000000000E+00 0. -1.
         22    1    3    3    0    0 -0.31104798159E+02  0.51223239162E+02 -0.66306290672E+01  0.60293398814E+02  0.00000000000E+00 0. -1.
         22    1    3    3    0    0  0.45256950504E+02  0.29232081322E+02  0.10650168211E+03  0.11935373659E+03  0.00000000000E+00 0. -1.
</event>
<event>
 7    1  0.6597701E-006  0.7033781E+02  0.7818608E-02  0.1505190E+00
          2   -1    0    0  502    0  0.00000000000E+00  0.00000000000E+00  0.15379979751E+04  0.15379979751E+04  0.00000000000E+00 0. -1.
          1   -1    0    0  501    0 -0.00000000000E+00 -0.00000000000E+00 -0.53887173460E+03  0.53887173460E+03  0.00000000000E+00 0. -1.
         25    2    1    2    0    0 -0.80158640520E+02 -0.28516538627E+02  0.15054319497E+03  0.21337020880E+03  0.12499996731E+03 0.  0.
          2    1    1    2  501    0  0.21278411280E+02 -0.92952975385E+01 -0.50628921152E+03  0.50682140744E+03  0.00000000000E+00 0. -1.
          1    1    1    2  502    0  0.58880229240E+02  0.37811836165E+02  0.13548722571E+04  0.13566780935E+04  0.00000000000E+00 0. -1.
         22    1    3    3    0    0 -0.11135681794E+03 -0.89933393906E+01  0.94518626741E+02  0.14633862052E+03  0.00000000000E+00 0.  1.
         22    1    3    3    0    0  0.31198177416E+02 -0.19523199236E+02  0.56024568225E+02  0.67031588280E+02  0.00000000000E+00 0.  1.
</event>
<event>
 7    1  0.6597701E-006  0.8890908E+02  0.7818608E-02  0.1399394E+00
          2   -1    0    0  502    0  0.00000000000E+00  0.00000000000E+00  0.64705236418E+02  0.64705236418E+02  0.00000000000E+00 0. -1.
          1   -1    0    0  501    0 -0.00000000000E+00 -0.00000000000E+00 -0.82014457322E+03  0.82014457322E+03  0.00000000000E+00 0. -1.
         25    2    1    2    0    0 -0.11019689315E+02 -0.57379285388E+02 -0.41870140725E+03  0.44085060426E+03  0.12499828360E+03 0.  0.
          2    1    1    2  501    0  0.20924099209E+02 -0.34081615819E+02 -0.34891653437E+03  0.35120097156E+03  0.00000000000E+00 0. -1.
          1    1    1    2  502    0 -0.99044098936E+01  0.91460901206E+02  0.12178604818E+02  0.92798233820E+02  0.00000000000E+00 0. -1.
         22    1    3    3    0    0 -0.50171603462E+02 -0.57451937415E+02 -0.14015506281E+03  0.15956615098E+03  0.00000000000E+00 0.  1.
         22    1    3    3    0    0  0.39151914147E+02  0.72652027414E-01 -0.27854634444E+03  0.28128445328E+03  0.00000000000E+00 0.  1.
</event>
<event>
 7    1  0.6597701E-006  0.4098355E+02  0.7818608E-02  0.1504699E+00
          2   -1    0    0  502    0  0.00000000000E+00  0.00000000000E+00  0.33880857289E+03  0.33880857289E+03  0.00000000000E+00 0. -1.
          1   -1    0    0  501    0 -0.00000000000E+00 -0.00000000000E+00 -0.86992021977E+03  0.86992021977E+03  0.00000000000E+00 0. -1.
         25    2    1    2    0    0  0.71213207739E+01 -0.13671470742E+02 -0.33269587609E+03  0.35573747032E+03  0.12499991803E+03 0.  0.
          2    1    1    2  501    0 -0.41883931991E+02 -0.80359443027E+01 -0.52355005373E+03  0.52528420776E+03  0.00000000000E+00 0. -1.
          1    1    1    2  502    0  0.34762611217E+02  0.21707415045E+02  0.32513428293E+03  0.32770711457E+03  0.00000000000E+00 0. -1.
         22    1    3    3    0    0 -0.50129997981E+02 -0.12283183106E+02 -0.24920311396E+03  0.25449181773E+03  0.00000000000E+00 0.  1.
         22    1    3    3    0    0  0.57251318754E+02 -0.13882876357E+01 -0.83492762129E+02  0.10124565260E+03  0.00000000000E+00 0.  1.
</event>
<event>
 7    1  0.6597701E-006  0.2168275E+02  0.7818608E-02  0.1716428E+00
          2   -1    0    0  502    0  0.00000000000E+00  0.00000000000E+00  0.16092749767E+04  0.16092749767E+04  0.00000000000E+00 0. -1.
          1   -1    0    0  501    0 -0.00000000000E+00 -0.00000000000E+00 -0.45061760637E+03  0.45061760637E+03  0.00000000000E+00 0. -1.
         25    2    1    2    0    0 -0.16548666280E+01 -0.10922469071E+02  0.38331811991E+03  0.40334173508E+03  0.12501893972E+03 0.  0.
          2    1    1    2  501    0 -0.19965110620E+02  0.76692235650E+01 -0.44024789909E+03  0.44076709869E+03  0.00000000000E+00 0. -1.
          1    1    1    2  502    0  0.21619977248E+02  0.32532455059E+01  0.12155871495E+04  0.12157837493E+04  0.00000000000E+00 0. -1.
         22    1    3    3    0    0 -0.30941902780E+02  0.49265035314E+02  0.19428030336E+03  0.20280355354E+03  0.00000000000E+00 0. -1.
         22    1    3    3    0    0  0.29287036152E+02 -0.60187504385E+02  0.18903781655E+03  0.20053818154E+03  0.00000000000E+00 0. -1.
</event>
<event>
 7    1  0.6597701E-006  0.1023930E+03  0.7818608E-02  0.1337755E+00
          2   -1    0    0  502    0  0.00000000000E+00  0.00000000000E+00  0.98499776288E+02  0.98499776288E+02  0.00000000000E+00 0. -1.
          1   -1    0    0  501    0 -0.00000000000E+00 -0.00000000000E+00 -0.81921322710E+03  0.81921322710E+03  0.00000000000E+00 0. -1.
         25    2    1    2    0    0  0.37475924211E+02  0.50949035568E+02 -0.11146563607E+03  0.17902695203E+03  0.12500324959E+03 0.  0.
          2    1    1    2  501    0  0.52103907523E+02  0.25298042472E+02 -0.61801577923E+03  0.62072402202E+03  0.00000000000E+00 0. -1.
          1    1    1    2  502    0 -0.89579831734E+02 -0.76247078040E+02  0.87679644945E+01  0.11796202933E+03  0.00000000000E+00 0. -1.
         22    1    3    3    0    0  0.16569549590E+02  0.80700172953E+02 -0.26391500878E+02  0.86507682935E+02  0.00000000000E+00 0. -1.
         22    1    3    3    0    0  0.20906374621E+02 -0.29751137384E+02 -0.85074135194E+02  0.92519269098E+02  0.00000000000E+00 0. -1.
</event>
<event>
 7    1  0.6597701E-006  0.3701817E+02  0.7818608E-02  0.1557673E+00
          2   -1    0    0  502    0  0.00000000000E+00  0.00000000000E+00  0.47483815696E+03  0.47483815696E+03  0.00000000000E+00 0. -1.
          1   -1    0    0  501    0 -0.00000000000E+00 -0.00000000000E+00 -0.10756709030E+03  0.10756709030E+03  0.00000000000E+00 0. -1.
         25    2    1    2    0    0  0.41542662577E+01 -0.13911659727E+02  0.37844919724E+02  0.13140761171E+03  0.12499972105E+03 0.  0.
          2    1    1    2  501    0 -0.26752895919E+02 -0.16104772122E+02 -0.55800234017E+02  0.63943312719E+02  0.00000000000E+00 0. -1.
          1    1    1    2  502    0  0.22598629661E+02  0.30016431849E+02  0.38522638095E+03  0.38705432283E+03  0.00000000000E+00 0. -1.
         22    1    3    3    0    0 -0.34772724180E+01 -0.36316040541E+01  0.83673396938E+02  0.83824324194E+02  0.00000000000E+00 0.  1.
         22    1    3    3    0    0  0.76315386756E+01 -0.10280055673E+02 -0.45828477213E+02  0.47583287517E+02  0.00000000000E+00 0.  1.
</event>
<event>
 7    1  0.6597701E-006  0.5514384E+02  0.7818608E-02  0.1460076E+00
          2   -1    0    0  502    0  0.00000000000E+00  0.00000000000E+00  0.66169202890E+03  0.66169202890E+03  0.00000000000E+00 0. -1.
          1   -1    0    0  501    0 -0.00000000000E+00 -0.00000000000E+00 -0.59542672193E+03  0.59542672193E+03  0.00000000000E+00 0. -1.
         25    2    1    2    0    0  0.55500802476E+02  0.75210046994E+02 -0.13136215633E+03  0.20400371141E+03  0.12499843164E+03 0.  0.
          2    1    1    2  501    0 -0.35848427535E+02 -0.39581380103E+02 -0.42541080659E+03  0.42874951868E+03  0.00000000000E+00 0. -1.
          1    1    1    2  502    0 -0.19652374941E+02 -0.35628666891E+02  0.62303826988E+03  0.62436552073E+03  0.00000000000E+00 0. -1.
         22    1    3    3    0    0  0.50882527594E+02  0.17923512337E+01 -0.11896693619E+03  0.12940392592E+03  0.00000000000E+00 0.  1.
         22    1    3    3    0    0  0.46182748820E+01  0.73417695761E+02 -0.12395220140E+02  0.74599785496E+02  0.00000000000E+00 0.  1.
</event>
<event>
 7    1  0.6597701E-006  0.5231288E+02  0.7818608E-02  0.1496879E+00
          2   -1    0    0  502    0  0.00000000000E+00  0.00000000000E+00  0.57310451605E+03  0.57310451605E+03  0.00000000000E+00 0. -1.
          1   -1    0    0  501    0 -0.00000000000E+00 -0.00000000000E+00 -0.18027509513E+04  0.18027509513E+04  0.00000000000E+00 0. -1.
         25    2    1    2    0    0 -0.61839721411E+02  0.29509014984E+02 -0.10664972680E+04  0.10759815428E+04  0.12499969871E+03 0.  0.
          2    1    1    2  501    0  0.30617401293E+02  0.12453220851E+02 -0.72993345536E+03  0.73068143348E+03  0.00000000000E+00 0. -1.
          1    1    1    2  502    0  0.31222320118E+02 -0.41962235835E+02  0.56678428818E+03  0.56919249102E+03  0.00000000000E+00 0. -1.
         22    1    3    3    0    0 -0.76054557298E+02  0.18807755361E+02 -0.32641908623E+03  0.33568951012E+03  0.00000000000E+00 0. -1.
         22    1    3    3    0    0  0.14214835887E+02  0.10701259623E+02 -0.74007818179E+03  0.74029203270E+03  0.00000000000E+00 0. -1.
</event>
<event>
 7    1  0.6597701E-006  0.7353793E+02  0.7818608E-02  0.1397715E+00
          2   -1    0    0  502    0  0.00000000000E+00  0.00000000000E+00  0.27263615260E+04  0.27263615260E+04  0.00000000000E+00 0. -1.
          1   -1    0    0  501    0 -0.00000000000E+00 -0.00000000000E+00 -0.23506727195E+02  0.23506727195E+02  0.00000000000E+00 0. -1.
         25    2    1    2    0    0 -0.61976292853E+02  0.48940465270E+02  0.70832196862E+03  0.72358945315E+03  0.12500182186E+03 0.  0.
          2    1    1    2  501    0  0.18858706065E+02 -0.72217849582E+02  0.73946040779E+02  0.10506705259E+03  0.00000000000E+00 0. -1.
          1    1    1    2  502    0  0.43117586788E+02  0.23277384312E+02  0.19205867894E+04  0.19212117474E+04  0.00000000000E+00 0. -1.
         22    1    3    3    0    0 -0.94308350533E+02  0.28607469645E+02  0.36225809111E+03  0.37542426250E+03  0.00000000000E+00 0.  1.
         22    1    3    3    0    0  0.32332057680E+02  0.20332995625E+02  0.34606387751E+03  0.34816519065E+03  0.00000000000E+00 0.  1.
</event>
<event>
 7    1  0.6597701E-006  0.7677144E+02  0.7818608E-02  0.1369240E+00
          2   -1    0    0  502    0  0.00000000000E+00  0.00000000000E+00  0.74540332627E+03  0.74540332627E+03  0.00000000000E+00 0. -1.
          1   -1    0    0  501    0 -0.00000000000E+00 -0.00000000000E+00 -0.40059261718E+03  0.40059261718E+03  0.00000000000E+00 0. -1.
         25    2    1    2    0    0 -0.52179977128E+02 -0.47171258668E+02 -0.49831078884E+02  0.15184473908E+03  0.12500324278E+03 0.  0.
          2    1    1    2  501    0 -0.24930526029E+02  0.53623597130E+02 -0.29465205581E+03  0.30052762817E+03  0.00000000000E+00 0. -1.
          1    1    1    2  502    0  0.77110503157E+02 -0.64523384617E+01  0.68929384379E+03  0.69362357620E+03  0.00000000000E+00 0. -1.
         22    1    3    3    0    0 -0.58437418907E+02 -0.82750349450E+02 -0.55128856657E+02  0.11533318299E+03  0.00000000000E+00 0. -1.
         22    1    3    3    0    0  0.62574417783E+01  0.35579090782E+02  0.52977777730E+01  0.36511556086E+02  0.00000000000E+00 0. -1.
</event>
<event>
 7    1  0.6597701E-006  0.5809768E+02  0.7818608E-02  0.1470393E+00
          2   -1    0    0  502    0  0.00000000000E+00  0.00000000000E+00  0.40757858527E+02  0.40757858527E+02  0.00000000000E+00 0. -1.
          1   -1    0    0  501    0 -0.00000000000E+00 -0.00000000000E+00 -0.15142230684E+04  0.15142230684E+04  0.00000000000E+00 0. -1.
         25    2    1    2    0    0  0.60125147365E+01 -0.85147117427E+02 -0.10930273812E+04  0.11034586073E+04  0.12500344054E+03 0.  0.
          2    1    1    2  501    0 -0.85103865579E+01  0.49382547699E+02 -0.40498425955E+03  0.40807268125E+03  0.00000000000E+00 0. -1.
          1    1    1    2  502    0  0.24978718213E+01  0.35764569729E+02  0.24546430807E+02  0.43449638398E+02  0.00000000000E+00 0. -1.
         22    1    3    3    0    0 -0.17373382325E+02 -0.61694138758E+02 -0.10322904238E+04  0.10342782605E+04  0.00000000000E+00 0. -1.
         22    1    3    3    0    0  0.23385897062E+02 -0.23452978670E+02 -0.60736957398E+02  0.69180346804E+02  0.00000000000E+00 0. -1.
</event>
<event>
 7    1  0.6597701E-006  0.1828786E+03  0.7818608E-02  0.1225665E+00
          2   -1    0    0  502    0  0.00000000000E+00  0.00000000000E+00  0.17195861736E+04  0.17195861736E+04  0.00000000000E+00 0. -1.
          1   -1    0    0  501    0 -0.00000000000E+00 -0.00000000000E+00 -0.55585415385E+03  0.55585415385E+03  0.00000000000E+00 0. -1.
         25    2    1    2    0    0  0.11156942156E+03  0.17312155214E+02  0.25524919843E+03  0.30582557575E+03  0.12501873035E+03 0.  0.
          2    1    1    2  501    0 -0.18201099479E+03  0.45148399359E+02 -0.51238916903E+03  0.54562719940E+03  0.00000000000E+00 0. -1.
          1    1    1    2  502    0  0.70441573229E+02 -0.62460554573E+02  0.14208719903E+04  0.14239875523E+04  0.00000000000E+00 0. -1.
         22    1    3    3    0    0  0.13379124772E+03  0.28514272496E+02  0.17691712293E+03  0.22363548486E+03  0.00000000000E+00 0. -1.
         22    1    3    3    0    0 -0.22221826154E+02 -0.11202117282E+02  0.78332075502E+02  0.82190090897E+02  0.00000000000E+00 0. -1.
</event>
<event>
 7    1  0.6597701E-006  0.3883650E+02  0.7818608E-02  0.1523031E+00
          2   -1    0    0  502    0  0.00000000000E+00  0.00000000000E+00  0.41760560202E+03  0.41760560202E+03  0.00000000000E+00 0. -1.
          1   -1    0    0  501    0 -0.00000000000E+00 -0.00000000000E+00 -0.99990949379E+03  0.99990949379E+03  0.00000000000E+00 0. -1.
         25    2    1    2    0    0  0.14404951027E+02 -0.40108991642E+02 -0.17703271134E+02  0.13324280570E+03  0.12499602249E+03 0.  0.
          2    1    1    2  501    0 -0.36443517119E+02  0.78987434992E+01 -0.92300061094E+03  0.92375356448E+03  0.00000000000E+00 0. -1.
          1    1    1    2  502    0  0.22038566091E+02  0.32210248142E+02  0.35839999031E+03  0.36051872564E+03  0.00000000000E+00 0. -1.
         22    1    3    3    0    0 -0.51129413521E+02 -0.13838304675E+02  0.15543858627E+02  0.55202600884E+02  0.00000000000E+00 0. -1.
         22    1    3    3    0    0  0.65534364549E+02 -0.26270686966E+02 -0.33247129761E+02  0.78040204816E+02  0.00000000000E+00 0. -1.
</event>
<event>
 7    1  0.6597701E-006  0.1838095E+03  0.7818608E-02  0.1296176E+00
          2   -1    0    0  502    0  0.00000000000E+00  0.00000000000E+00  0.33080524144E+03  0.33080524144E+03  0.00000000000E+00 0. -1.
          1   -1    0    0  501    0 -0.00000000000E+00 -0.00000000000E+00 -0.68428076862E+03  0.68428076862E+03  0.00000000000E+00 0. -1.
         25    2    1    2    0    0 -0.42889851430E+02 -0.22202965248E+03  0.18975507314E+03  0.32057555109E+03  0.12499996095E+03 0.  0.
          2    1    1    2  501    0  0.47183104219E+02  0.17536021911E+03 -0.59651701662E+03  0.62354631174E+03  0.00000000000E+00 0. -1.
          1    1    1    2  502    0 -0.42932527891E+01  0.46669433374E+02  0.53286416298E+02  0.70964147236E+02  0.00000000000E+00 0. -1.
         22    1    3    3    0    0 -0.69361429337E+01 -0.20966340741E+03  0.18928443715E+03  0.28255168135E+03  0.00000000000E+00 0. -1.
         22    1    3    3    0    0 -0.35953708496E+02 -0.12366245074E+02  0.47063598863E+00  0.38023869741E+02  0.00000000000E+00 0. -1.
</event>
<event>
 7    1  0.6597701E-006  0.4898902E+02  0.7818608E-02  0.1478193E+00
          2   -1    0    0  502    0  0.00000000000E+00  0.00000000000E+00  0.79879047910E+03  0.79879047910E+03  0.00000000000E+00 0. -1.
          1   -1    0    0  501    0 -0.00000000000E+00 -0.00000000000E+00 -0.89771917826E+03  0.89771917826E+03  0.00000000000E+00 0. -1.
         25    2    1    2    0    0  0.60924903226E+02  0.14249680556E+02  0.91201682508E+02  0.16691150482E+03  0.12500722507E+03 0.  0.
          2    1    1    2  501    0 -0.43723156581E+02  0.22106977270E+02 -0.85856137362E+03  0.85995817639E+03  0.00000000000E+00 0. -1.
          1    1    1    2  502    0 -0.17201746646E+02 -0.36356657826E+02  0.66843099196E+03  0.66963997615E+03  0.00000000000E+00 0. -1.
         22    1    3    3    0    0  0.22264870942E+01  0.52389282017E+02  0.62842591084E+00  0.52440337853E+02  0.00000000000E+00 0.  1.
         22    1    3    3    0    0  0.58698416132E+02 -0.38139601460E+02  0.90573256597E+02  0.11447116697E+03  0.00000000000E+00 0.  1.
</event>
<event>
 7    1  0.6597701E-006  0.2789293E+03  0.7818608E-02  0.1207606E+00
          2   -1    0    0  502    0  0.00000000000E+00  0.00000000000E+00  0.27605052673E+04  0.27605052673E+04  0.00000000000E+00 0. -1.
          1   -1    0    0  501    0 -0.00000000000E+00 -0.00000000000E+00 -0.11591846748E+03  0.11591846748E+03  0.00000000000E+00 0. -1.
         25    2    1    2    0    0  0.26485155203E+03  0.39527889776E+02  0.77639451722E+03  0.83073623424E+03  0.12500178332E+03 0.  0.
          2    1    1    2  501    0 -0.28228924340E+03  0.33100919846E+02  0.14171296643E+03  0.31759321890E+03  0.00000000000E+00 0. -1.
          1    1    1    2  502    0  0.17437691375E+02 -0.72628809623E+02  0.17264793162E+04  0.17280942816E+04  0.00000000000E+00 0. -1.
         22    1    3    3    0    0  0.13187975812E+03 -0.17465945001E+02  0.51577836605E+03  0.53265810115E+03  0.00000000000E+00 0.  1.
         22    1    3    3    0    0  0.13297179390E+03  0.56993834777E+02  0.26061615117E+03  0.29807813309E+03  0.00000000000E+00 0.  1.
</event>
<event>
 7    1  0.6597701E-006  0.7355387E+02  0.7818608E-02  0.1375333E+00
          2   -1    0    0  502    0  0.00000000000E+00  0.00000000000E+00  0.11745006247E+03  0.11745006247E+03  0.00000000000E+00 0. -1.
          1   -1    0    0  501    0 -0.00000000000E+00 -0.00000000000E+00 -0.23110634417E+04  0.23110634417E+04  0.00000000000E+00 0. -1.
         25    2    1    2    0    0 -0.44922151289E+02 -0.75621694681E+02 -0.16067841835E+03  0.22176471501E+03  0.12500157725E+03 0.  0.
          2    1    1    2  501    0 -0.25524620574E+02  0.52856079753E+02 -0.21035909525E+04  0.21044096956E+04  0.00000000000E+00 0. -1.
          1    1    1    2  502    0  0.70446771863E+02  0.22765614928E+02  0.70655991723E+02  0.10233909348E+03  0.00000000000E+00 0. -1.
         22    1    3    3    0    0  0.33744056445E+02 -0.33312993328E+02 -0.12987376949E+02  0.49163897627E+02  0.00000000000E+00 0. -1.
         22    1    3    3    0    0 -0.78666207734E+02 -0.42308701352E+02 -0.14769104141E+03  0.17260081738E+03  0.00000000000E+00 0. -1.
</event>
<event>
 7    1  0.6597701E-006  0.1058926E+03  0.7818608E-02  0.1339985E+00
          2   -1    0    0  502    0  0.00000000000E+00  0.00000000000E+00  0.64576895661E+03  0.64576895661E+03  0.00000000000E+00 0. -1.
          1   -1    0    0  501    0 -0.00000000000E+00 -0.00000000000E+00 -0.46717686532E+03  0.46717686532E+03  0.00000000000E+00 0. -1.
         25    2    1    2    0    0 -0.15449492245E+03 -0.50776864282E+01 -0.14100373143E+02  0.19929233716E+03  0.12499660462E+03 0.  0.
          2    1    1    2  501    0  0.51642656804E+02  0.18726352293E+02 -0.35347518905E+03  0.35771825442E+03  0.00000000000E+00 0. -1.
          1    1    1    2  502    0  0.10285226565E+03 -0.13648665865E+02  0.54616765349E+03  0.55593523035E+03  0.00000000000E+00 0. -1.
         22    1    3    3    0    0 -0.95808569993E+02 -0.14323471776E+02 -0.68574560697E+02  0.11868830735E+03  0.00000000000E+00 0.  1.
         22    1    3    3    0    0 -0.58686352462E+02  0.92457853473E+01  0.54474187554E+02  0.80604029810E+02  0.00000000000E+00 0.  1.
</event>
<event>
 7    1  0.6597701E-006  0.1542634E+03  0.7818608E-02  0.1265528E+00
          2   -1    0    0  502    0  0.00000000000E+00  0.00000000000E+00  0.12088127843E+03  0.12088127843E+03  0.00000000000E+00 0. -1.
          1   -1    0    0  501    0 -0.00000000000E+00 -0.00000000000E+00 -0.10673045231E+04  0.10673045231E+04  0.00000000000E+00 0. -1.
         25    2    1    2    0    0  0.11339815712E+03  0.15473108180E+03 -0.33114322877E+03  0.40259448452E+03  0.12500252515E+03 0.  0.
          2    1    1    2  501    0 -0.12400817063E+03 -0.80762849356E+02 -0.67431298828E+03  0.69036126078E+03  0.00000000000E+00 0. -1.
          1    1    1    2  502    0  0.10610013509E+02 -0.73968232440E+02  0.59032972330E+02  0.95230056280E+02  0.00000000000E+00 0. -1.
         22    1    3    3    0    0 -0.25202245612E+02  0.12282491228E+02 -0.61777170530E+02  0.67841223260E+02  0.00000000000E+00 0.  1.
         22    1    3    3    0    0  0.13860040273E+03  0.14244859057E+03 -0.26936605824E+03  0.33475326126E+03  0.00000000000E+00 0.  1.
</event>
<event>
 7    1  0.6597701E-006  0.3763054E+02  0.7818608E-02  0.1544390E+00
          2   -1    0    0  502    0  0.00000000000E+00  0.00000000000E+00  0.58897662483E+03  0.58897662483E+03  0.00000000000E+00 0. -1.
          1   -1    0    0  501    0 -0.00000000000E+00 -0.00000000000E+00 -0.78443872065E+02  0.78443872065E+02  0.00000000000E+00 0. -1.
         25    2    1    2    0    0 -0.42648608796E+01  0.15707520546E+02  0.34862694181E+03  0.37071813922E+03  0.12500511570E+03 0.  0.
          2    1    1    2  501    0  0.26581174535E+02  0.20306187938E+02 -0.61127189169E+02  0.69680939746E+02  0.00000000000E+00 0. -1.
          1    1    1    2  502    0 -0.22316313655E+02 -0.36013708484E+02  0.22303300012E+03  0.22702141793E+03  0.00000000000E+00 0. -1.
         22    1    3    3    0    0 -0.38846871091E+01 -0.39388448529E+02  0.27965079712E+03  0.28243779669E+03  0.00000000000E+00 0.  1.
         22    1    3    3    0    0 -0.38017377053E+00  0.55095969075E+02  0.68976144693E+02  0.88280342529E+02  0.00000000000E+00 0.  1.
</event>
<event>
 7    1  0.6597701E-006  0.7354387E+02  0.7818608E-02  0.1352306E+00
          2   -1    0    0  502    0  0.00000000000E+00  0.00000000000E+00  0.26693838759E+03  0.26693838759E+03  0.00000000000E+00 0. -1.
          1   -1    0    0  501    0 -0.00000000000E+00 -0.00000000000E+00 -0.42222148615E+03  0.42222148615E+03  0.00000000000E+00 0. -1.
         25    2    1    2    0    0 -0.95212448251E+02  0.63900897395E+02 -0.10405660819E+03  0.19899610067E+03  0.12499174126E+03 0.  0.
          2    1    1    2  501    0  0.22556215510E+02 -0.67489762757E+02 -0.25974731931E+03  0.26931825193E+03  0.00000000000E+00 0. -1.
          1    1    1    2  502    0  0.72656232741E+02  0.35888653618E+01  0.20852082893E+03  0.22084552114E+03  0.00000000000E+00 0. -1.
         22    1    3    3    0    0 -0.72680783293E+02  0.10066064843E+03 -0.91038597370E+02  0.15395807421E+03  0.00000000000E+00 0. -1.
         22    1    3    3    0    0 -0.22531664958E+02 -0.36759751033E+02 -0.13018010816E+02  0.45038026460E+02  0.00000000000E+00 0. -1.
</event>
<event>
 7    1  0.6597701E-006  0.7342730E+02  0.7818608E-02  0.1456004E+00
          2   -1    0    0  502    0  0.00000000000E+00  0.00000000000E+00  0.88011274327E+03  0.88011274327E+03  0.00000000000E+00 0. -1.
          1   -1    0    0  501    0 -0.00000000000E+00 -0.00000000000E+00 -0.91285115491E+03  0.91285115491E+03  0.00000000000E+00 0. -1.
         25    2    1    2    0    0  0.31115325811E+02  0.43668703377E+02  0.30335746176E+03  0.33245376017E+03  0.12499853556E+03 0.  0.
          2    1    1    2  501    0  0.31404332559E+02  0.21457554069E+01 -0.89535364816E+03  0.89590679853E+03  0.00000000000E+00 0. -1.
          1    1    1    2  502    0 -0.62519658370E+02 -0.45814458784E+02  0.55925777476E+03  0.56460333948E+03  0.00000000000E+00 0. -1.
         22    1    3    3    0    0 -0.27176236021E+02  0.67676523399E+02  0.15854479289E+03  0.17451392775E+03  0.00000000000E+00 0. -1.
         22    1    3    3    0    0  0.58291561832E+02 -0.24007820023E+02  0.14481266887E+03  0.15793983243E+03  0.00000000000E+00 0. -1.
</event>
<event>
 7    1  0.6597701E-006  0.2285427E+03  0.7818608E-02  0.1318687E+00
          2   -1    0    0  502    0  0.00000000000E+00  0.00000000000E+00  0.14915372983E+03  0.14915372983E+03  0.00000000000E+00 0. -1.
          1   -1    0    0  501    0 -0.00000000000E+00 -0.00000000000E+00 -0.89570301621E+03  0.89570301621E+03  0.00000000000E+00 0. -1.
         25    2    1    2    0    0 -0.96416967841E+02  0.20418181877E+03 -0.41145593043E+03  0.48570303537E+03  0.12500003632E+03 0.  0.
          2    1    1    2  501    0  0.70516417096E+02 -0.22066984016E+03 -0.41404167682E+03  0.47444520609E+03  0.00000000000E+00 0. -1.
          1    1    1    2  502    0  0.25900550745E+02  0.16488021395E+02  0.78948320879E+02  0.84708504579E+02  0.00000000000E+00 0. -1.
         22    1    3    3    0    0 -0.23123128199E+02  0.36997283340E+02 -0.10097474602E+02  0.44782106087E+02  0.00000000000E+00 0. -1.
         22    1    3    3    0    0 -0.73293839642E+02  0.16718453543E+03 -0.40135845583E+03  0.44092092928E+03  0.00000000000E+00 0. -1.
</event>
<event>
 7    1  0.6597701E-006  0.1818669E+03  0.7818608E-02  0.1249486E+00
          2   -1    0    0  502    0  0.00000000000E+00  0.00000000000E+00  0.16007074743E+04  0.16007074743E+04  0.00000000000E+00 0. -1.
          1   -1    0    0  501    0 -0.00000000000E+00 -0.00000000000E+00 -0.61873184138E+03  0.61873184138E+03  0.00000000000E+00 0. -1.
         25    2    1    2    0    0  0.14886498977E+03  0.13779210224E+02  0.43335849548E+02  0.19963454684E+03  0.12500121848E+03 0.  0.
          2    1    1    2  501    0  0.14718711790E+02  0.72780966636E+02 -0.53220594296E+03  0.53736102883E+03  0.00000000000E+00 0. -1.
          1    1    1    2  502    0 -0.16358370156E+03 -0.86560176860E+02  0.14708457264E+04  0.14824437401E+04  0.00000000000E+00 0. -1.
         22    1    3    3    0    0  0.36233767404E+01 -0.42746199260E+01 -0.33752726820E+02  0.34214730779E+02  0.00000000000E+00 0. -1.
         22    1    3    3    0    0  0.14524161303E+03  0.18053830150E+02  0.77088576368E+02  0.16541981606E+03  0.00000000000E+00 0. -1.
</event>
<event>
 7    1  0.6597701E-006  0.8001074E+02  0.7818608E-02  0.1385801E+00
          2   -1    0    0  502    0  0.00000000000E+00  0.00000000000E+00  0.20941414880E+04  0.20941414880E+04  0.00000000000E+00 0. -1.
          1   -1    0    0  501    0 -0.00000000000E+00 -0.00000000000E+00 -0.37532872356E+03  0.37532872356E+03  0.00000000000E+00 0. -1.
         25    2    1    2    0    0  0.58172222638E+02  0.38581765150E+02  0.59014294152E+03  0.60726132886E+03  0.12500028005E+03 0.  0.
          2    1    1    2  501    0 -0.29886554216E+02  0.39519419039E+02 -0.36393607440E+03  0.36729342065E+03  0.00000000000E+00 0. -1.
          1    1    1    2  502    0 -0.28285668422E+02 -0.78101184189E+02  0.14926058973E+04  0.14949154621E+04  0.00000000000E+00 0. -1.
         22    1    3    3    0    0  0.71386025881E+02  0.28914134952E+02  0.58507426422E+03  0.59012192515E+03  0.00000000000E+00 0.  1.
         22    1    3    3    0    0 -0.13213803243E+02  0.96676301984E+01  0.50686772958E+01  0.17139403704E+02  0.00000000000E+00 0.  1.
</event>
<event>
 7    1  0.6597701E-006  0.8680649E+02  0.7818608E-02  0.1318840E+00
          2   -1    0    0  502    0  0.00000000000E+00  0.00000000000E+00  0.48396174476E+03  0.48396174476E+03  0.00000000000E+00 0. -1.
          1   -1    0    0  501    0 -0.00000000000E+00 -0.00000000000E+00 -0.20969565005E+03  0.20969565005E+03  0.00000000000E+00 0. -1.
         25    2    1    2    0    0 -0.10821810065E+03 -0.10600777430E+03  0.25367360860E+03  0.32081736576E+03  0.12499870779E+03 0.  0.
          2    1    1    2  501    0  0.79050419816E+02  0.30737182180E+02 -0.15661809280E+03  0.17810943331E+03  0.00000000000E+00 0. -1.
          1    1    1    2  502    0  0.29167680831E+02  0.75270592124E+02  0.17721057891E+03  0.19473059575E+03  0.00000000000E+00 0. -1.
         22    1    3    3    0    0 -0.92145328580E+02 -0.48319247409E+02  0.23672231288E+03  0.25857873978E+03  0.00000000000E+00 0.  1.
         22    1    3    3    0    0 -0.16072772068E+02 -0.57688526896E+02  0.16951295723E+02  0.62238625981E+02  0.00000000000E+00 0.  1.
</event>
<event>
 7    1  0.6597701E-006  0.2428976E+03  0.7818608E-02  0.1282716E+00
          2   -1    0    0  502    0  0.00000000000E+00  0.00000000000E+00  0.93301342911E+03  0.93301342911E+03  0.00000000000E+00 0. -1.
          1   -1    0    0  501    0 -0.00000000000E+00 -0.00000000000E+00 -0.40078216314E+03  0.40078216314E+03  0.00000000000E+00 0. -1.
         25    2    1    2    0    0 -0.15953935197E+03 -0.22219782005E+03  0.21997401780E+03  0.37260868547E+03  0.12499595163E+03 0.  0.
          2    1    1    2  501    0  0.15359577553E+03  0.18240466996E+03 -0.27987675736E+03  0.36768753745E+03  0.00000000000E+00 0. -1.
          1    1    1    2  502    0  0.59435764356E+01  0.39793150086E+02  0.59213400553E+03  0.59349936933E+03  0.00000000000E+00 0. -1.
         22    1    3    3    0    0 -0.93184195156E+02 -0.65515175740E+02  0.30451289968E+02  0.11791019269E+03  0.00000000000E+00 0. -1.
         22    1    3    3    0    0 -0.66355156812E+02 -0.15668264431E+03  0.18952272783E+03  0.25469849279E+03  0.00000000000E+00 0. -1.
</event>
<event>
 7    1  0.6597701E-006  0.4902512E+02  0.7818608E-02  0.1536356E+00
          2   -1    0    0  502    0  0.00000000000E+00  0.00000000000E+00  0.13522874534E+04  0.13522874534E+04  0.00000000000E+00 0. -1.
          1   -1    0    0  501    0 -0.00000000000E+00 -0.00000000000E+00 -0.14165105897E+04  0.14165105897E+04  0.00000000000E+00 0. -1.
         25    2    1    2    0    0 -0.27616512123E+02  0.13070596825E+02 -0.12975597887E+03  0.18274575670E+03  0.12500354114E+03 0.  0.
          2    1    1    2  501    0 -0.67893716088E+00  0.27044581924E+02 -0.12596600186E+04  0.12599504882E+04  0.00000000000E+00 0. -1.
          1    1    1    2  502    0  0.28295449284E+02 -0.40115178748E+02  0.13251928611E+04  0.13261017982E+04  0.00000000000E+00 0. -1.
         22    1    3    3    0    0  0.53436266492E+01 -0.50672205254E+02 -0.82020722553E+02  0.96558923250E+02  0.00000000000E+00 0.  1.
         22    1    3    3    0    0 -0.32960138772E+02  0.63742802079E+02 -0.47735256315E+02  0.86186833451E+02  0.00000000000E+00 0.  1.
</event>
<event>
 7    1  0.7659688E-006  0.5434752E+02  0.7818608E-02  0.1426890E+00
          2   -1    0    0  502    0  0.00000000000E+00  0.00000000000E+00  0.85203939737E+03  0.85203939737E+03  0.00000000000E+00 0. -1.
          1   -1    0    0  501    0 -0.00000000000E+00 -0.00000000000E+00 -0.77191301687E+03  0.77191301687E+03  0.00000000000E+00 0. -1.
         25    2    1    2    0    0 -0.37133641791E+02  0.92542800287E+02 -0.39777683260E+03  0.42871266363E+03  0.12500024868E+03 0.  0.
          2    1    1    2  501    0  0.14042276002E+00 -0.52841626364E+02 -0.35583516131E+03  0.35973729195E+03  0.00000000000E+00 0. -1.
          1    1    1    2  502    0  0.36993219031E+02 -0.39701173923E+02  0.83373837441E+03  0.83550245866E+03  0.00000000000E+00 0. -1.
         22    1    3    3    0    0  0.36694496936E+02 -0.44910853065E+01 -0.73548894200E+02  0.82317044350E+02  0.00000000000E+00 0.  1.
         22    1    3    3    0    0 -0.73828138727E+02  0.97033885593E+02 -0.32422793840E+03  0.34639561928E+03  0.00000000000E+00 0.  1.
</event>
<event>
 7    1  0.6597701E-006  0.2229880E+03  0.7818608E-02  0.1352037E+00
          2   -1    0    0  502    0  0.00000000000E+00  0.00000000000E+00  0.50501897190E+03  0.50501897190E+03  0.00000000000E+00 0. -1.
          1   -1    0    0  501    0 -0.00000000000E+00 -0.00000000000E+00 -0.52631544021E+03  0.52631544021E+03  0.00000000000E+00 0. -1.
         25    2    1    2    0    0 -0.37066784619E+02 -0.22370124187E+03 -0.29367170602E+03  0.39151662711E+03  0.12500402494E+03 0.  0.
          2    1    1    2  501    0  0.23484802548E+02  0.13382945831E+01 -0.15558079663E+03  0.15734901100E+03  0.00000000000E+00 0. -1.
          1    1    1    2  502    0  0.13581982071E+02  0.22236294728E+03  0.42795603434E+03  0.48246877400E+03  0.00000000000E+00 0. -1.
         22    1    3    3    0    0 -0.55416648199E+02 -0.86005923051E+02 -0.19791821209E+03  0.22279955650E+03  0.00000000000E+00 0. -1.
         22    1    3    3    0    0  0.18349863580E+02 -0.13769531882E+03 -0.95753493933E+02  0.16871707062E+03  0.00000000000E+00 0. -1.
</event>
<event>
 7    1  0.6597701E-006  0.1197522E+03  0.7818608E-02  0.1373695E+00
          2   -1    0    0  502    0  0.00000000000E+00  0.00000000000E+00  0.12745584536E+04  0.12745584536E+04  0.00000000000E+00 0. -1.
          1   -1    0    0  501    0 -0.00000000000E+00 -0.00000000000E+00 -0.53190943873E+02  0.53190943873E+02  0.00000000000E+00 0. -1.
         25    2    1    2    0    0  0.71307789887E+02  0.67764192815E+02  0.56933296496E+03  0.59113598352E+03  0.12499975722E+03 0.  0.
          2    1    1    2  501    0  0.34435201927E+02  0.12226630011E+02 -0.26568079713E+02  0.45178938377E+02  0.00000000000E+00 0. -1.
          1    1    1    2  502    0 -0.10574299181E+03 -0.79990822826E+02  0.67860262447E+03  0.69143447556E+03  0.00000000000E+00 0. -1.
         22    1    3    3    0    0  0.55495934035E+02  0.55704400956E+02  0.56542929465E+03  0.57087044610E+03  0.00000000000E+00 0. -1.
         22    1    3    3    0    0  0.15811855852E+02  0.12059791859E+02  0.39036703031E+01  0.20265537422E+02  0.00000000000E+00 0. -1.
</event>
<event>
 7    1  0.6597701E-006  0.7814551E+02  0.7818608E-02  0.1452903E+00
          2   -1    0    0  502    0  0.00000000000E+00  0.00000000000E+00  0.59885935867E+03  0.59885935867E+03  0.00000000000E+00 0. -1.
          1   -1    0    0  501    0 -0.00000000000E+00 -0.00000000000E+00 -0.11754192307E+04  0.11754192307E+04  0.00000000000E+00 0. -1.
         25    2    1    2    0    0 -0.34370795671E+02 -0.65984782673E+02  0.18977137754E+03  0.23910771872E+03  0.12499592904E+03 0.  0.
          2    1    1    2  501    0  0.65715840804E+01  0.77927641080E+02 -0.11488242968E+04  0.11514830298E+04  0.00000000000E+00 0. -1.
          1    1    1    2  502    0  0.27799211591E+02 -0.11942858406E+02  0.38249304724E+03  0.38368784086E+03  0.00000000000E+00 0. -1.
         22    1    3    3    0    0 -0.37750022771E+02  0.30736282040E+02  0.64095618625E+02  0.80486219813E+02  0.00000000000E+00 0.  1.
         22    1    3    3    0    0  0.33792270995E+01 -0.96721064714E+02  0.12567575892E+03  0.15862149890E+03  0.00000000000E+00 0.  1.
</event>
<event>
 7    1  0.6597701E-006  0.8264606E+02  0.7818608E-02  0.1327107E+00
          2   -1    0    0  502    0  0.00000000000E+00  0.00000000000E+00  0.18712637262E+04  0.18712637262E+04  0.00000000000E+00 0. -1.
          1   -1    0    0  501    0 -0.00000000000E+00 -0.00000000000E+00 -0.31271577709E+03  0.31271577709E+03  0.00000000000E+00 0. -1.
         25    2    1    2    0    0  0.40277508100E+02 -0.45666764232E+02 -0.75055927713E+02  0.15800558564E+03  0.12499856716E+03 0.  0.
          2    1    1    2  501    0  0.23210793232E+02  0.92306526047E+02 -0.18373701482E+03  0.20692637891E+03  0.00000000000E+00 0. -1.
          1    1    1    2  502    0 -0.63488301332E+02 -0.46639761815E+02  0.18173408916E+04  0.18190475387E+04  0.00000000000E+00 0. -1.
         22    1    3    3    0    0  0.52675519642E+02  0.27199347926E+02 -0.56283448185E+02  0.81745589708E+02  0.00000000000E+00 0. -1.
         22    1    3    3    0    0 -0.12398011542E+02 -0.72866112158E+02 -0.18772479528E+02  0.76259995927E+02  0.00000000000E+00 0. -1.
</event>
<event>
 7    1  0.6597701E-006  0.3777126E+02  0.7818608E-02  0.1530542E+00
          2   -1    0    0  502    0  0.00000000000E+00  0.00000000000E+00  0.59250754108E+03  0.59250754108E+03  0.00000000000E+00 0. -1.
          1   -1    0    0  501    0 -0.00000000000E+00 -0.00000000000E+00 -0.34858442991E+02  0.34858442991E+02  0.00000000000E+00 0. -1.
         25    2    1    2    0    0  0.16108275748E+02  0.11716435304E+02  0.31418966418E+03  0.33872662145E+03  0.12499531031E+03 0.  0.
          2    1    1    2  501    0  0.12977639874E+02 -0.35813692983E+02 -0.40109229715E+01  0.38303097066E+02  0.00000000000E+00 0. -1.
          1    1    1    2  502    0 -0.29085915622E+02  0.24097257678E+02  0.24747035689E+03  0.25033626556E+03  0.00000000000E+00 0. -1.
         22    1    3    3    0    0  0.24848134755E+02  0.37740532766E+02  0.32396893697E+02  0.55599787190E+02  0.00000000000E+00 0.  1.
         22    1    3    3    0    0 -0.87398590072E+01 -0.26024097462E+02  0.28179277048E+03  0.28312683426E+03  0.00000000000E+00 0.  1.
</event>
<event>
 7    1  0.6597701E-006  0.1010870E+03  0.7818608E-02  0.1393929E+00
          2   -1    0    0  502    0  0.00000000000E+00  0.00000000000E+00  0.43355189938E+03  0.43355189938E+03  0.00000000000E+00 0. -1.
          1   -1    0    0  501    0 -0.00000000000E+00 -0.00000000000E+00 -0.12778008877E+03  0.12778008877E+03  0.00000000000E+00 0. -1.
         25    2    1    2    0    0 -0.12782370289E+03 -0.36272068277E+02  0.24376310372E+03  0.30446551233E+03  0.12499694197E+03 0.  0.
          2    1    1    2  501    0  0.91088637304E+02  0.36698833800E+02 -0.69509093421E+02  0.12031399884E+03  0.00000000000E+00 0. -1.
          1    1    1    2  502    0  0.36735065590E+02 -0.42676552323E+00  0.13151780031E+03  0.13655247699E+03  0.00000000000E+00 0. -1.
         22    1    3    3    0    0 -0.29091122612E+02  0.17853689686E+02  0.16137852536E+03  0.16494870748E+03  0.00000000000E+00 0. -1.
         22    1    3    3    0    0 -0.98732580283E+02 -0.54125757963E+02  0.82384578361E+02  0.13951680485E+03  0.00000000000E+00 0. -1.
</event>
<event>
 7    1  0.6597701E-006  0.8748633E+02  0.7818608E-02  0.1432751E+00
          2   -1    0    0  502    0  0.00000000000E+00  0.00000000000E+00  0.28296233989E+04  0.28296233989E+04  0.00000000000E+00 0. -1.
          1   -1    0    0  501    0 -0.00000000000E+00 -0.00000000000E+00 -0.66064190662E+02  0.66064190662E+02  0.00000000000E+00 0. -1.
         25    2    1    2    0    0  0.64342307022E+02  0.16380015135E+01  0.99783280743E+03  0.10076895695E+04  0.12500136581E+03 0.  0.
          2    1    1    2  501    0 -0.84458873582E+02 -0.25746556292E+02 -0.29046116482E+02  0.92950865355E+02  0.00000000000E+00 0. -1.
          1    1    1    2  502    0  0.20116566560E+02  0.24108554779E+02  0.17947725173E+04  0.17950471547E+04  0.00000000000E+00 0. -1.
         22    1    3    3    0    0  0.44255571496E+02  0.10913439210E+01  0.97946670740E+03  0.98046661215E+03  0.00000000000E+00 0. -1.
         22    1    3    3    0    0  0.20086735526E+02  0.54665759250E+00  0.18366100030E+02  0.27222957387E+02  0.00000000000E+00 0. -1.
</event>
<event>
 7    1  0.6597701E-006  0.8351945E+02  0.7818608E-02  0.1463018E+00
          2   -1    0    0  502    0  0.00000000000E+00  0.00000000000E+00  0.35451613574E+03  0.35451613574E+03  0.00000000000E+00 0. -1.
          1   -1    0    0  501    0 -0.00000000000E+00 -0.00000000000E+00 -0.40774761384E+03  0.40774761384E+03  0.00000000000E+00 0. -1.
         25    2    1    2    0    0  0.55619813155E+02  0.19364644739E+02 -0.44875151188E+02  0.14528395029E+03  0.12500037575E+03 0.  0.
          2    1    1    2  501    0  0.23635400843E+02  0.11531003908E+02 -0.30614880931E+03  0.30727624325E+03  0.00000000000E+00 0. -1.
          1    1    1    2  502    0 -0.79255213998E+02 -0.30895648647E+02  0.29779248239E+03  0.30970355603E+03  0.00000000000E+00 0. -1.
         22    1    3    3    0    0  0.28052363353E+02  0.72355434385E+02 -0.33270910186E+02  0.84434574905E+02  0.00000000000E+00 0. -1.
         22    1    3    3    0    0  0.27567449802E+02 -0.52990789647E+02 -0.11604241001E+02  0.60849375388E+02  0.00000000000E+00 0. -1.
</event>
<event>
 7    1  0.6597701E-006  0.5879018E+02  0.7818608E-02  0.1427973E+00
          2   -1    0    0  502    0  0.00000000000E+00  0.00000000000E+00  0.11262855921E+04  0.11262855921E+04  0.00000000000E+00 0. -1.
          1   -1    0    0  501    0 -0.00000000000E+00 -0.00000000000E+00 -0.33017268000E+03  0.33017268000E+03  0.00000000000E+00 0. -1.
         25    2    1    2    0    0 -0.28331421668E+02  0.32750947527E+02  0.86205581442E+03  0.87214687755E+03  0.12499861933E+03 0.  0.
          2    1    1    2  501    0  0.58679585516E+02  0.50137007899E+01 -0.32015355509E+03  0.32552531359E+03  0.00000000000E+00 0. -1.
          1    1    1    2  502    0 -0.30348163848E+02 -0.37764648317E+02  0.25421065277E+03  0.25878608095E+03  0.00000000000E+00 0. -1.
         22    1    3    3    0    0  0.25817135838E+02  0.63892827674E+02  0.50290645728E+03  0.50760587339E+03  0.00000000000E+00 0.  1.
         22    1    3    3    0    0 -0.54148557506E+02 -0.31141880147E+02  0.35914935714E+03  0.36454100416E+03  0.00000000000E+00 0.  1.
</event>
<event>
 7    1  0.6597701E-006  0.3338058E+02  0.7818608E-02  0.1643030E+00
          2   -1    0    0  502    0  0.00000000000E+00  0.00000000000E+00  0.75993699185E+03  0.75993699185E+03  0.00000000000E+00 0. -1.
          1   -1    0    0  501    0 -0.00000000000E+00 -0.00000000000E+00 -0.43429728201E+03  0.43429728201E+03  0.00000000000E+00 0. -1.
         25    2    1    2    0    0 -0.10356131558E+02 -0.10188180247E+02  0.41318745002E+03  0.43191689818E+03  0.12496915459E+03 0.  0.
          2    1    1    2  501    0 -0.15487557604E+02 -0.13761331386E+02 -0.42375886029E+03  0.42426502373E+03  0.00000000000E+00 0. -1.
          1    1    1    2  502    0  0.25843689162E+02  0.23949511633E+02  0.33621112011E+03  0.33805235196E+03  0.00000000000E+00 0. -1.
         22    1    3    3    0    0 -0.51305486433E+02 -0.21732815955E+02  0.35760735467E+03  0.36192207496E+03  0.00000000000E+00 0. -1.
         22    1    3    3    0    0  0.40949354875E+02  0.11544635708E+02  0.55580095348E+02  0.69994823217E+02  0.00000000000E+00 0. -1.
</event>
<event>
 7    1  0.6597701E-006  0.5475756E+02  0.7818608E-02  0.1425751E+00
          2   -1    0    0  502    0  0.00000000000E+00  0.00000000000E+00  0.13132260186E+03  0.13132260186E+03  0.00000000000E+00 0. -1.
          1   -1    0    0  501    0 -0.00000000000E+00 -0.00000000000E+00 -0.37696500989E+03  0.37696500989E+03  0.00000000000E+00 0. -1.
         25    2    1    2    0    0 -0.23555929066E+02  0.23727109825E+02 -0.20012808799E+03  0.23831466304E+03  0.12499907793E+03 0.  0.
          2    1    1    2  501    0 -0.28595921046E+02 -0.44509054412E+02 -0.14576774893E+03  0.15507101358E+03  0.00000000000E+00 0. -1.
          1    1    1    2  502    0  0.52151850112E+02  0.20781944588E+02  0.10025342889E+03  0.11490193512E+03  0.00000000000E+00 0. -1.
         22    1    3    3    0    0 -0.17069822663E+02  0.61308832744E+02 -0.43442520515E+02  0.77054554744E+02  0.00000000000E+00 0.  1.
         22    1    3    3    0    0 -0.64861064028E+01 -0.37581722919E+02 -0.15668556747E+03  0.16126010830E+03  0.00000000000E+00 0.  1.
</event>
<event>
 7    1  0.6597701E-006  0.9181425E+02  0.7818608E-02  0.1331275E+00
          2   -1    0    0  502    0  0.00000000000E+00  0.00000000000E+00  0.71953827015E+03  0.71953827015E+03  0.00000000000E+00 0. -1.
          1   -1    0    0  501    0 -0.00000000000E+00 -0.00000000000E+00 -0.14274752612E+04  0.14274752612E+04  0.00000000000E+00 0. -1.
         25    2    1    2    0    0 -0.78826086792E+02  0.35537706840E+02 -0.11382901987E+03  0.18988940315E+03  0.12499783638E+03 0.  0.
          2    1    1    2  501    0  0.45759407373E+02  0.50780121038E+02 -0.12715595319E+04  0.12733955345E+04  0.00000000000E+00 0. -1.
          1    1    1    2  502    0  0.33066679419E+02 -0.86317827878E+02  0.67745156074E+03  0.68372859370E+03  0.00000000000E+00 0. -1.
         22    1    3    3    0    0  0.48668061018E+00 -0.80785849492E+01 -0.97595615943E+02  0.97930611374E+02  0.00000000000E+00 0. -1.
         22    1    3    3    0    0 -0.79312767402E+02  0.43616291789E+02 -0.16233403927E+02  0.91958791779E+02  0.00000000000E+00 0. -1.
</event>
<event>
 7    1  0.6597701E-006  0.1073520E+03  0.7818608E-02  0.1436673E+00
          2   -1    0    0  502    0  0.00000000000E+00  0.00000000000E+00  0.17011585932E+03  0.17011585932E+03  0.00000000000E+00 0. -1.
          1   -1    0    0  501    0 -0.00000000000E+00 -0.00000000000E+00 -0.16637796347E+03  0.16637796347E+03  0.00000000000E+00 0. -1.
         25    2    1    2    0    0 -0.11275635508E+03 -0.38521442437E+02 -0.28902407720E+02  0.17509447979E+03  0.12499932217E+03 0.  0.
          2    1    1    2  501    0  0.99628388964E+02  0.17429130397E+02 -0.20082748268E+02  0.10311598931E+03  0.00000000000E+00 0. -1.
          1    1    1    2  502    0  0.13127966115E+02  0.21092312039E+02  0.52723051840E+02  0.58283353686E+02  0.00000000000E+00 0. -1.
         22    1    3    3    0    0  0.21914581906E+02 -0.27955428610E+02 -0.17306456564E+02  0.39512888121E+02  0.00000000000E+00 0.  1.
         22    1    3    3    0    0 -0.13467093699E+03 -0.10566013827E+02 -0.11595951156E+02  0.13558159167E+03  0.00000000000E+00 0.  1.
</event>
<event>
 7    1  0.6597701E-006  0.9245934E+02  0.7818608E-02  0.1429963E+00
          2   -1    0    0  502    0  0.00000000000E+00  0.00000000000E+00  0.92853799993E+03  0.92853799993E+03  0.00000000000E+00 0. -1.
          1   -1    0    0  501    0 -0.00000000000E+00 -0.00000000000E+00 -0.10414239123E+03  0.10414239123E+03  0.00000000000E+00 0. -1.
         25    2    1    2    0    0 -0.30298673939E+02  0.10735428992E+03  0.15121331446E+03  0.22568590302E+03  0.12500282855E+03 0.  0.
          2    1    1    2  501    0  0.25612868635E+02 -0.16269862112E+02 -0.60490519483E+02  0.67674444218E+02  0.00000000000E+00 0. -1.
          1    1    1    2  502    0  0.46858053040E+01 -0.91084427807E+02  0.73367281372E+03  0.73932004393E+03  0.00000000000E+00 0. -1.
         22    1    3    3    0    0 -0.68769617532E+02  0.97360029934E+02  0.78218213016E+02  0.14257041969E+03  0.00000000000E+00 0. -1.
         22    1    3    3    0    0  0.38470943593E+02  0.99942599849E+01  0.72995101444E+02  0.83115483326E+02  0.00000000000E+00 0. -1.
</event>
<event>
 7    1  0.6597701E-006  0.1808757E+03  0.7818608E-02  0.1255689E+00
          2   -1    0    0  502    0  0.00000000000E+00  0.00000000000E+00  0.11647757199E+04  0.11647757199E+04  0.00000000000E+00 0. -1.
          1   -1    0    0  501    0 -0.00000000000E+00 -0.00000000000E+00 -0.47984710536E+03  0.47984710536E+03  0.00000000000E+00 0. -1.
         25    2    1    2    0    0 -0.70736776117E+02  0.18566771805E+03  0.40174690712E+03  0.46529679144E+03  0.12499733486E+03 0.  0.
          2    1    1    2  501    0  0.72323230597E+00 -0.18063722440E+03 -0.42806805058E+03  0.46462090551E+03  0.00000000000E+00 0. -1.
          1    1    1    2  502    0  0.70013543811E+02 -0.50304936472E+01  0.71124975796E+03  0.71470512827E+03  0.00000000000E+00 0. -1.
         22    1    3    3    0    0  0.50711817192E+01  0.14944429659E+03  0.27909000522E+03  0.31662366570E+03  0.00000000000E+00 0.  1.
         22    1    3    3    0    0 -0.75807957836E+02  0.36223421460E+02  0.12265690190E+03  0.14867312574E+03  0.00000000000E+00 0.  1.
</event>
<event>
 7    1  0.6597701E-006  0.5091028E+02  0.7818608E-02  0.1539256E+00
          2   -1    0    0  502    0  0.00000000000E+00  0.00000000000E+00  0.71932874388E+02  0.71932874388E+02  0.00000000000E+00 0. -1.
          1   -1    0    0  501    0 -0.00000000000E+00 -0.00000000000E+00 -0.80108043710E+03  0.80108043710E+03  0.00000000000E+00 0. -1.
         25    2    1    2    0    0 -0.15980988359E+02 -0.20785501850E+02 -0.54410121148E+03  0.55889226647E+03  0.12500803220E+03 0.  0.
          2    1    1    2  501    0 -0.20115102956E+02 -0.15774512774E+02 -0.23856660270E+03  0.23993223323E+03  0.00000000000E+00 0. -1.
          1    1    1    2  502    0  0.36096091315E+02  0.36560014624E+02  0.53520251463E+02  0.74188811786E+02  0.00000000000E+00 0. -1.
         22    1    3    3    0    0 -0.23497012789E+02  0.37196862357E+02 -0.41309353404E+03  0.41542987861E+03  0.00000000000E+00 0.  1.
         22    1    3    3    0    0  0.75160244303E+01 -0.57982364206E+02 -0.13100767744E+03  0.14346238786E+03  0.00000000000E+00 0.  1.
</event>
<event>
 7    1  0.6597701E-006  0.1197062E+03  0.7818608E-02  0.1257215E+00
          2   -1    0    0  502    0  0.00000000000E+00  0.00000000000E+00  0.10536443279E+03  0.10536443279E+03  0.00000000000E+00 0. -1.
          1   -1    0    0  501    0 -0.00000000000E+00 -0.00000000000E+00 -0.25982874971E+04  0.25982874971E+04  0.00000000000E+00 0. -1.
         25    2    1    2    0    0 -0.87172240423E+02 -0.73280406580E+02 -0.12192167383E+04  0.12308869358E+04  0.12499670504E+03 0.  0.
          2    1    1    2  501    0  0.13783975935E+03 -0.18085765012E+02 -0.13411994948E+04  0.13483853229E+04  0.00000000000E+00 0. -1.
          1    1    1    2  502    0 -0.50667518932E+02  0.91366171592E+02  0.67493168759E+02  0.12437967123E+03  0.00000000000E+00 0. -1.
         22    1    3    3    0    0  0.97888461956E+01  0.89867376308E+01 -0.15264768940E+02  0.20238481511E+02  0.00000000000E+00 0.  1.
         22    1    3    3    0    0 -0.96961086619E+02 -0.82267144211E+02 -0.12039519693E+04  0.12106484543E+04  0.00000000000E+00 0.  1.
</event>
<event>
 7    1  0.7012455E-006  0.1838327E+03  0.7818608E-02  0.1322978E+00
          2   -1    0    0  502    0  0.00000000000E+00  0.00000000000E+00  0.82484075043E+03  0.82484075043E+03  0.00000000000E+00 0. -1.
          1   -1    0    0  501    0 -0.00000000000E+00 -0.00000000000E+00 -0.16044504795E+04  0.16044504795E+04  0.00000000000E+00 0. -1.
         25    2    1    2    0    0 -0.10003679515E+03 -0.11941393003E+03 -0.79713050814E+03  0.82177117643E+03  0.12499508925E+03 0.  0.
          2    1    1    2  501    0 -0.36489150597E+02 -0.42601931710E+01 -0.78412289175E+03  0.78498300410E+03  0.00000000000E+00 0. -1.
          1    1    1    2  502    0  0.13652594575E+03  0.12367412320E+03  0.80164367084E+03  0.82253704938E+03  0.00000000000E+00 0. -1.
         22    1    3    3    0    0 -0.78004636706E+02 -0.36580530127E+02 -0.19001545575E+03  0.20863540437E+03  0.00000000000E+00 0.  1.
         22    1    3    3    0    0 -0.22032158447E+02 -0.82833399899E+02 -0.60711505239E+03  0.61313577206E+03  0.00000000000E+00 0.  1.
</event>
<event>
 7    1  0.6597701E-006  0.5146888E+02  0.7818608E-02  0.1441682E+00
          2   -1    0    0  502    0  0.00000000000E+00  0.00000000000E+00  0.32259441496E+03  0.32259441496E+03  0.00000000000E+00 0. -1.
          1   -1    0    0  501    0 -0.00000000000E+00 -0.00000000000E+00 -0.48591893847E+03  0.48591893847E+03  0.00000000000E+00 0. -1.
         25    2    1    2    0    0 -0.84287549871E+01 -0.12159344771E+02  0.13531308828E+03  0.18480477293E+03  0.12499711462E+03 0.  0.
          2    1    1    2  501    0  0.27707497704E+02 -0.43374419406E+02 -0.45435696720E+03  0.45726283397E+03  0.00000000000E+00 0. -1.
          1    1    1    2  502    0 -0.19278742717E+02  0.55533764178E+02  0.15571935541E+03  0.16644574652E+03  0.00000000000E+00 0. -1.
         22    1    3    3    0    0 -0.30363209589E+02 -0.60638659558E+02  0.49990445034E+02  0.84249724773E+02  0.00000000000E+00 0.  1.
         22    1    3    3    0    0  0.21934454602E+02  0.48479314787E+02  0.85322643242E+02  0.10055504816E+03  0.00000000000E+00 0.  1.
</event>
<event>
 7    1  0.6597701E-006  0.7533947E+02  0.7818608E-02  0.1458011E+00
          2   -1    0    0  502    0  0.00000000000E+00  0.00000000000E+00  0.18023290245E+03  0.18023290245E+03  0.00000000000E+00 0. -1.
          1   -1    0    0  501    0 -0.00000000000E+00 -0.00000000000E+00 -0.15610701780E+04  0.15610701780E+04  0.00000000000E+00 0. -1.
         25    2    1    2    0    0 -0.37635787993E+02  0.25592632396E+02  0.99885821893E+02  0.16635447415E+03  0.12500079313E+03 0.  0.
          2    1    1    2  501    0  0.64853990564E+02 -0.38752500822E+02 -0.15219502961E+04  0.15238243010E+04  0.00000000000E+00 0. -1.
          1    1    1    2  502    0 -0.27218202570E+02  0.13159868426E+02  0.41227198646E+02  0.51124305339E+02  0.00000000000E+00 0. -1.
         22    1    3    3    0    0  0.41081875596E+01  0.19798574834E+02 -0.26381735971E+02  0.33239385724E+02  0.00000000000E+00 0.  1.
         22    1    3    3    0    0 -0.41743975553E+02  0.57940575621E+01  0.12626755786E+03  0.13311508843E+03  0.00000000000E+00 0.  1.
</event>
<event>
 7    1  0.6597701E-006  0.5425000E+02  0.7818608E-02  0.1529846E+00
          2   -1    0    0  502    0  0.00000000000E+00  0.00000000000E+00  0.24914209637E+04  0.24914209637E+04  0.00000000000E+00 0. -1.
          1   -1    0    0  501    0 -0.00000000000E+00 -0.00000000000E+00 -0.60433337788E+02  0.60433337788E+02  0.00000000000E+00 0. -1.
         25    2    1    2    0    0 -0.66250335829E+02 -0.19529357738E+02  0.73203855584E+03  0.74583932564E+03  0.12500139847E+03 0.  0.
          2    1    1    2  501    0  0.12731429489E+02  0.22112586411E+02 -0.50058755656E+02  0.56186606878E+02  0.00000000000E+00 0. -1.
          1    1    1    2  502    0  0.53518906341E+02 -0.25832286725E+01  0.17490078257E+04  0.17498283690E+04  0.00000000000E+00 0. -1.
         22    1    3    3    0    0 -0.58893830075E+02 -0.33767245706E+02  0.16296039399E+03  0.17653554914E+03  0.00000000000E+00 0.  1.
         22    1    3    3    0    0 -0.73565057540E+01  0.14237887967E+02  0.56907816185E+03  0.56930377649E+03  0.00000000000E+00 0.  1.
</event>
<event>
 7    1  0.6597701E-006  0.1044828E+03  0.7818608E-02  0.1368790E+00
          2   -1    0    0  502    0  0.00000000000E+00  0.00000000000E+00  0.14705767782E+04  0.14705767782E+04  0.00000000000E+00 0. -1.
          1   -1    0    0  501    0 -0.00000000000E+00 -0.00000000000E+00 -0.20741339913E+03  0.20741339913E+03  0.00000000000E+00 0. -1.
         25    2    1    2    0    0 -0.11462229651E+03 -0.57185200853E+02  0.60336924603E+03  0.62935803277E+03  0.12501467235E+03 0.  0.
          2    1    1    2  501    0  0.42003660525E+02 -0.11741412213E+02 -0.18899310520E+03  0.19396020744E+03  0.00000000000E+00 0. -1.
          1    1    1    2  502    0  0.72618635989E+02  0.68926613065E+02  0.84878723820E+03  0.85467193707E+03  0.00000000000E+00 0. -1.
         22    1    3    3    0    0 -0.11360694619E+03 -0.85902698269E+02  0.55601342301E+03  0.57396579894E+03  0.00000000000E+00 0. -1.
         22    1    3    3    0    0 -0.10153503249E+01  0.28717497417E+02  0.47355823024E+02  0.55392233828E+02  0.00000000000E+00 0. -1.
</event>
<event>
 7    1  0.6597701E-006  0.1327796E+03  0.7818608E-02  0.1318607E+00
          2   -1    0    0  502    0  0.00000000000E+00  0.00000000000E+00  0.12365972294E+04  0.12365972294E+04  0.00000000000E+00 0. -1.
          1   -1    0    0  501    0 -0.00000000000E+00 -0.00000000000E+00 -0.65367573975E+02  0.65367573975E+02  0.00000000000E+00 0. -1.
         25    2    1    2    0    0  0.15131040036E+03  0.51998869993E+01  0.17174785973E+03  0.26086157635E+03  0.12501823312E+03 0.  0.
          2    1    1    2  501    0 -0.29148575052E+02  0.44127192320E+02  0.26335605827E+02  0.59079714487E+02  0.00000000000E+00 0. -1.
          1    1    1    2  502    0 -0.12216182531E+03 -0.49327079319E+02  0.97314618984E+03  0.98202351251E+03  0.00000000000E+00 0. -1.
         22    1    3    3    0    0  0.49375815744E+02 -0.57912650865E+02  0.59168886334E+02  0.96399187863E+02  0.00000000000E+00 0.  1.
         22    1    3    3    0    0  0.10193458462E+03  0.63112537864E+02  0.11257897340E+03  0.16446238849E+03  0.00000000000E+00 0.  1.
</event>
<event>
 7    1  0.6597701E-006  0.6552027E+02  0.7818608E-02  0.1379803E+00
          2   -1    0    0  502    0  0.00000000000E+00  0.00000000000E+00  0.28290272004E+03  0.28290272004E+03  0.00000000000E+00 0. -1.
          1   -1    0    0  501    0 -0.00000000000E+00 -0.00000000000E+00 -0.19863265927E+04  0.19863265927E+04  0.00000000000E+00 0. -1.
         25    2    1    2    0    0  0.54915692012E+02 -0.54309608179E+02 -0.72572473783E+02  0.16388321198E+03  0.12500270577E+03 0.  0.
          2    1    1    2  501    0  0.76529949554E+01  0.65297039807E+02 -0.18632560917E+04  0.18644156014E+04  0.00000000000E+00 0. -1.
          1    1    1    2  502    0 -0.62568686968E+02 -0.10987431628E+02  0.23240469282E+03  0.24093049929E+03  0.00000000000E+00 0. -1.
         22    1    3    3    0    0  0.75924796400E+02 -0.74905451515E+02 -0.80253258199E+02  0.13347654036E+03  0.00000000000E+00 0.  1.
         22    1    3    3    0    0 -0.21009104388E+02  0.20595843336E+02  0.76807844161E+01  0.30406671622E+02  0.00000000000E+00 0.  1.
</event>
<event>
 7    1  0.6597701E-006  0.7608929E+02  0.7818608E-02  0.1483507E+00
          2   -1    0    0  502    0  0.00000000000E+00  0.00000000000E+00  0.16769971108E+04  0.16769971108E+04  0.00000000000E+00 0. -1.
          1   -1    0    0  501    0 -0.00000000000E+00 -0.00000000000E+00 -0.38191555896E+03  0.38191555896E+03  0.00000000000E+00 0. -1.
         25    2    1    2    0    0  0.42033819888E+02 -0.45996482564E+02  0.37484423342E+02  0.14461437139E+03  0.12500286396E+03 0.  0.
          2    1    1    2  501    0 -0.94572909706E+01 -0.23080268403E+02 -0.32695583918E+03  0.32790587051E+03  0.00000000000E+00 0. -1.
          1    1    1    2  502    0 -0.32576528917E+02  0.69076750967E+02  0.15845529677E+04  0.15863924278E+04  0.00000000000E+00 0. -1.
         22    1    3    3    0    0  0.45387579429E+02 -0.20815349559E+02  0.80458342793E+02  0.94693484828E+02  0.00000000000E+00 0.  1.
         22    1    3    3    0    0 -0.33537595417E+01 -0.25181133005E+02 -0.42973919451E+02  0.49920886565E+02  0.00000000000E+00 0.  1.
</event>
<event>
 7    1  0.6597701E-006  0.9146449E+02  0.7818608E-02  0.1304216E+00
          2   -1    0    0  502    0  0.00000000000E+00  0.00000000000E+00  0.11920425238E+03  0.11920425238E+03  0.00000000000E+00 0. -1.
          1   -1    0    0  501    0 -0.00000000000E+00 -0.00000000000E+00 -0.18346828379E+04  0.18346828379E+04  0.00000000000E+00 0. -1.
         25    2    1    2    0    0 -0.89042727426E+02 -0.71582925965E+02 -0.26994620260E+03  0.31866733531E+03  0.12500078278E+03 0.  0.
          2    1    1    2  501    0  0.40422912504E+01  0.92172439136E+02 -0.15185117472E+04  0.15213119421E+04  0.00000000000E+00 0. -1.
          1    1    1    2  502    0  0.85000436176E+02 -0.20589513171E+02  0.72979364364E+02  0.11390781284E+03  0.00000000000E+00 0. -1.
         22    1    3    3    0    0 -0.92208791218E+02 -0.11107985065E+02 -0.22450163212E+03  0.24295438118E+03  0.00000000000E+00 0. -1.
         22    1    3    3    0    0  0.31660637916E+01 -0.60474940900E+02 -0.45444570488E+02  0.75712954134E+02  0.00000000000E+00 0. -1.
</event>
<event>
 7    1  0.6597701E-006  0.9874845E+02  0.7818608E-02  0.1292279E+00
          2   -1    0    0  502    0  0.00000000000E+00  0.00000000000E+00  0.10070151176E+04  0.10070151176E+04  0.00000000000E+00 0. -1.
          1   -1    0    0  501    0 -0.00000000000E+00 -0.00000000000E+00 -0.43678625473E+03  0.43678625473E+03  0.00000000000E+00 0. -1.
         25    2    1    2    0    0 -0.65591397394E+02  0.98920716438E+01 -0.43048013016E+01  0.14157541359E+03  0.12499992770E+03 0.  0.
          2    1    1    2  501    0  0.41756587032E+02 -0.97152357727E+02 -0.35391807470E+03  0.36937812167E+03  0.00000000000E+00 0. -1.
          1    1    1    2  502    0  0.23834810361E+02  0.87260286083E+02  0.92845173882E+03  0.93284783702E+03  0.00000000000E+00 0. -1.
         22    1    3    3    0    0  0.93848952179E+01  0.53492849236E+02  0.39378354421E+01  0.54452435442E+02  0.00000000000E+00 0.  1.
         22    1    3    3    0    0 -0.74976292611E+02 -0.43600777592E+02 -0.82426367437E+01  0.87122978145E+02  0.00000000000E+00 0.  1.
</event>
<event>
 7    1  0.6597701E-006  0.1679096E+03  0.7818608E-02  0.1337641E+00
          2   -1    0    0  502    0  0.00000000000E+00  0.00000000000E+00  0.15229723168E+04  0.15229723168E+04  0.00000000000E+00 0. -1.
          1   -1    0    0  501    0 -0.00000000000E+00 -0.00000000000E+00 -0.18212307824E+03  0.18212307824E+03  0.00000000000E+00 0. -1.
         25    2    1    2    0    0  0.71330263960E+02 -0.18627055768E+03  0.60878329699E+03  0.65271189562E+03  0.12502395282E+03 0.  0.
          2    1    1    2  501    0 -0.50030639064E+02  0.15805110617E+03 -0.11679204419E+03  0.20278954261E+03  0.00000000000E+00 0. -1.
          1    1    1    2  502    0 -0.21299624896E+02  0.28219451504E+02  0.84885798573E+03  0.84959395678E+03  0.00000000000E+00 0. -1.
         22    1    3    3    0    0  0.48431730342E+02 -0.18666324995E+01  0.10183550268E+03  0.11278114393E+03  0.00000000000E+00 0.  1.
         22    1    3    3    0    0  0.22898533618E+02 -0.18440392518E+03  0.50694779431E+03  0.53993075169E+03  0.00000000000E+00 0.  1.
</event>
<event>
 7    1  0.6597701E-006  0.7405203E+02  0.7818608E-02  0.1408147E+00
          2   -1    0    0  502    0  0.00000000000E+00  0.00000000000E+00  0.15180916110E+04  0.15180916110E+04  0.00000000000E+00 0. -1.
          1   -1    0    0  501    0 -0.00000000000E+00 -0.00000000000E+00 -0.12582457016E+04  0.12582457016E+04  0.00000000000E+00 0. -1.
         25    2    1    2    0    0  0.11683998730E+03  0.19719500393E+02  0.47781802923E+03  0.50791204637E+03  0.12499654580E+03 0.  0.
          2    1    1    2  501    0 -0.73474026154E+02 -0.84049133001E+01 -0.12416081332E+04  0.12438085992E+04  0.00000000000E+00 0. -1.
          1    1    1    2  502    0 -0.43365961149E+02 -0.11314587093E+02  0.10236360134E+04  0.10246166670E+04  0.00000000000E+00 0. -1.
         22    1    3    3    0    0  0.11861586398E+03 -0.20684504371E+02  0.26207382715E+03  0.28840988676E+03  0.00000000000E+00 0. -1.
         22    1    3    3    0    0 -0.17758766752E+01  0.40404004764E+02  0.21574420209E+03  0.21950215961E+03  0.00000000000E+00 0. -1.
</event>
<event>
 7    1  0.6597701E-006  0.4457548E+02  0.7818608E-02  0.1479467E+00
          2   -1    0    0  502    0  0.00000000000E+00  0.00000000000E+00  0.43582819324E+03  0.43582819324E+03  0.00000000000E+00 0. -1.
          1   -1    0    0  501    0 -0.00000000000E+00 -0.00000000000E+00 -0.18127997776E+04  0.18127997776E+04  0.00000000000E+00 0. -1.
         25    2    1    2    0    0 -0.86341833579E+00  0.36672840916E+02 -0.21777899767E+02  0.13205977414E+03  0.12497945541E+03 0.  0.
          2    1    1    2  501    0 -0.40042815015E+02 -0.17764885451E+02 -0.17342697222E+04  0.17348228981E+04  0.00000000000E+00 0. -1.
          1    1    1    2  502    0  0.40906233351E+02 -0.18907955465E+02  0.37907603765E+03  0.38174529863E+03  0.00000000000E+00 0. -1.
         22    1    3    3    0    0 -0.33834418903E+02  0.34523271602E+02 -0.62886959584E+02  0.79318307283E+02  0.00000000000E+00 0.  1.
         22    1    3    3    0    0  0.32971000567E+02  0.21495693142E+01  0.41109059817E+02  0.52741466852E+02  0.00000000000E+00 0.  1.
</event>
<event>
 7    1  0.6597701E-006  0.1247817E+03  0.7818608E-02  0.1324787E+00
          2   -1    0    0  502    0  0.00000000000E+00  0.00000000000E+00  0.63687292133E+03  0.63687292133E+03  0.00000000000E+00 0. -1.
          1   -1    0    0  501    0 -0.00000000000E+00 -0.00000000000E+00 -0.35100160651E+03  0.35100160651E+03  0.00000000000E+00 0. -1.
         25    2    1    2    0    0 -0.57580945019E+02 -0.12832404281E+03 -0.15014904121E+02  0.18876523534E+03  0.12499696611E+03 0.  0.
          2    1    1    2  501    0 -0.32273458243E+02  0.42367574929E+02 -0.23911572922E+03  0.24497534462E+03  0.00000000000E+00 0. -1.
          1    1    1    2  502    0  0.89854403262E+02  0.85956467877E+02  0.54000194817E+03  0.55413394787E+03  0.00000000000E+00 0. -1.
         22    1    3    3    0    0 -0.84969580555E+02 -0.12535872565E+03  0.97038392182E+01  0.15175244384E+03  0.00000000000E+00 0. -1.
         22    1    3    3    0    0  0.27388635536E+02 -0.29653171581E+01 -0.24718743340E+02  0.37012791501E+02  0.00000000000E+00 0. -1.
</event>
<event>
 7    1  0.6597701E-006  0.9147301E+02  0.7818608E-02  0.1454500E+00
          2   -1    0    0  502    0  0.00000000000E+00  0.00000000000E+00  0.14994924220E+03  0.14994924220E+03  0.00000000000E+00 0. -1.
          1   -1    0    0  501    0 -0.00000000000E+00 -0.00000000000E+00 -0.52614657691E+03  0.52614657691E+03  0.00000000000E+00 0. -1.
         25    2    1    2    0    0  0.89426675711E+01 -0.10227118244E+03 -0.37379536712E+02  0.16602158596E+03  0.12500628456E+03 0.  0.
          2    1    1    2  501    0 -0.21513031456E+02  0.13778261287E+02 -0.40060307139E+03  0.40141683050E+03  0.00000000000E+00 0. -1.
          1    1    1    2  502    0  0.12570363885E+02  0.88492921153E+02  0.61785273392E+02  0.10865740265E+03  0.00000000000E+00 0. -1.
         22    1    3    3    0    0  0.11714917435E+00 -0.12907381082E+03 -0.45167147910E+02  0.13674843186E+03  0.00000000000E+00 0. -1.
         22    1    3    3    0    0  0.88255183967E+01  0.26802628385E+02  0.77876111979E+01  0.29273154109E+02  0.00000000000E+00 0. -1.
</event>
<event>
 7    1  0.6597701E-006  0.1004657E+03  0.7818608E-02  0.1440233E+00
          2   -1    0    0  502    0  0.00000000000E+00  0.00000000000E+00  0.99654219767E+03  0.99654219767E+03  0.00000000000E+00 0. -1.
          1   -1    0    0  501    0 -0.00000000000E+00 -0.00000000000E+00 -0.15230056540E+04  0.15230056540E+04  0.00000000000E+00 0. -1.
         25    2    1    2    0    0  0.10960310321E+03  0.16087889038E+02 -0.33128161542E+03  0.37100463293E+03  0.12500107413E+03 0.  0.
          2    1    1    2  501    0 -0.95079077458E+01 -0.24036226007E+02 -0.11691385625E+04  0.11694242681E+04  0.00000000000E+00 0. -1.
          1    1    1    2  502    0 -0.10009519546E+03  0.79483369694E+01  0.97395672153E+03  0.97911895070E+03  0.00000000000E+00 0. -1.
         22    1    3    3    0    0  0.25296092569E+02  0.18289876802E+02 -0.25618503936E+03  0.25807980604E+03  0.00000000000E+00 0. -1.
         22    1    3    3    0    0  0.84307010637E+02 -0.22019877638E+01 -0.75096576062E+02  0.11292482689E+03  0.00000000000E+00 0. -1.
</event>
<event>
 7    1  0.6597701E-006  0.1146864E+03  0.7818608E-02  0.1365632E+00
          2   -1    0    0  502    0  0.00000000000E+00  0.00000000000E+00  0.20652808728E+04  0.20652808728E+04  0.00000000000E+00 0. -1.
          1   -1    0    0  501    0 -0.00000000000E+00 -0.00000000000E+00 -0.32124799005E+03  0.32124799005E+03  0.00000000000E+00 0. -1.
         25    2    1    2    0    0 -0.51146725817E+02  0.12377078301E+03  0.41893901256E+03  0.45724033135E+03  0.12499452020E+03 0.  0.
          2    1    1    2  501    0  0.39224917618E+02 -0.11192043857E+02 -0.29874063741E+03  0.30151256101E+03  0.00000000000E+00 0. -1.
          1    1    1    2  502    0  0.11921808199E+02 -0.11257873916E+03  0.16238345075E+04  0.16277759704E+04  0.00000000000E+00 0. -1.
         22    1    3    3    0    0 -0.13462700527E+01  0.13256068627E+03  0.29828819764E+03  0.32641997004E+03  0.00000000000E+00 0. -1.
         22    1    3    3    0    0 -0.49800455764E+02 -0.87899032555E+01  0.12065081492E+03  0.13082036132E+03  0.00000000000E+00 0. -1.
</event>
<event>
 7    1  0.6597701E-006  0.7677753E+02  0.7818608E-02  0.1393818E+00
          2   -1    0    0  502    0  0.00000000000E+00  0.00000000000E+00  0.15740493032E+04  0.15740493032E+04  0.00000000000E+00 0. -1.
          1   -1    0    0  501    0 -0.00000000000E+00 -0.00000000000E+00 -0.18945821065E+03  0.18945821065E+03  0.00000000000E+00 0. -1.
         25    2    1    2    0    0  0.35028144737E+02  0.72864807688E+02  0.68609393789E+02  0.16394797719E+03  0.12504174977E+03 0.  0.
          2    1    1    2  501    0  0.32511583277E+02 -0.35870965805E+02 -0.13660664866E+03  0.14493138271E+03  0.00000000000E+00 0. -1.
          1    1    1    2  502    0 -0.67539728014E+02 -0.36993841883E+02  0.14525883474E+04  0.14546281539E+04  0.00000000000E+00 0. -1.
         22    1    3    3    0    0  0.68625324092E+02  0.32486117300E+02  0.79898414574E+02  0.11022041361E+03  0.00000000000E+00 0. -1.
         22    1    3    3    0    0 -0.33597179355E+02  0.40378690388E+02 -0.11289020785E+02  0.53727563581E+02  0.00000000000E+00 0. -1.
</event>
<event>
 7    1  0.6597701E-006  0.4261329E+02  0.7818608E-02  0.1493712E+00
          2   -1    0    0  502    0  0.00000000000E+00  0.00000000000E+00  0.30052228388E+03  0.30052228388E+03  0.00000000000E+00 0. -1.
          1   -1    0    0  501    0 -0.00000000000E+00 -0.00000000000E+00 -0.99239642837E+03  0.99239642837E+03  0.00000000000E+00 0. -1.
         25    2    1    2    0    0 -0.12281193428E+02  0.18194665998E+02 -0.55787790452E+03  0.57213227922E+03  0.12500285992E+03 0.  0.
          2    1    1    2  501    0 -0.20042008389E+02 -0.44182797527E+02 -0.42453705141E+03  0.42730025710E+03  0.00000000000E+00 0. -1.
          1    1    1    2  502    0  0.32323201817E+02  0.25988131529E+02  0.29054081144E+03  0.29348617594E+03  0.00000000000E+00 0. -1.
         22    1    3    3    0    0  0.17854019506E+02  0.32685328860E+02 -0.52108702460E+03  0.52241629372E+03  0.00000000000E+00 0.  1.
         22    1    3    3    0    0 -0.30135212935E+02 -0.14490662861E+02 -0.36790879917E+02  0.49715985496E+02  0.00000000000E+00 0.  1.
</event>
<event>
 7    1  0.6597701E-006  0.2425713E+03  0.7818608E-02  0.1297294E+00
          2   -1    0    0  502    0  0.00000000000E+00  0.00000000000E+00  0.12300171908E+04  0.12300171908E+04  0.00000000000E+00 0. -1.
          1   -1    0    0  501    0 -0.00000000000E+00 -0.00000000000E+00 -0.14331064111E+04  0.14331064111E+04  0.00000000000E+00 0. -1.
         25    2    1    2    0    0 -0.21027045958E+03  0.97839546558E+02  0.82260718805E+03  0.86376703302E+03  0.12499863377E+03 0.  0.
          2    1    1    2  501    0 -0.34260336264E+02  0.78454230723E+01 -0.13664107857E+04  0.13668627424E+04  0.00000000000E+00 0. -1.
          1    1    1    2  502    0  0.24453079585E+03 -0.10568496963E+03  0.34071437739E+03  0.43249382641E+03  0.00000000000E+00 0. -1.
         22    1    3    3    0    0  0.21128580209E+00 -0.20714003980E+02  0.45861157999E+02  0.50322563682E+02  0.00000000000E+00 0. -1.
         22    1    3    3    0    0 -0.21048174538E+03  0.11855355054E+03  0.77674603006E+03  0.81344446934E+03  0.00000000000E+00 0. -1.
</event>
<event>
 7    1  0.6597701E-006  0.9660825E+02  0.7818608E-02  0.1355573E+00
          2   -1    0    0  502    0  0.00000000000E+00  0.00000000000E+00  0.37024981771E+04  0.37024981771E+04  0.00000000000E+00 0. -1.
          1   -1    0    0  501    0 -0.00000000000E+00 -0.00000000000E+00 -0.43977703599E+03  0.43977703599E+03  0.00000000000E+00 0. -1.
         25    2    1    2    0    0 -0.61611202078E+02 -0.12155166740E+02  0.97213860721E+03  0.98215207003E+03  0.12500211492E+03 0.  0.
          2    1    1    2  501    0 -0.40349596550E+02  0.33885166435E+02 -0.43217267995E+03  0.43537285141E+03  0.00000000000E+00 0. -1.
          1    1    1    2  502    0  0.10196079863E+03 -0.21729999695E+02  0.27227552138E+04  0.27247502916E+04  0.00000000000E+00 0. -1.
         22    1    3    3    0    0 -0.41075800633E+02 -0.62329114766E+02  0.74054342119E+03  0.74429610950E+03  0.00000000000E+00 0.  1.
         22    1    3    3    0    0 -0.20535401444E+02  0.50173948026E+02  0.23159518602E+03  0.23785596054E+03  0.00000000000E+00 0.  1.
</event>
<event>
 7    1  0.6597701E-006  0.4346902E+02  0.7818608E-02  0.1578607E+00
          2   -1    0    0  502    0  0.00000000000E+00  0.00000000000E+00  0.20707231526E+03  0.20707231526E+03  0.00000000000E+00 0. -1.
          1   -1    0    0  501    0 -0.00000000000E+00 -0.00000000000E+00 -0.33884449544E+03  0.33884449544E+03  0.00000000000E+00 0. -1.
         25    2    1    2    0    0 -0.84096599307E+01  0.55281352400E+02 -0.17961638232E+03  0.22586125893E+03  0.12499805272E+03 0.  0.
          2    1    1    2  501    0  0.19175516095E+02 -0.13272117664E+02 -0.13251730716E+03  0.13455365555E+03  0.00000000000E+00 0. -1.
          1    1    1    2  502    0 -0.10765856164E+02 -0.42009234736E+02  0.18036150930E+03  0.18550189622E+03  0.00000000000E+00 0. -1.
         22    1    3    3    0    0 -0.54603804453E+02 -0.52709933732E+01 -0.10887766503E+03  0.12191679447E+03  0.00000000000E+00 0.  1.
         22    1    3    3    0    0  0.46194144523E+02  0.60552345773E+02 -0.70738717290E+02  0.10394446445E+03  0.00000000000E+00 0.  1.
</event>
<event>
 7    1  0.6597701E-006  0.9276184E+02  0.7818608E-02  0.1328881E+00
          2   -1    0    0  502    0  0.00000000000E+00  0.00000000000E+00  0.38863269458E+03  0.38863269458E+03  0.00000000000E+00 0. -1.
          1   -1    0    0  501    0 -0.00000000000E+00 -0.00000000000E+00 -0.27978194770E+04  0.27978194770E+04  0.00000000000E+00 0. -1.
         25    2    1    2    0    0  0.11395054703E+03 -0.11251609044E+03 -0.29937162274E+03  0.36179220069E+03  0.12500252078E+03 0.  0.
          2    1    1    2  501    0 -0.44417580425E+02  0.52929706471E+02 -0.24608794863E+04  0.24618493701E+04  0.00000000000E+00 0. -1.
          1    1    1    2  502    0 -0.69532966604E+02  0.59586383970E+02  0.35106432660E+03  0.36281060074E+03  0.00000000000E+00 0. -1.
         22    1    3    3    0    0  0.81257514757E+01  0.14418339212E+02  0.33616249275E+01  0.16888364776E+02  0.00000000000E+00 0.  1.
         22    1    3    3    0    0  0.10582479555E+03 -0.12693442965E+03 -0.30273324767E+03  0.34490383592E+03  0.00000000000E+00 0.  1.
</event>
<event>
 7    1  0.6597701E-006  0.1727666E+03  0.7818608E-02  0.1376630E+00
          2   -1    0    0  502    0  0.00000000000E+00  0.00000000000E+00  0.15649509730E+04  0.15649509730E+04  0.00000000000E+00 0. -1.
          1   -1    0    0  501    0 -0.00000000000E+00 -0.00000000000E+00 -0.88276230440E+02  0.88276230440E+02  0.00000000000E+00 0. -1.
         25    2    1    2    0    0 -0.11303325364E+02  0.16458408234E+03  0.94913302082E+03  0.97143927025E+03  0.12500031700E+03 0.  0.
          2    1    1    2  501    0 -0.18994467463E+02  0.15828275273E+02 -0.60813708081E+02  0.65647781249E+02  0.00000000000E+00 0. -1.
          1    1    1    2  502    0  0.30297792827E+02 -0.18041235762E+03  0.58835542979E+03  0.61614015191E+03  0.00000000000E+00 0. -1.
         22    1    3    3    0    0 -0.12758330468E+02  0.58620185071E+02  0.10705114178E+03  0.12271531302E+03  0.00000000000E+00 0. -1.
         22    1    3    3    0    0  0.14550051043E+01  0.10596389727E+03  0.84208187904E+03  0.84872395722E+03  0.00000000000E+00 0. -1.
</event>
<event>
 7    1  0.6597701E-006  0.5727394E+02  0.7818608E-02  0.1533015E+00
          2   -1    0    0  502    0  0.00000000000E+00  0.00000000000E+00  0.21962716543E+03  0.21962716543E+03  0.00000000000E+00 0. -1.
          1   -1    0    0  501    0 -0.00000000000E+00 -0.00000000000E+00 -0.57877971066E+02  0.57877971066E+02  0.00000000000E+00 0. -1.
         25    2    1    2    0    0 -0.38445919309E+02  0.12083235079E+02  0.75381075508E+02  0.15143472130E+03  0.12500429988E+03 0.  0.
          2    1    1    2  501    0 -0.23248765646E+02 -0.44430716536E+01  0.59141840314E+01  0.24397203990E+02  0.00000000000E+00 0. -1.
          1    1    1    2  502    0  0.61694684955E+02 -0.76401634249E+01  0.80453934823E+02  0.10167321121E+03  0.00000000000E+00 0. -1.
         22    1    3    3    0    0 -0.71866455487E+02 -0.29499425091E+02  0.49736230911E+02  0.92242594121E+02  0.00000000000E+00 0. -1.
         22    1    3    3    0    0  0.33420536178E+02  0.41582660169E+02  0.25644844597E+02  0.59192127176E+02  0.00000000000E+00 0. -1.
</event>
<event>
 7    1  0.6597701E-006  0.1130819E+03  0.7818608E-02  0.1275352E+00
          2   -1    0    0  502    0  0.00000000000E+00  0.00000000000E+00  0.32281278493E+03  0.32281278493E+03  0.00000000000E+00 0. -1.
          1   -1    0    0  501    0 -0.00000000000E+00 -0.00000000000E+00 -0.95030562490E+03  0.95030562490E+03  0.00000000000E+00 0. -1.
         25    2    1    2    0    0 -0.28834419022E+02  0.82016923894E+02  0.26367984861E+02  0.15452597316E+03  0.12499922491E+03 0.  0.
          2    1    1    2  501    0 -0.62633381336E+02 -0.97118075115E+02 -0.87301822448E+03  0.88063368164E+03  0.00000000000E+00 0. -1.
          1    1    1    2  502    0  0.91467800358E+02  0.15101151220E+02  0.21915739966E+03  0.23795875503E+03  0.00000000000E+00 0. -1.
         22    1    3    3    0    0  0.15851987363E+02  0.42158870328E+02 -0.43425785208E+02  0.62565602943E+02  0.00000000000E+00 0.  1.
         22    1    3    3    0    0 -0.44686406384E+02  0.39858053566E+02  0.69793770069E+02  0.91960370215E+02  0.00000000000E+00 0.  1.
</event>
<event>
 7    1  0.6597701E-006  0.3714756E+02  0.7818608E-02  0.1570361E+00
          2   -1    0    0  502    0  0.00000000000E+00  0.00000000000E+00  0.14031181453E+04  0.14031181453E+04  0.00000000000E+00 0. -1.
          1   -1    0    0  501    0 -0.00000000000E+00 -0.00000000000E+00 -0.11785040140E+04  0.11785040140E+04  0.00000000000E+00 0. -1.
         25    2    1    2    0    0 -0.64779820997E+02  0.26631542232E+01 -0.13805647875E+03  0.19719841016E+03  0.12499641612E+03 0.  0.
          2    1    1    2  501    0  0.36290531896E+02 -0.63362083475E+01 -0.10103906635E+04  0.10110620372E+04  0.00000000000E+00 0. -1.
          1    1    1    2  502    0  0.28489289100E+02  0.36730541243E+01  0.13730612736E+04  0.13733617120E+04  0.00000000000E+00 0. -1.
         22    1    3    3    0    0 -0.16923957103E+01 -0.42953571891E+02 -0.10340298728E+03  0.11198237057E+03  0.00000000000E+00 0. -1.
         22    1    3    3    0    0 -0.63087425286E+02  0.45616726114E+02 -0.34653491474E+02  0.85216039582E+02  0.00000000000E+00 0. -1.
</event>
<event>
 7    1  0.6597701E-006  0.9500940E+02  0.7818608E-02  0.1376056E+00
          2   -1    0    0  502    0  0.00000000000E+00  0.00000000000E+00  0.11965438989E+04  0.11965438989E+04  0.00000000000E+00 0. -1.
          1   -1    0    0  501    0 -0.00000000000E+00 -0.00000000000E+00 -0.30748782946E+02  0.30748782946E+02  0.00000000000E+00 0. -1.
         25    2    1    2    0    0  0.44746083387E+02  0.53040812141E+02  0.69510048976E+03  0.70965163179E+03  0.12500083167E+03 0.  0.
          2    1    1    2  501    0 -0.29365206323E+02 -0.95514031040E+02  0.90637660488E+02  0.13490897289E+03  0.00000000000E+00 0. -1.
          1    1    1    2  502    0 -0.15380877064E+02  0.42473218899E+02  0.38005696576E+03  0.38273207721E+03  0.00000000000E+00 0. -1.
         22    1    3    3    0    0  0.25819404811E+02  0.74461305035E+02  0.65856100807E+03  0.66325992564E+03  0.00000000000E+00 0.  1.
         22    1    3    3    0    0  0.18926678576E+02 -0.21420492895E+02  0.36539481685E+02  0.46391706151E+02  0.00000000000E+00 0.  1.
</event>
<event>
 7    1  0.6597701E-006  0.3018006E+02  0.7818608E-02  0.1600560E+00
          2   -1    0    0  502    0  0.00000000000E+00  0.00000000000E+00  0.61278335050E+03  0.61278335050E+03  0.00000000000E+00 0. -1.
          1   -1    0    0  501    0 -0.00000000000E+00 -0.00000000000E+00 -0.32152497844E+02  0.32152497844E+02  0.00000000000E+00 0. -1.
         25    2    1    2    0    0 -0.24951885494E+02 -0.33420076572E+02  0.30890436896E+03  0.33583759636E+03  0.12500193543E+03 0.  0.
          2    1    1    2  501    0 -0.42151713748E+01  0.29885433910E+02 -0.51928321213E+01  0.30624701388E+02  0.00000000000E+00 0. -1.
          1    1    1    2  502    0  0.29167056869E+02  0.35346426621E+01  0.27691931582E+03  0.27847355059E+03  0.00000000000E+00 0. -1.
         22    1    3    3    0    0  0.45060634751E+02 -0.15535363566E+02  0.59839874921E+02  0.76502411439E+02  0.00000000000E+00 0. -1.
         22    1    3    3    0    0 -0.70012520246E+02 -0.17884713006E+02  0.24906449404E+03  0.25933518492E+03  0.00000000000E+00 0. -1.
</event>
<event>
 7    1  0.6597701E-006  0.7023314E+02  0.7818608E-02  0.1501408E+00
          2   -1    0    0  502    0  0.00000000000E+00  0.00000000000E+00  0.36715923531E+03  0.36715923531E+03  0.00000000000E+00 0. -1.
          1   -1    0    0  501    0 -0.00000000000E+00 -0.00000000000E+00 -0.12632321030E+03  0.12632321030E+03  0.00000000000E+00 0. -1.
         25    2    1    2    0    0 -0.24086913010E+02 -0.67865781434E+02 -0.32444363840E+02  0.14786468525E+03  0.12500153892E+03 0.  0.
          2    1    1    2  501    0  0.23737057600E+02 -0.24598111535E+01 -0.27681669736E+02  0.36548234072E+02  0.00000000000E+00 0. -1.
          1    1    1    2  502    0  0.34985540983E+00  0.70325592587E+02  0.30096205858E+03  0.30906952628E+03  0.00000000000E+00 0. -1.
         22    1    3    3    0    0  0.41391257311E+02 -0.20929011480E+02  0.21280676040E+02  0.51030646440E+02  0.00000000000E+00 0.  1.
         22    1    3    3    0    0 -0.65478170321E+02 -0.46936769953E+02 -0.53725039880E+02  0.96834038811E+02  0.00000000000E+00 0.  1.
</event>
<event>
 7    1  0.6597701E-006  0.1178688E+03  0.7818608E-02  0.1451836E+00
          2   -1    0    0  502    0  0.00000000000E+00  0.00000000000E+00  0.19729293203E+03  0.19729293203E+03  0.00000000000E+00 0. -1.
          1   -1    0    0  501    0 -0.00000000000E+00 -0.00000000000E+00 -0.43494137645E+03  0.43494137645E+03  0.00000000000E+00 0. -1.
         25    2    1    2    0    0 -0.12344249636E+03  0.47593336428E+02 -0.27791242384E+02  0.18412184626E+03  0.12500130215E+03 0.  0.
          2    1    1    2  501    0  0.10372101610E+03 -0.52042771966E+02 -0.31778355113E+03  0.33830885986E+03  0.00000000000E+00 0. -1.
          1    1    1    2  502    0  0.19721480262E+02  0.44494355381E+01  0.10792634909E+03  0.10980360235E+03  0.00000000000E+00 0. -1.
         22    1    3    3    0    0 -0.14587381026E+03  0.43955792616E+02 -0.41084603871E+02  0.15779488237E+03  0.00000000000E+00 0.  1.
         22    1    3    3    0    0  0.22431313906E+02  0.36375438123E+01  0.13293361486E+02  0.26326963899E+02  0.00000000000E+00 0.  1.
</event>
<event>
 7    1  0.6597701E-006  0.1629706E+03  0.7818608E-02  0.1287588E+00
          2   -1    0    0  502    0  0.00000000000E+00  0.00000000000E+00  0.85401799320E+03  0.85401799320E+03  0.00000000000E+00 0. -1.
          1   -1    0    0  501    0 -0.00000000000E+00 -0.00000000000E+00 -0.65604234486E+03  0.65604234486E+03  0.00000000000E+00 0. -1.
         25    2    1    2    0    0 -0.12893238190E+02 -0.10994414998E+03  0.21139417049E+03  0.26938122873E+03  0.12499919747E+03 0.  0.
          2    1    1    2  501    0  0.39718750470E+02  0.16054547220E+03 -0.61475929584E+03  0.63661716879E+03  0.00000000000E+00 0. -1.
          1    1    1    2  502    0 -0.26825512280E+02 -0.50601322227E+02  0.60134077368E+03  0.60406194054E+03  0.00000000000E+00 0. -1.
         22    1    3    3    0    0 -0.31903872294E+02 -0.11844773030E+03  0.10653154800E+03  0.16247058995E+03  0.00000000000E+00 0.  1.
         22    1    3    3    0    0  0.19010634105E+02  0.85035803216E+01  0.10486262249E+03  0.10691063878E+03  0.00000000000E+00 0.  1.
</event>
<event>
 7    1  0.6597701E-006  0.6358675E+02  0.7818608E-02  0.1439068E+00
          2   -1    0    0  502    0  0.00000000000E+00  0.00000000000E+00  0.16332897786E+04  0.16332897786E+04  0.00000000000E+00 0. -1.
          1   -1    0    0  501    0 -0.00000000000E+00 -0.00000000000E+00 -0.19319996928E+03  0.19319996928E+03  0.00000000000E+00 0. -1.
         25    2    1    2    0    0  0.99936722651E+00  0.10181848055E+03  0.27505515173E+03  0.31882229660E+03  0.12499727438E+03 0.  0.
          2    1    1    2  501    0  0.98908489459E+01 -0.62086707179E+02 -0.16521878778E+03  0.17677623125E+03  0.00000000000E+00 0. -1.
          1    1    1    2  502    0 -0.10890216172E+02 -0.39731773370E+02  0.13302534453E+04  0.13308912200E+04  0.00000000000E+00 0. -1.
         22    1    3    3    0    0 -0.10348890848E+02  0.34399632480E+02  0.23870376410E+03  0.24139163460E+03  0.00000000000E+00 0. -1.
         22    1    3    3    0    0  0.11348258075E+02  0.67418848069E+02  0.36351387629E+02  0.77430662007E+02  0.00000000000E+00 0. -1.
</event>
<event>
 7    1  0.6597701E-006  0.6248646E+02  0.7818608E-02  0.1424632E+00
          2   -1    0    0  502    0  0.00000000000E+00  0.00000000000E+00  0.33617333483E+04  0.33617333483E+04  0.00000000000E+00 0. -1.
          1   -1    0    0  501    0 -0.00000000000E+00 -0.00000000000E+00 -0.28923649540E+03  0.28923649540E+03  0.00000000000E+00 0. -1.
         25    2    1    2    0    0  0.36074678287E+02 -0.22199976641E+02  0.23908521674E+04  0.23944923791E+04  0.12500178212E+03 0.  0.
          2    1    1    2  501    0  0.17135630073E+02 -0.43504293726E+02 -0.28365463921E+03  0.28748253466E+03  0.00000000000E+00 0. -1.
          1    1    1    2  502    0 -0.53210308360E+02  0.65704270367E+02  0.96529932469E+03  0.96899492997E+03  0.00000000000E+00 0. -1.
         22    1    3    3    0    0 -0.38111720777E+02 -0.27406102773E+02  0.50576340355E+03  0.50793721866E+03  0.00000000000E+00 0. -1.
         22    1    3    3    0    0  0.74186399063E+02  0.52061261321E+01  0.18850887639E+04  0.18865551604E+04  0.00000000000E+00 0. -1.
</event>
<event>
 7    1  0.6597701E-006  0.5791671E+02  0.7818608E-02  0.1440598E+00
          2   -1    0    0  502    0  0.00000000000E+00  0.00000000000E+00  0.22693722144E+04  0.22693722144E+04  0.00000000000E+00 0. -1.
          1   -1    0    0  501    0 -0.00000000000E+00 -0.00000000000E+00 -0.10658325151E+03  0.10658325151E+03  0.00000000000E+00 0. -1.
         25    2    1    2    0    0 -0.31455627817E+02 -0.30231109322E+02  0.12395488546E+03  0.18136624816E+03  0.12500210338E+03 0.  0.
          2    1    1    2  501    0 -0.26593609126E+02  0.35948953278E+02 -0.71022214529E+02  0.83926767153E+02  0.00000000000E+00 0. -1.
          1    1    1    2  502    0  0.58049236944E+02 -0.57178439564E+01  0.21098562920E+04  0.21106624506E+04  0.00000000000E+00 0. -1.
         22    1    3    3    0    0 -0.21224693920E+02 -0.79318459703E+02  0.72801451824E+02  0.10973585134E+03  0.00000000000E+00 0. -1.
         22    1    3    3    0    0 -0.10230933897E+02  0.49087350381E+02  0.51153433633E+02  0.71630396818E+02  0.00000000000E+00 0. -1.
</event>
<event>
 7    1  0.8832418E-006  0.7685605E+02  0.7818608E-02  0.1339809E+00
          2   -1    0    0  502    0  0.00000000000E+00  0.00000000000E+00  0.22444747521E+04  0.22444747521E+04  0.00000000000E+00 0. -1.
          1   -1    0    0  501    0 -0.00000000000E+00 -0.00000000000E+00 -0.21377970760E+04  0.21377970760E+04  0.00000000000E+00 0. -1.
         25    2    1    2    0    0  0.18056468138E+02 -0.24431841287E+02 -0.28039845061E+03  0.30849598046E+03  0.12499411163E+03 0.  0.
          2    1    1    2  501    0  0.47807281143E+02  0.64040161590E+02 -0.18418210368E+04  0.18435540160E+04  0.00000000000E+00 0. -1.
          1    1    1    2  502    0 -0.65863749280E+02 -0.39608320303E+02  0.22288971635E+04  0.22302218315E+04  0.00000000000E+00 0. -1.
         22    1    3    3    0    0  0.32357617003E+02  0.31293138044E+02 -0.36641837645E+02  0.58042227152E+02  0.00000000000E+00 0.  1.
         22    1    3    3    0    0 -0.14301148866E+02 -0.55724979331E+02 -0.24375661296E+03  0.25045375330E+03  0.00000000000E+00 0.  1.
</event>
<event>
 7    1  0.6597701E-006  0.4233734E+02  0.7818608E-02  0.1551184E+00
          2   -1    0    0  502    0  0.00000000000E+00  0.00000000000E+00  0.87699156799E+03  0.87699156799E+03  0.00000000000E+00 0. -1.
          1   -1    0    0  501    0 -0.00000000000E+00 -0.00000000000E+00 -0.38661595926E+03  0.38661595926E+03  0.00000000000E+00 0. -1.
         25    2    1    2    0    0  0.31814648836E+02 -0.15159055461E+02 -0.21998402630E+03  0.25546179518E+03  0.12500315246E+03 0.  0.
          2    1    1    2  501    0 -0.15424604145E+02 -0.23915320451E+02 -0.14700523486E+03  0.14973443172E+03  0.00000000000E+00 0. -1.
          1    1    1    2  502    0 -0.16390044692E+02  0.39074375913E+02  0.85736486990E+03  0.85841130034E+03  0.00000000000E+00 0. -1.
         22    1    3    3    0    0  0.49908539944E+01 -0.68179293197E+02 -0.94648550817E+02  0.11675475500E+03  0.00000000000E+00 0.  1.
         22    1    3    3    0    0  0.26823794842E+02  0.53020237736E+02 -0.12533547548E+03  0.13870704018E+03  0.00000000000E+00 0.  1.
</event>
<event>
 7    1  0.6597701E-006  0.4373123E+02  0.7818608E-02  0.1493720E+00
          2   -1    0    0  502    0  0.00000000000E+00  0.00000000000E+00  0.53233104458E+02  0.53233104458E+02  0.00000000000E+00 0. -1.
          1   -1    0    0  501    0 -0.00000000000E+00 -0.00000000000E+00 -0.18064400495E+04  0.18064400495E+04  0.00000000000E+00 0. -1.
         25    2    1    2    0    0  0.28792650706E+02  0.62927453957E+02 -0.16816886844E+03  0.22068052035E+03  0.12502096846E+03 0.  0.
          2    1    1    2  501    0 -0.34548629935E+02 -0.20966016529E+02 -0.15949760604E+04  0.15954879552E+04  0.00000000000E+00 0. -1.
          1    1    1    2  502    0  0.57559792298E+01 -0.41961437429E+02  0.99379837993E+01  0.43504678484E+02  0.00000000000E+00 0. -1.
         22    1    3    3    0    0  0.69327217448E+02  0.70830540170E+02 -0.98774286882E+02  0.13992708190E+03  0.00000000000E+00 0.  1.
         22    1    3    3    0    0 -0.40534566742E+02 -0.79030862125E+01 -0.69394581558E+02  0.80753438454E+02  0.00000000000E+00 0.  1.
</event>
<event>
 7    1  0.6597701E-006  0.1587207E+03  0.7818608E-02  0.1285806E+00
          2   -1    0    0  502    0  0.00000000000E+00  0.00000000000E+00  0.70133916870E+03  0.70133916870E+03  0.00000000000E+00 0. -1.
          1   -1    0    0  501    0 -0.00000000000E+00 -0.00000000000E+00 -0.35039512854E+03  0.35039512854E+03  0.00000000000E+00 0. -1.
         25    2    1    2    0    0 -0.22381899257E+02  0.11021402057E+03  0.56874619830E+02  0.17750522163E+03  0.12500120632E+03 0.  0.
          2    1    1    2  501    0  0.87971690730E+01 -0.16845162914E+03 -0.26382405034E+03  0.31313969898E+03  0.00000000000E+00 0. -1.
          1    1    1    2  502    0  0.13584730184E+02  0.58237608571E+02  0.55789347067E+03  0.56108937663E+03  0.00000000000E+00 0. -1.
         22    1    3    3    0    0 -0.42705334240E+02 -0.11804299089E+02  0.11819561499E+02  0.45856178249E+02  0.00000000000E+00 0.  1.
         22    1    3    3    0    0  0.20323434984E+02  0.12201831966E+03  0.45055058332E+02  0.13164904338E+03  0.00000000000E+00 0.  1.
</event>
<event>
 7    1  0.6597701E-006  0.9731385E+02  0.7818608E-02  0.1323116E+00
          2   -1    0    0  502    0  0.00000000000E+00  0.00000000000E+00  0.97648654111E+03  0.97648654111E+03  0.00000000000E+00 0. -1.
          1   -1    0    0  501    0 -0.00000000000E+00 -0.00000000000E+00 -0.19188708609E+04  0.19188708609E+04  0.00000000000E+00 0. -1.
         25    2    1    2    0    0  0.15187601884E+03 -0.43877693636E+01 -0.14063150297E+03  0.24184259499E+03  0.12500017402E+03 0.  0.
          2    1    1    2  501    0 -0.91437729116E+02 -0.29547067500E+02 -0.17249974855E+04  0.17276719054E+04  0.00000000000E+00 0. -1.
          1    1    1    2  502    0 -0.60438289727E+02  0.33934836864E+02  0.92324466877E+03  0.92584290160E+03  0.00000000000E+00 0. -1.
         22    1    3    3    0    0  0.37950617795E+02 -0.44074354940E+02 -0.97870625566E+02  0.11384839702E+03  0.00000000000E+00 0.  1.
         22    1    3    3    0    0  0.11392540105E+03  0.39686585577E+02 -0.42760877403E+02  0.12799419797E+03  0.00000000000E+00 0.  1.
</event>
<event>
 7    1  0.6597701E-006  0.7613292E+02  0.7818608E-02  0.1382249E+00
          2   -1    0    0  502    0  0.00000000000E+00  0.00000000000E+00  0.14172353293E+02  0.14172353293E+02  0.00000000000E+00 0. -1.
          1   -1    0    0  501    0 -0.00000000000E+00 -0.00000000000E+00 -0.19967238491E+04  0.19967238491E+04  0.00000000000E+00 0. -1.
         25    2    1    2    0    0 -0.69596605770E+02  0.68902726140E+02 -0.15013290010E+04  0.15097033469E+04  0.12499661221E+03 0.  0.
          2    1    1    2  501    0  0.64489011043E+02 -0.15553737024E+02 -0.38827659645E+03  0.39390286446E+03  0.00000000000E+00 0. -1.
          1    1    1    2  502    0  0.51075947272E+01 -0.53348989115E+02 -0.92945898369E+02  0.10728999109E+03  0.00000000000E+00 0. -1.
         22    1    3    3    0    0 -0.19828017065E+02 -0.35111397682E+02 -0.53539269641E+03  0.53690902384E+03  0.00000000000E+00 0. -1.
         22    1    3    3    0    0 -0.49768588705E+02  0.10401412382E+03 -0.96593630459E+03  0.97279432302E+03  0.00000000000E+00 0. -1.
</event>
<event>
 7    1  0.6597701E-006  0.1369739E+03  0.7818608E-02  0.1363806E+00
          2   -1    0    0  502    0  0.00000000000E+00  0.00000000000E+00  0.81137446334E+03  0.81137446334E+03  0.00000000000E+00 0. -1.
          1   -1    0    0  501    0 -0.00000000000E+00 -0.00000000000E+00 -0.16217353616E+03  0.16217353616E+03  0.00000000000E+00 0. -1.
         25    2    1    2    0    0  0.83555015566E+02 -0.62387590006E+02  0.62772790796E+03  0.64848984758E+03  0.12499241566E+03 0.  0.
          2    1    1    2  501    0 -0.10768893328E+03  0.87288872769E+02 -0.11756373570E+03  0.18176216771E+03  0.00000000000E+00 0. -1.
          1    1    1    2  502    0  0.24133917710E+02 -0.24901282763E+02  0.13903675493E+03  0.14329598420E+03  0.00000000000E+00 0. -1.
         22    1    3    3    0    0  0.11119396292E+03 -0.24998634706E+02  0.39254729162E+03  0.40875714707E+03  0.00000000000E+00 0.  1.
         22    1    3    3    0    0 -0.27638947358E+02 -0.37388955300E+02  0.23518061635E+03  0.23973270051E+03  0.00000000000E+00 0.  1.
</event>
<event>
 7    1  0.6597701E-006  0.1583065E+03  0.7818608E-02  0.1276872E+00
          2   -1    0    0  502    0  0.00000000000E+00  0.00000000000E+00  0.96837290659E+03  0.96837290659E+03  0.00000000000E+00 0. -1.
          1   -1    0    0  501    0 -0.00000000000E+00 -0.00000000000E+00 -0.94082462013E+03  0.94082462013E+03  0.00000000000E+00 0. -1.
         25    2    1    2    0    0 -0.12495513812E+03 -0.93216186971E+02 -0.30953644085E+03  0.36843120592E+03  0.12500280488E+03 0.  0.
          2    1    1    2  501    0  0.15849248965E+03  0.37226848344E+02 -0.58966185437E+03  0.61172445595E+03  0.00000000000E+00 0. -1.
          1    1    1    2  502    0 -0.33537351528E+02  0.55989338627E+02  0.92674658167E+03  0.92904186484E+03  0.00000000000E+00 0. -1.
         22    1    3    3    0    0 -0.12727636217E+03 -0.66396495416E+02 -0.30987213254E+03  0.34150915873E+03  0.00000000000E+00 0.  1.
         22    1    3    3    0    0  0.23212240518E+01 -0.26819691554E+02  0.33569169141E+00  0.26922047193E+02  0.00000000000E+00 0.  1.
</event>
<event>
 7    1  0.6597701E-006  0.7751368E+02  0.7818608E-02  0.1403877E+00
          2   -1    0    0  502    0  0.00000000000E+00  0.00000000000E+00  0.20211224010E+04  0.20211224010E+04  0.00000000000E+00 0. -1.
          1   -1    0    0  501    0 -0.00000000000E+00 -0.00000000000E+00 -0.61905045911E+02  0.61905045911E+02  0.00000000000E+00 0. -1.
         25    2    1    2    0    0  0.59537516834E+01 -0.10843379457E+03  0.96643744041E+02  0.19172280739E+03  0.12499714656E+03 0.  0.
          2    1    1    2  501    0  0.23816666419E+02  0.37323991586E+02  0.22587326234E+02  0.49704137188E+02  0.00000000000E+00 0. -1.
          1    1    1    2  502    0 -0.29770418102E+02  0.71109802988E+02  0.18399862848E+04  0.18416005023E+04  0.00000000000E+00 0. -1.
         22    1    3    3    0    0 -0.18554140276E+02  0.16308818644E+02 -0.91401723846E+01  0.26339636257E+02  0.00000000000E+00 0.  1.
         22    1    3    3    0    0  0.24507891959E+02 -0.12474261322E+03  0.10578391643E+03  0.16538317114E+03  0.00000000000E+00 0.  1.
</event>
<event>
 7    1  0.6597701E-006  0.7957646E+02  0.7818608E-02  0.1351400E+00
          2   -1    0    0  502    0  0.00000000000E+00  0.00000000000E+00  0.16347868519E+04  0.16347868519E+04  0.00000000000E+00 0. -1.
          1   -1    0    0  501    0 -0.00000000000E+00 -0.00000000000E+00 -0.37073529238E+03  0.37073529238E+03  0.00000000000E+00 0. -1.
         25    2    1    2    0    0  0.85620760864E+01 -0.53947627561E+02  0.50894157374E+02  0.14559740406E+03  0.12499893259E+03 0.  0.
          2    1    1    2  501    0  0.57557343845E+02  0.58470158340E+02 -0.31745099966E+03  0.32788221122E+03  0.00000000000E+00 0. -1.
          1    1    1    2  502    0 -0.66119419931E+02 -0.45225307791E+01  0.15306084019E+04  0.15320425290E+04  0.00000000000E+00 0. -1.
         22    1    3    3    0    0 -0.19437938271E+02  0.34764415928E+02  0.57394779140E+00  0.39833747942E+02  0.00000000000E+00 0. -1.
         22    1    3    3    0    0  0.28000014357E+02 -0.88712043488E+02  0.50320209583E+02  0.10576365612E+03  0.00000000000E+00 0. -1.
</event>
<event>
 7    1  0.6597701E-006  0.2034019E+03  0.7818608E-02  0.1251319E+00
          2   -1    0    0  502    0  0.00000000000E+00  0.00000000000E+00  0.31309613694E+04  0.31309613694E+04  0.00000000000E+00 0. -1.
          1   -1    0    0  501    0 -0.00000000000E+00 -0.00000000000E+00 -0.33803921601E+03  0.33803921601E+03  0.00000000000E+00 0. -1.
         25    2    1    2    0    0 -0.36167749836E+02  0.16722362610E+03 -0.83268735366E+01  0.21205170726E+03  0.12499896990E+03 0.  0.
          2    1    1    2  501    0 -0.64236621497E+02  0.11104571194E+02 -0.21965315706E+03  0.22912259699E+03  0.00000000000E+00 0. -1.
          1    1    1    2  502    0  0.10040437133E+03 -0.17832819729E+03  0.30209021840E+04  0.30278262812E+04  0.00000000000E+00 0. -1.
         22    1    3    3    0    0 -0.32882881235E+02  0.39205144476E+02  0.49812305878E+02  0.71411434999E+02  0.00000000000E+00 0. -1.
         22    1    3    3    0    0 -0.32848686005E+01  0.12801848162E+03 -0.58139179415E+02  0.14064027226E+03  0.00000000000E+00 0. -1.
</event>
<event>
 7    1  0.6597701E-006  0.1400454E+03  0.7818608E-02  0.1365532E+00
          2   -1    0    0  502    0  0.00000000000E+00  0.00000000000E+00  0.31879933443E+03  0.31879933443E+03  0.00000000000E+00 0. -1.
          1   -1    0    0  501    0 -0.00000000000E+00 -0.00000000000E+00 -0.24710305585E+03  0.24710305585E+03  0.00000000000E+00 0. -1.
         25    2    1    2    0    0 -0.86216024161E+02 -0.14290180567E+03 -0.41785827788E+02  0.21266118820E+03  0.12499838669E+03 0.  0.
          2    1    1    2  501    0  0.25919581760E+02  0.21115536097E+02 -0.97056886487E+02  0.10265344513E+03  0.00000000000E+00 0. -1.
          1    1    1    2  502    0  0.60296442401E+02  0.12178626958E+03  0.21053899285E+03  0.25058775695E+03  0.00000000000E+00 0. -1.
         22    1    3    3    0    0 -0.61218039438E+02 -0.15461711958E+02  0.23417491646E+02  0.67343090249E+02  0.00000000000E+00 0. -1.
         22    1    3    3    0    0 -0.24997984724E+02 -0.12744009372E+03 -0.65203319434E+02  0.14531809795E+03  0.00000000000E+00 0. -1.
</event>
<event>
 7    1  0.6597701E-006  0.6077077E+02  0.7818608E-02  0.1400359E+00
          2   -1    0    0  502    0  0.00000000000E+00  0.00000000000E+00  0.12588542524E+04  0.12588542524E+04  0.00000000000E+00 0. -1.
          1   -1    0    0  501    0 -0.00000000000E+00 -0.00000000000E+00 -0.61356289853E+03  0.61356289853E+03  0.00000000000E+00 0. -1.
         25    2    1    2    0    0 -0.85298087063E+02  0.24047192695E+02  0.31901794734E+03  0.35390825545E+03  0.12499828567E+03 0.  0.
          2    1    1    2  501    0  0.51845541307E+02  0.26143369041E+02 -0.59371389921E+03  0.59654641899E+03  0.00000000000E+00 0. -1.
          1    1    1    2  502    0  0.33452545756E+02 -0.50190561736E+02  0.91998730573E+03  0.92196247646E+03  0.00000000000E+00 0. -1.
         22    1    3    3    0    0  0.77217662037E+01  0.53974987044E+02  0.13407613468E+03  0.14473885032E+03  0.00000000000E+00 0.  1.
         22    1    3    3    0    0 -0.93019853266E+02 -0.29927794349E+02  0.18494181266E+03  0.20916940514E+03  0.00000000000E+00 0.  1.
</event>
<event>
 7    1  0.6597701E-006  0.6018197E+02  0.7818608E-02  0.1415434E+00
          2   -1    0    0  502    0  0.00000000000E+00  0.00000000000E+00  0.61525669555E+03  0.61525669555E+03  0.00000000000E+00 0. -1.
          1   -1    0    0  501    0 -0.00000000000E+00 -0.00000000000E+00 -0.36117123513E+03  0.36117123513E+03  0.00000000000E+00 0. -1.
         25    2    1    2    0    0  0.10147079561E+03 -0.36424329018E+00 -0.20721730981E+02  0.16232964583E+03  0.12500027499E+03 0.  0.
          2    1    1    2  501    0 -0.54215812514E+02  0.22319086273E+02 -0.26518954251E+03  0.27159342664E+03  0.00000000000E+00 0. -1.
          1    1    1    2  502    0 -0.47254983093E+02 -0.21954842982E+02  0.53999673390E+03  0.54250485821E+03  0.00000000000E+00 0. -1.
         22    1    3    3    0    0  0.86694933917E+01  0.42938635274E+02 -0.38585954903E+02  0.58376043294E+02  0.00000000000E+00 0.  1.
         22    1    3    3    0    0  0.92801302215E+02 -0.43302878564E+02  0.17864223922E+02  0.10395360254E+03  0.00000000000E+00 0.  1.
</event>
<event>
 7    1  0.6597701E-006  0.1291487E+03  0.7818608E-02  0.1234895E+00
          2   -1    0    0  502    0  0.00000000000E+00  0.00000000000E+00  0.75551049648E+03  0.75551049648E+03  0.00000000000E+00 0. -1.
          1   -1    0    0  501    0 -0.00000000000E+00 -0.00000000000E+00 -0.49020192425E+03  0.49020192425E+03  0.00000000000E+00 0. -1.
         25    2    1    2    0    0 -0.13603483137E+03 -0.16097270445E+03 -0.50323069923E+01  0.24508821316E+03  0.12500088476E+03 0.  0.
          2    1    1    2  501    0  0.16434455922E+02  0.12008078703E+03 -0.34851714689E+03  0.36899009260E+03  0.00000000000E+00 0. -1.
          1    1    1    2  502    0  0.11960037544E+03  0.40891917422E+02  0.61885802611E+03  0.63163411498E+03  0.00000000000E+00 0. -1.
         22    1    3    3    0    0 -0.53712684926E+02  0.99774629500E+01  0.63998862979E+01  0.55005098250E+02  0.00000000000E+00 0.  1.
         22    1    3    3    0    0 -0.82322146441E+02 -0.17095016740E+03 -0.11432193290E+02  0.19008311491E+03  0.00000000000E+00 0.  1.
</event>
<event>
 7    1  0.6597701E-006  0.1154520E+03  0.7818608E-02  0.1397521E+00
          2   -1    0    0  502    0  0.00000000000E+00  0.00000000000E+00  0.13275427817E+04  0.13275427817E+04  0.00000000000E+00 0. -1.
          1   -1    0    0  501    0 -0.00000000000E+00 -0.00000000000E+00 -0.48218082117E+03  0.48218082117E+03  0.00000000000E+00 0. -1.
         25    2    1    2    0    0  0.13248957394E+02  0.13386655120E+03  0.24185640655E+03  0.30367002925E+03  0.12500070749E+03 0.  0.
          2    1    1    2  501    0  0.19057179321E+02 -0.24777840970E+02 -0.44765945859E+03  0.44874949398E+03  0.00000000000E+00 0. -1.
          1    1    1    2  502    0 -0.32306136715E+02 -0.10908871023E+03  0.10511650126E+04  0.10573040796E+04  0.00000000000E+00 0. -1.
         22    1    3    3    0    0 -0.89219914711E+01  0.47895857925E+02  0.29603672141E+01  0.48809619054E+02  0.00000000000E+00 0.  1.
         22    1    3    3    0    0  0.22170948865E+02  0.85970693279E+02  0.23889603934E+03  0.25486041020E+03  0.00000000000E+00 0.  1.
</event>
<event>
 7    1  0.6597701E-006  0.1602690E+03  0.7818608E-02  0.1241311E+00
          2   -1    0    0  502    0  0.00000000000E+00  0.00000000000E+00  0.28274084008E+04  0.28274084008E+04  0.00000000000E+00 0. -1.
          1   -1    0    0  501    0 -0.00000000000E+00 -0.00000000000E+00 -0.96234484030E+03  0.96234484030E+03  0.00000000000E+00 0. -1.
         25    2    1    2    0    0  0.19102257045E+03  0.14657695815E+03  0.12193049385E+03  0.29743308793E+03  0.12499987753E+03 0.  0.
          2    1    1    2  501    0 -0.48733174547E+02 -0.77427081292E+02 -0.86980204394E+03  0.87460017772E+03  0.00000000000E+00 0. -1.
          1    1    1    2  502    0 -0.14228939591E+03 -0.69149876857E+02  0.26129351106E+04  0.26177199754E+04  0.00000000000E+00 0. -1.
         22    1    3    3    0    0  0.16377068944E+03  0.11438611724E+03  0.37778942838E+02  0.20330339657E+03  0.00000000000E+00 0.  1.
         22    1    3    3    0    0  0.27251881017E+02  0.32190840911E+02  0.84151551011E+02  0.94129691357E+02  0.00000000000E+00 0.  1.
</event>
<event>
 7    1  0.6597701E-006  0.8946734E+02  0.7818608E-02  0.1324283E+00
          2   -1    0    0  502    0  0.00000000000E+00  0.00000000000E+00  0.11291435894E+04  0.11291435894E+04  0.00000000000E+00 0. -1.
          1   -1    0    0  501    0 -0.00000000000E+00 -0.00000000000E+00 -0.42431733866E+03  0.42431733866E+03  0.00000000000E+00 0. -1.
         25    2    1    2    0    0  0.13412441477E+03 -0.67348185852E+02  0.84513986154E+03  0.86741656516E+03  0.12499990071E+03 0.  0.
          2    1    1    2  501    0 -0.59515197022E+02  0.66416934293E+02 -0.40311185603E+03  0.41285885761E+03  0.00000000000E+00 0. -1.
          1    1    1    2  502    0 -0.74609217748E+02  0.93125155939E+00  0.26279824518E+03  0.27318550524E+03  0.00000000000E+00 0. -1.
         22    1    3    3    0    0  0.11602205392E+03 -0.36194400004E+02  0.80223517951E+03  0.81138920059E+03  0.00000000000E+00 0.  1.
         22    1    3    3    0    0  0.18102360850E+02 -0.31153785848E+02  0.42904682032E+02  0.56027364576E+02  0.00000000000E+00 0.  1.
</event>
<event>
 7    1  0.6597701E-006  0.4724450E+02  0.7818608E-02  0.1574242E+00
          2   -1    0    0  502    0  0.00000000000E+00  0.00000000000E+00  0.90416855060E+02  0.90416855060E+02  0.00000000000E+00 0. -1.
          1   -1    0    0  501    0 -0.00000000000E+00 -0.00000000000E+00 -0.78449680121E+03  0.78449680121E+03  0.00000000000E+00 0. -1.
         25    2    1    2    0    0  0.16194980265E+02  0.32897185125E+02 -0.86763688321E+02  0.15651794150E+03  0.12500170489E+03 0.  0.
          2    1    1    2  501    0 -0.15617774570E+02  0.15559789064E+02 -0.65206326094E+03  0.65243583453E+03  0.00000000000E+00 0. -1.
          1    1    1    2  502    0 -0.57720569489E+00 -0.48456974190E+02  0.44747003105E+02  0.65959880238E+02  0.00000000000E+00 0. -1.
         22    1    3    3    0    0 -0.22264813943E+02  0.56044772984E+02 -0.16911941364E+01  0.60329086321E+02  0.00000000000E+00 0.  1.
         22    1    3    3    0    0  0.38459794209E+02 -0.23147587858E+02 -0.85072494185E+02  0.96188855181E+02  0.00000000000E+00 0.  1.
</event>
<event>
 7    1  0.6597701E-006  0.8949783E+02  0.7818608E-02  0.1379580E+00
          2   -1    0    0  502    0  0.00000000000E+00  0.00000000000E+00  0.12739767900E+04  0.12739767900E+04  0.00000000000E+00 0. -1.
          1   -1    0    0  501    0 -0.00000000000E+00 -0.00000000000E+00 -0.22575368098E+04  0.22575368098E+04  0.00000000000E+00 0. -1.
         25    2    1    2    0    0 -0.11572724026E+03 -0.21333988047E+02  0.27549407224E+03  0.32460791961E+03  0.12500153778E+03 0.  0.
          2    1    1    2  501    0  0.29248684437E+02  0.36266795316E+02 -0.22307592129E+04  0.22312457131E+04  0.00000000000E+00 0. -1.
          1    1    1    2  502    0  0.86478555823E+02 -0.14932807269E+02  0.97170512088E+03  0.97565996705E+03  0.00000000000E+00 0. -1.
         22    1    3    3    0    0 -0.12742162842E+02  0.38409707566E+02  0.25831897095E+02  0.48009949560E+02  0.00000000000E+00 0. -1.
         22    1    3    3    0    0 -0.10298507742E+03 -0.59743695613E+02  0.24966217514E+03  0.27659797005E+03  0.00000000000E+00 0. -1.
</event>
<event>
 7    1  0.6597701E-006  0.9863714E+02  0.7818608E-02  0.1291368E+00
          2   -1    0    0  502    0  0.00000000000E+00  0.00000000000E+00  0.26259640273E+04  0.26259640273E+04  0.00000000000E+00 0. -1.
          1   -1    0    0  501    0 -0.00000000000E+00 -0.00000000000E+00 -0.32527061119E+02  0.32527061119E+02  0.00000000000E+00 0. -1.
         25    2    1    2    0    0  0.15340180782E+01  0.77554872875E+02  0.10464296830E+04  0.10567199330E+04  0.12499929529E+03 0.  0.
          2    1    1    2  501    0 -0.89561334900E+02 -0.53206433286E+02  0.78532444660E+02  0.13045881387E+03  0.00000000000E+00 0. -1.
          1    1    1    2  502    0  0.88027316822E+02 -0.24348439589E+02  0.14684748386E+04  0.14713123416E+04  0.00000000000E+00 0. -1.
         22    1    3    3    0    0 -0.58891206882E+02  0.28398312186E+02  0.59931391315E+03  0.60286964169E+03  0.00000000000E+00 0.  1.
         22    1    3    3    0    0  0.60425224960E+02  0.49156560689E+02  0.44711576982E+03  0.45385029128E+03  0.00000000000E+00 0.  1.
</event>
<event>
 7    1  0.8171893E-006  0.9783233E+02  0.7818608E-02  0.1304806E+00
          2   -1    0    0  502    0  0.00000000000E+00  0.00000000000E+00  0.88369536910E+03  0.88369536910E+03  0.00000000000E+00 0. -1.
          1   -1    0    0  501    0 -0.00000000000E+00 -0.00000000000E+00 -0.12651440669E+04  0.12651440669E+04  0.00000000000E+00 0. -1.
         25    2    1    2    0    0 -0.66397104658E+01  0.13449948650E+03 -0.20340046730E+03  0.27410101851E+03  0.12500168249E+03 0.  0.
          2    1    1    2  501    0  0.61848990158E+02 -0.74785587173E+02 -0.10221406196E+04  0.10267373705E+04  0.00000000000E+00 0. -1.
          1    1    1    2  502    0 -0.55209279692E+02 -0.59713899329E+02  0.84409238913E+03  0.84800104701E+03  0.00000000000E+00 0. -1.
         22    1    3    3    0    0  0.51858840957E+02  0.92100640059E+02 -0.15320322372E+03  0.18612655652E+03  0.00000000000E+00 0.  1.
         22    1    3    3    0    0 -0.58498551423E+02  0.42398846443E+02 -0.50197243575E+02  0.87974461981E+02  0.00000000000E+00 0.  1.
</event>
<event>
 7    1  0.6597701E-006  0.5277011E+02  0.7818608E-02  0.1469728E+00
          2   -1    0    0  502    0  0.00000000000E+00  0.00000000000E+00  0.80338491405E+02  0.80338491405E+02  0.00000000000E+00 0. -1.
          1   -1    0    0  501    0 -0.00000000000E+00 -0.00000000000E+00 -0.94855983774E+03  0.94855983774E+03  0.00000000000E+00 0. -1.
         25    2    1    2    0    0 -0.37874739673E+01  0.43104958183E+02 -0.25154383470E+03  0.28420337108E+03  0.12499949193E+03 0.  0.
          2    1    1    2  501    0  0.39546275267E+02 -0.29942547294E+01 -0.66871626173E+03  0.66989126890E+03  0.00000000000E+00 0. -1.
          1    1    1    2  502    0 -0.35758801299E+02 -0.40110703453E+02  0.52038750089E+02  0.74803689165E+02  0.00000000000E+00 0. -1.
         22    1    3    3    0    0 -0.24181783127E+02 -0.75248732580E+01  0.14706738760E+01  0.25368193361E+02  0.00000000000E+00 0. -1.
         22    1    3    3    0    0  0.20394309160E+02  0.50629831441E+02 -0.25301450857E+03  0.25883517772E+03  0.00000000000E+00 0. -1.
</event>
<event>
 7    1  0.6597701E-006  0.1971150E+03  0.7818608E-02  0.1234174E+00
          2   -1    0    0  502    0  0.00000000000E+00  0.00000000000E+00  0.85367202845E+03  0.85367202845E+03  0.00000000000E+00 0. -1.
          1   -1    0    0  501    0 -0.00000000000E+00 -0.00000000000E+00 -0.12704594409E+04  0.12704594409E+04  0.00000000000E+00 0. -1.
         25    2    1    2    0    0 -0.87504414225E+02  0.13881609279E+03 -0.43722771866E+03  0.48344598821E+03  0.12500006170E+03 0.  0.
          2    1    1    2  501    0 -0.75629016267E+02 -0.26077371227E+02 -0.79625355042E+03  0.80026214077E+03  0.00000000000E+00 0. -1.
          1    1    1    2  502    0  0.16313343049E+03 -0.11273872156E+03  0.81669385666E+03  0.84042334034E+03  0.00000000000E+00 0. -1.
         22    1    3    3    0    0  0.15894181346E+02  0.80922559628E+02 -0.12775528939E+03  0.15206084185E+03  0.00000000000E+00 0. -1.
         22    1    3    3    0    0 -0.10339859557E+03  0.57893533161E+02 -0.30947242927E+03  0.33138514635E+03  0.00000000000E+00 0. -1.
</event>
<event>
 7    1  0.6597701E-006  0.5821900E+02  0.7818608E-02  0.1428328E+00
          2   -1    0    0  502    0  0.00000000000E+00  0.00000000000E+00  0.50018777762E+03  0.50018777762E+03  0.00000000000E+00 0. -1.
          1   -1    0    0  501    0 -0.00000000000E+00 -0.00000000000E+00 -0.22472701004E+03  0.22472701004E+03  0.00000000000E+00 0. -1.
         25    2    1    2    0    0 -0.10177239283E+03  0.13351422901E+01  0.22898757530E+02  0.16281535880E+03  0.12500034167E+03 0.  0.
          2    1    1    2  501    0  0.46400231895E+02 -0.15087322694E+02 -0.14885531919E+03  0.15664774137E+03  0.00000000000E+00 0. -1.
          1    1    1    2  502    0  0.55372160939E+02  0.13752180404E+02  0.40141732923E+03  0.40545168748E+03  0.00000000000E+00 0. -1.
         22    1    3    3    0    0  0.20073807525E+02  0.29662231239E+02  0.10896448506E+01  0.35832848568E+02  0.00000000000E+00 0.  1.
         22    1    3    3    0    0 -0.12184620036E+03 -0.28327088949E+02  0.21809112680E+02  0.12698251024E+03  0.00000000000E+00 0.  1.
</event>
<event>
 7    1  0.6597701E-006  0.9165902E+02  0.7818608E-02  0.1330343E+00
          2   -1    0    0  502    0  0.00000000000E+00  0.00000000000E+00  0.17910371294E+04  0.17910371294E+04  0.00000000000E+00 0. -1.
          1   -1    0    0  501    0 -0.00000000000E+00 -0.00000000000E+00 -0.25203198267E+03  0.25203198267E+03  0.00000000000E+00 0. -1.
         25    2    1    2    0    0 -0.15169467865E+02  0.11576029645E+03  0.30694873912E+03  0.35138707596E+03  0.12499915883E+03 0.  0.
          2    1    1    2  501    0 -0.44049267165E+02 -0.80278057014E+02 -0.21983853261E+03  0.23814677154E+03  0.00000000000E+00 0. -1.
          1    1    1    2  502    0  0.59218735030E+02 -0.35482239441E+02  0.14518949402E+04  0.14535352646E+04  0.00000000000E+00 0. -1.
         22    1    3    3    0    0 -0.82876425983E+00 -0.20130811946E+02  0.62473480744E+01  0.21094212423E+02  0.00000000000E+00 0.  1.
         22    1    3    3    0    0 -0.14340703605E+02  0.13589110840E+03  0.30070139105E+03  0.33029286353E+03  0.00000000000E+00 0.  1.
</event>
<event>
 7    1  0.6597701E-006  0.8308451E+02  0.7818608E-02  0.1442391E+00
          2   -1    0    0  502    0  0.00000000000E+00  0.00000000000E+00  0.73447694987E+03  0.73447694987E+03  0.00000000000E+00 0. -1.
          1   -1    0    0  501    0 -0.00000000000E+00 -0.00000000000E+00 -0.37722367985E+03  0.37722367985E+03  0.00000000000E+00 0. -1.
         25    2    1    2    0    0 -0.75213448602E+01 -0.11080259738E+03  0.10041318455E+03  0.19503686938E+03  0.12499114597E+03 0.  0.
          2    1    1    2  501    0 -0.34400180667E+01  0.82065259456E+02 -0.32438653977E+03  0.33462391982E+03  0.00000000000E+00 0. -1.
          1    1    1    2  502    0  0.10961362927E+02  0.28737337928E+02  0.58122662524E+03  0.58203984052E+03  0.00000000000E+00 0. -1.
         22    1    3    3    0    0 -0.29947510159E+01 -0.13275249942E+03  0.53715367798E+02  0.14323943372E+03  0.00000000000E+00 0. -1.
         22    1    3    3    0    0 -0.45265938443E+01  0.21949902035E+02  0.46697816751E+02  0.51797435656E+02  0.00000000000E+00 0. -1.
</event>
<event>
 7    1  0.8862073E-006  0.5610168E+02  0.7818608E-02  0.1441315E+00
          2   -1    0    0  502    0  0.00000000000E+00  0.00000000000E+00  0.11783032007E+04  0.11783032007E+04  0.00000000000E+00 0. -1.
          1   -1    0    0  501    0 -0.00000000000E+00 -0.00000000000E+00 -0.85470198182E+03  0.85470198182E+03  0.00000000000E+00 0. -1.
         25    2    1    2    0    0 -0.61128200001E+02  0.56358360094E+02 -0.14369602855E+03  0.20781278626E+03  0.12499873569E+03 0.  0.
          2    1    1    2  501    0  0.61456770272E+01 -0.45503648094E+02 -0.67748495253E+03  0.67903918314E+03  0.00000000000E+00 0. -1.
          1    1    1    2  502    0  0.54982522974E+02 -0.10854712000E+02  0.11447822000E+04  0.11461532131E+04  0.00000000000E+00 0. -1.
         22    1    3    3    0    0 -0.79897071376E+02  0.28000796128E+02 -0.31099297096E+02  0.90192864896E+02  0.00000000000E+00 0.  1.
         22    1    3    3    0    0  0.18768871375E+02  0.28357563966E+02 -0.11259673145E+03  0.11761992136E+03  0.00000000000E+00 0.  1.
</event>
<event>
 7    1  0.6597701E-006  0.7291833E+02  0.7818608E-02  0.1482374E+00
          2   -1    0    0  502    0  0.00000000000E+00  0.00000000000E+00  0.27174720925E+03  0.27174720925E+03  0.00000000000E+00 0. -1.
          1   -1    0    0  501    0 -0.00000000000E+00 -0.00000000000E+00 -0.15731292273E+04  0.15731292273E+04  0.00000000000E+00 0. -1.
         25    2    1    2    0    0 -0.47248252466E+02  0.58916798264E+02  0.88438719533E+02  0.17073391179E+03  0.12500030017E+03 0.  0.
          2    1    1    2  501    0  0.24043869622E+02  0.10497836729E+02 -0.15224407429E+04  0.15226667816E+04  0.00000000000E+00 0. -1.
          1    1    1    2  502    0  0.23204382844E+02 -0.69414634992E+02  0.13262000534E+03  0.15147574311E+03  0.00000000000E+00 0. -1.
         22    1    3    3    0    0 -0.33370432979E+01 -0.37385477825E+02  0.95577499068E+01  0.38731904077E+02  0.00000000000E+00 0.  1.
         22    1    3    3    0    0 -0.43911209168E+02  0.96302276088E+02  0.78880969627E+02  0.13200200771E+03  0.00000000000E+00 0.  1.
</event>
<event>
 7    1  0.6597701E-006  0.7642390E+02  0.7818608E-02  0.1366013E+00
          2   -1    0    0  502    0  0.00000000000E+00  0.00000000000E+00  0.65974460548E+03  0.65974460548E+03  0.00000000000E+00 0. -1.
          1   -1    0    0  501    0 -0.00000000000E+00 -0.00000000000E+00 -0.57344019090E+03  0.57344019090E+03  0.00000000000E+00 0. -1.
         25    2    1    2    0    0 -0.10501226391E+03 -0.56556390176E+02 -0.30543493591E+03  0.35091431066E+03  0.12499660999E+03 0.  0.
          2    1    1    2  501    0  0.68182835896E+02  0.79064543482E+01 -0.23896181732E+03  0.24862453875E+03  0.00000000000E+00 0. -1.
          1    1    1    2  502    0  0.36829428013E+02  0.48649935828E+02  0.63070116781E+03  0.63364594696E+03  0.00000000000E+00 0. -1.
         22    1    3    3    0    0 -0.13245118906E+03 -0.34260173994E+02 -0.25397133476E+03  0.28847619639E+03  0.00000000000E+00 0. -1.
         22    1    3    3    0    0  0.27438925153E+02 -0.22296216182E+02 -0.51463601159E+02  0.62438114272E+02  0.00000000000E+00 0. -1.
</event>
<event>
 7    1  0.6597701E-006  0.9703081E+02  0.7818608E-02  0.1345914E+00
          2   -1    0    0  502    0  0.00000000000E+00  0.00000000000E+00  0.91892672982E+02  0.91892672982E+02  0.00000000000E+00 0. -1.
          1   -1    0    0  501    0 -0.00000000000E+00 -0.00000000000E+00 -0.73667884766E+03  0.73667884766E+03  0.00000000000E+00 0. -1.
         25    2    1    2    0    0  0.41388129820E+02  0.34366404653E+02 -0.10425076050E+03  0.17142717601E+03  0.12500011421E+03 0.  0.
          2    1    1    2  501    0 -0.49610556712E+02 -0.90731504540E+02 -0.57916179219E+03  0.58832116636E+03  0.00000000000E+00 0. -1.
          1    1    1    2  502    0  0.82224268922E+01  0.56365099887E+02  0.38626378010E+02  0.68823178272E+02  0.00000000000E+00 0. -1.
         22    1    3    3    0    0  0.51617576216E+02  0.75668234217E+02 -0.84089135280E+02  0.12434242444E+03  0.00000000000E+00 0. -1.
         22    1    3    3    0    0 -0.10229446396E+02 -0.41301829564E+02 -0.20161625218E+02  0.47084751569E+02  0.00000000000E+00 0. -1.
</event>
<event>
 7    1  0.6597701E-006  0.1188009E+03  0.7818608E-02  0.1397234E+00
          2   -1    0    0  502    0  0.00000000000E+00  0.00000000000E+00  0.40884221390E+03  0.40884221390E+03  0.00000000000E+00 0. -1.
          1   -1    0    0  501    0 -0.00000000000E+00 -0.00000000000E+00 -0.10338638529E+04  0.10338638529E+04  0.00000000000E+00 0. -1.
         25    2    1    2    0    0  0.57214527498E+02 -0.12416480933E+03 -0.83695504463E+01  0.18543302234E+03  0.12499981746E+03 0.  0.
          2    1    1    2  501    0  0.10395460476E+02  0.28617450846E+02 -0.92601093232E+03  0.92651134416E+03  0.00000000000E+00 0. -1.
          1    1    1    2  502    0 -0.67609987974E+02  0.95547358483E+02  0.30935884375E+03  0.33076170031E+03  0.00000000000E+00 0. -1.
         22    1    3    3    0    0  0.96532905473E+02 -0.98760265907E+02 -0.11059271678E+02  0.13854421479E+03  0.00000000000E+00 0. -1.
         22    1    3    3    0    0 -0.39318377974E+02 -0.25404543421E+02  0.26897212315E+01  0.46888807548E+02  0.00000000000E+00 0. -1.
</event>
<event>
 7    1  0.6597701E-006  0.7865262E+02  0.7818608E-02  0.1396938E+00
          2   -1    0    0  502    0  0.00000000000E+00  0.00000000000E+00  0.89086255024E+02  0.89086255024E+02  0.00000000000E+00 0. -1.
          1   -1    0    0  501    0 -0.00000000000E+00 -0.00000000000E+00 -0.33436415709E+04  0.33436415709E+04  0.00000000000E+00 0. -1.
         25    2    1    2    0    0 -0.32982094298E+02  0.73396987593E+02 -0.10802343930E+03  0.18376399558E+03  0.12500082521E+03 0.  0.
          2    1    1    2  501    0 -0.12910406970E+02 -0.77735607091E+02 -0.31867887393E+04  0.31877628475E+04  0.00000000000E+00 0. -1.
          1    1    1    2  502    0  0.45892501268E+02  0.43386194986E+01  0.40256862762E+02  0.61200982763E+02  0.00000000000E+00 0. -1.
         22    1    3    3    0    0 -0.40635851400E+02 -0.26415106550E+02 -0.38246944942E+02  0.61740254863E+02  0.00000000000E+00 0. -1.
         22    1    3    3    0    0  0.76537571028E+01  0.99812094143E+02 -0.69776494357E+02  0.12202374072E+03  0.00000000000E+00 0. -1.
</event>
<event>
 7    1  0.6597701E-006  0.6183426E+02  0.7818608E-02  0.1487486E+00
          2   -1    0    0  502    0  0.00000000000E+00  0.00000000000E+00  0.18546370947E+04  0.18546370947E+04  0.00000000000E+00 0. -1.
          1   -1    0    0  501    0 -0.00000000000E+00 -0.00000000000E+00 -0.10306897115E+04  0.10306897115E+04  0.00000000000E+00 0. -1.
         25    2    1    2    0    0  0.72173126283E+02  0.17915676398E+02  0.97737801705E+03  0.98814107508E+03  0.12500025773E+03 0.  0.
          2    1    1    2  501    0 -0.23766329466E+02  0.18058260551E+02 -0.10240475017E+04  0.10244824180E+04  0.00000000000E+00 0. -1.
          1    1    1    2  502    0 -0.48406796817E+02 -0.35973936950E+02  0.87061686782E+03  0.87270331307E+03  0.00000000000E+00 0. -1.
         22    1    3    3    0    0 -0.29062945361E+02  0.13529955573E+02  0.44843219396E+03  0.44957663092E+03  0.00000000000E+00 0. -1.
         22    1    3    3    0    0  0.10123607164E+03  0.43857208255E+01  0.52894582310E+03  0.53856444417E+03  0.00000000000E+00 0. -1.
</event>
<event>
 7    1  0.6597701E-006  0.5753907E+02  0.7818608E-02  0.1426752E+00
          2   -1    0    0  502    0  0.00000000000E+00  0.00000000000E+00  0.15534176437E+04  0.15534176437E+04  0.00000000000E+00 0. -1.
          1   -1    0    0  501    0 -0.00000000000E+00 -0.00000000000E+00 -0.61703972486E+02  0.61703972486E+02  0.00000000000E+00 0. -1.
         25    2    1    2    0    0 -0.42956065878E+02  0.94378604102E+02  0.65000196549E+03  0.66998488306E+03  0.12499857550E+03 0.  0.
          2    1    1    2  501    0  0.33821473071E+02 -0.45257426039E+02 -0.35354323348E+02  0.66648742162E+02  0.00000000000E+00 0. -1.
          1    1    1    2  502    0  0.91345928070E+01 -0.49121178063E+02  0.87706602904E+03  0.87848799093E+03  0.00000000000E+00 0. -1.
         22    1    3    3    0    0  0.33706931300E-01 -0.59367160020E+01 -0.38572207625E+01  0.70798223887E+01  0.00000000000E+00 0.  1.
         22    1    3    3    0    0 -0.42989772810E+02  0.10031532010E+03  0.65385918625E+03  0.66290506067E+03  0.00000000000E+00 0.  1.
</event>
<event>
 7    1  0.6597701E-006  0.1691221E+03  0.7818608E-02  0.1291792E+00
          2   -1    0    0  502    0  0.00000000000E+00  0.00000000000E+00  0.83803230888E+03  0.83803230888E+03  0.00000000000E+00 0. -1.
          1   -1    0    0  501    0 -0.00000000000E+00 -0.00000000000E+00 -0.10964594628E+04  0.10964594628E+04  0.00000000000E+00 0. -1.
         25    2    1    2    0    0 -0.12458858996E+03 -0.32848636721E+02  0.61204184281E+03  0.63782661848E+03  0.12500491276E+03 0.  0.
          2    1    1    2  501    0  0.16952368479E+03  0.46365312091E+01 -0.10735016366E+04  0.10868144004E+04  0.00000000000E+00 0. -1.
          1    1    1    2  502    0 -0.44935094825E+02  0.28212105511E+02  0.20303263981E+03  0.20985075286E+03  0.00000000000E+00 0. -1.
         22    1    3    3    0    0 -0.10518959176E+03  0.31753847242E+02  0.32920164683E+03  0.34705457972E+03  0.00000000000E+00 0. -1.
         22    1    3    3    0    0 -0.19398998205E+02 -0.64602483963E+02  0.28284019598E+03  0.29077203877E+03  0.00000000000E+00 0. -1.
</event>
<event>
 7    1  0.6597701E-006  0.7573686E+02  0.7818608E-02  0.1357131E+00
          2   -1    0    0  502    0  0.00000000000E+00  0.00000000000E+00  0.81642643970E+03  0.81642643970E+03  0.00000000000E+00 0. -1.
          1   -1    0    0  501    0 -0.00000000000E+00 -0.00000000000E+00 -0.25555825985E+03  0.25555825985E+03  0.00000000000E+00 0. -1.
         25    2    1    2    0    0  0.71638379793E+02  0.73247230409E+02  0.48794782196E+02  0.16882897726E+03  0.12500031428E+03 0.  0.
          2    1    1    2  501    0  0.36588631271E+01 -0.66230507455E+02 -0.18781985439E+03  0.19918876750E+03  0.00000000000E+00 0. -1.
          1    1    1    2  502    0 -0.75297242920E+02 -0.70167229547E+01  0.69989325204E+03  0.70396695479E+03  0.00000000000E+00 0. -1.
         22    1    3    3    0    0  0.98160176042E+02  0.21345153404E+02  0.45974966132E+02  0.11047503449E+03  0.00000000000E+00 0. -1.
         22    1    3    3    0    0 -0.26521796250E+02  0.51902077005E+02  0.28198160640E+01  0.58353942766E+02  0.00000000000E+00 0. -1.
</event>
<event>
 7    1  0.6597701E-006  0.9619424E+02  0.7818608E-02  0.1352031E+00
          2   -1    0    0  502    0  0.00000000000E+00  0.00000000000E+00  0.61831378696E+03  0.61831378696E+03  0.00000000000E+00 0. -1.
          1   -1    0    0  501    0 -0.00000000000E+00 -0.00000000000E+00 -0.22314151984E+03  0.22314151984E+03  0.00000000000E+00 0. -1.
         25    2    1    2    0    0  0.11078480495E+03  0.71384018182E+02  0.53946485545E+02  0.18951299152E+03  0.12504399063E+03 0.  0.
          2    1    1    2  501    0 -0.54368173317E+02  0.42126920036E+01 -0.14590523463E+03  0.15576258388E+03  0.00000000000E+00 0. -1.
          1    1    1    2  502    0 -0.56416631630E+02 -0.75596710186E+02  0.48713101620E+03  0.49617973141E+03  0.00000000000E+00 0. -1.
         22    1    3    3    0    0  0.83915540273E+02  0.91286926315E+02 -0.23684353423E+01  0.12401907233E+03  0.00000000000E+00 0. -1.
         22    1    3    3    0    0  0.26869264674E+02 -0.19902908133E+02  0.56314920888E+02  0.65493919190E+02  0.00000000000E+00 0. -1.
</event>
<event>
 7    1  0.6597701E-006  0.1797062E+03  0.7818608E-02  0.1304044E+00
          2   -1    0    0  502    0  0.00000000000E+00  0.00000000000E+00  0.88830142560E+03  0.88830142560E+03  0.00000000000E+00 0. -1.
          1   -1    0    0  501    0 -0.00000000000E+00 -0.00000000000E+00 -0.38757873300E+03  0.38757873300E+03  0.00000000000E+00 0. -1.
         25    2    1    2    0    0 -0.13884447686E+03  0.19115357689E+02  0.16961319893E+03  0.25305475235E+03  0.12499953911E+03 0.  0.
          2    1    1    2  501    0  0.18341914826E+03 -0.18234088616E+02 -0.32048347600E+03  0.36970897247E+03  0.00000000000E+00 0. -1.
          1    1    1    2  502    0 -0.44574671400E+02 -0.88126907293E+00  0.65159296967E+03  0.65311643379E+03  0.00000000000E+00 0. -1.
         22    1    3    3    0    0 -0.13599614247E+03  0.57577106493E+02  0.14687221120E+03  0.20828230934E+03  0.00000000000E+00 0.  1.
         22    1    3    3    0    0 -0.28483343827E+01 -0.38461748804E+02  0.22740987737E+02  0.44772443010E+02  0.00000000000E+00 0.  1.
</event>
<event>
 7    1  0.6597701E-006  0.1042036E+03  0.7818608E-02  0.1458486E+00
          2   -1    0    0  502    0  0.00000000000E+00  0.00000000000E+00  0.11797861179E+04  0.11797861179E+04  0.00000000000E+00 0. -1.
          1   -1    0    0  501    0 -0.00000000000E+00 -0.00000000000E+00 -0.19930868150E+03  0.19930868150E+03  0.00000000000E+00 0. -1.
         25    2    1    2    0    0 -0.91214892554E+02 -0.16865148828E+02  0.51854779573E+02  0.16406906053E+03  0.12500059436E+03 0.  0.
          2    1    1    2  501    0 -0.65928744080E+01 -0.20761109789E+02 -0.13979452143E+03  0.14148144010E+03  0.00000000000E+00 0. -1.
          1    1    1    2  502    0  0.97807766962E+02  0.37626258617E+02  0.10684171783E+04  0.10735442988E+04  0.00000000000E+00 0. -1.
         22    1    3    3    0    0 -0.27697292910E+02 -0.15460628496E+02  0.86197023749E+02  0.91848233359E+02  0.00000000000E+00 0. -1.
         22    1    3    3    0    0 -0.63517599644E+02 -0.14045203323E+01 -0.34342244176E+02  0.72220827169E+02  0.00000000000E+00 0. -1.
</event>
<event>
 7    1  0.6597701E-006  0.1054863E+03  0.7818608E-02  0.1314669E+00
          2   -1    0    0  502    0  0.00000000000E+00  0.00000000000E+00  0.51971414693E+03  0.51971414693E+03  0.00000000000E+00 0. -1.
          1   -1    0    0  501    0 -0.00000000000E+00 -0.00000000000E+00 -0.52184574290E+03  0.52184574290E+03  0.00000000000E+00 0. -1.
         25    2    1    2    0    0  0.13627946419E+03 -0.73486535168E+02 -0.10618965560E+03  0.22555198494E+03  0.12500036696E+03 0.  0.
          2    1    1    2  501    0 -0.67323952245E+02  0.74603123235E+02 -0.34620490736E+03  0.36049407543E+03  0.00000000000E+00 0. -1.
          1    1    1    2  502    0 -0.68955511950E+02 -0.11165880675E+01  0.45026296698E+03  0.45551382946E+03  0.00000000000E+00 0. -1.
         22    1    3    3    0    0 -0.15231136960E+02 -0.31553621407E+02  0.13817335585E+01  0.35064622408E+02  0.00000000000E+00 0.  1.
         22    1    3    3    0    0  0.15151060115E+03 -0.41932913761E+02 -0.10757138916E+03  0.19048736253E+03  0.00000000000E+00 0.  1.
</event>
<event>
 7    1  0.6597701E-006  0.7010520E+02  0.7818608E-02  0.1492276E+00
          2   -1    0    0  502    0  0.00000000000E+00  0.00000000000E+00  0.10923196847E+04  0.10923196847E+04  0.00000000000E+00 0. -1.
          1   -1    0    0  501    0 -0.00000000000E+00 -0.00000000000E+00 -0.10356356210E+04  0.10356356210E+04  0.00000000000E+00 0. -1.
         25    2    1    2    0    0 -0.52795940220E+02 -0.50167309611E+02  0.12925785786E+02  0.14524950434E+03  0.12500468917E+03 0.  0.
          2    1    1    2  501    0 -0.11702920528E+02  0.22614218571E+02 -0.96809239892E+03  0.96842720639E+03  0.00000000000E+00 0. -1.
          1    1    1    2  502    0  0.64498860747E+02  0.27553091041E+02  0.10118506768E+04  0.10142785949E+04  0.00000000000E+00 0. -1.
         22    1    3    3    0    0 -0.76564236300E+02 -0.74990918356E+02  0.22636918089E+02  0.10953606793E+03  0.00000000000E+00 0. -1.
         22    1    3    3    0    0  0.23768296081E+02  0.24823608744E+02 -0.97111323031E+01  0.35713436411E+02  0.00000000000E+00 0. -1.
</event>
<event>
 7    1  0.6597701E-006  0.5539824E+02  0.7818608E-02  0.1418645E+00
          2   -1    0    0  502    0  0.00000000000E+00  0.00000000000E+00  0.71727666449E+03  0.71727666449E+03  0.00000000000E+00 0. -1.
          1   -1    0    0  501    0 -0.00000000000E+00 -0.00000000000E+00 -0.42678217809E+03  0.42678217809E+03  0.00000000000E+00 0. -1.
         25    2    1    2    0    0  0.67784970399E+01  0.25561321412E+02  0.11635475802E+03  0.17281001716E+03  0.12500217255E+03 0.  0.
          2    1    1    2  501    0 -0.55088292773E+02  0.58519678787E+01 -0.39516796529E+03  0.39903218708E+03  0.00000000000E+00 0. -1.
          1    1    1    2  502    0  0.48309795733E+02 -0.31413289291E+02  0.56930769368E+03  0.57221663834E+03  0.00000000000E+00 0. -1.
         22    1    3    3    0    0  0.88055510813E+01 -0.46473567421E+02  0.17407025573E+02  0.50401733481E+02  0.00000000000E+00 0. -1.
         22    1    3    3    0    0 -0.20270540413E+01  0.72034888833E+02  0.98947732448E+02  0.12240828368E+03  0.00000000000E+00 0. -1.
</event>
<event>
 7    1  0.6597701E-006  0.8256543E+02  0.7818608E-02  0.1333597E+00
          2   -1    0    0  502    0  0.00000000000E+00  0.00000000000E+00  0.24333011717E+04  0.24333011717E+04  0.00000000000E+00 0. -1.
          1   -1    0    0  501    0 -0.00000000000E+00 -0.00000000000E+00 -0.44324699463E+03  0.44324699463E+03  0.00000000000E+00 0. -1.
         25    2    1    2    0    0  0.59037249190E+02  0.91923566729E+01 -0.21847467496E+03  0.25869361654E+03  0.12498522883E+03 0.  0.
          2    1    1    2  501    0 -0.29883863830E+02  0.68223968812E+02 -0.19715183052E+03  0.21075198579E+03  0.00000000000E+00 0. -1.
          1    1    1    2  502    0 -0.29153385359E+02 -0.77416325485E+02  0.24056806826E+04  0.24071025640E+04  0.00000000000E+00 0. -1.
         22    1    3    3    0    0 -0.14645121577E+01  0.51753285670E+02 -0.39774667025E+02  0.65288371939E+02  0.00000000000E+00 0.  1.
         22    1    3    3    0    0  0.60501761348E+02 -0.42560928997E+02 -0.17870000793E+03  0.19340524460E+03  0.00000000000E+00 0.  1.
</event>
<event>
 7    1  0.6597701E-006  0.2565743E+03  0.7818608E-02  0.1279981E+00
          2   -1    0    0  502    0  0.00000000000E+00  0.00000000000E+00  0.14166442153E+04  0.14166442153E+04  0.00000000000E+00 0. -1.
          1   -1    0    0  501    0 -0.00000000000E+00 -0.00000000000E+00 -0.42353825657E+03  0.42353825657E+03  0.00000000000E+00 0. -1.
         25    2    1    2    0    0 -0.25851292514E+03 -0.96588661544E+02  0.34156545785E+03  0.45655485023E+03  0.12496826506E+03 0.  0.
          2    1    1    2  501    0  0.22571199276E+03  0.11785587305E+03 -0.32132192018E+03  0.40998010546E+03  0.00000000000E+00 0. -1.
          1    1    1    2  502    0  0.32800932385E+02 -0.21267211503E+02  0.97286242102E+03  0.97364751614E+03  0.00000000000E+00 0. -1.
         22    1    3    3    0    0 -0.14353793198E+03 -0.58665649683E+02  0.94950239175E+02  0.18182503758E+03  0.00000000000E+00 0. -1.
         22    1    3    3    0    0 -0.11497499316E+03 -0.37923011861E+02  0.24661521867E+03  0.27472981266E+03  0.00000000000E+00 0. -1.
</event>
<event>
 7    1  0.6597701E-006  0.9975398E+02  0.7818608E-02  0.1290626E+00
          2   -1    0    0  502    0  0.00000000000E+00  0.00000000000E+00  0.23518219962E+04  0.23518219962E+04  0.00000000000E+00 0. -1.
          1   -1    0    0  501    0 -0.00000000000E+00 -0.00000000000E+00 -0.24836077372E+03  0.24836077372E+03  0.00000000000E+00 0. -1.
         25    2    1    2    0    0 -0.31159316984E+02  0.71035349107E+02  0.12163284365E+04  0.12251925758E+04  0.12500023352E+03 0.  0.
          2    1    1    2  501    0  0.99642174803E+02 -0.11202495455E+02 -0.23170104217E+03  0.25246669453E+03  0.00000000000E+00 0. -1.
          1    1    1    2  502    0 -0.68482857819E+02 -0.59832853652E+02  0.11188338282E+04  0.11225234997E+04  0.00000000000E+00 0. -1.
         22    1    3    3    0    0 -0.70051370695E+02  0.64131462341E+01  0.66995579529E+03  0.67363869442E+03  0.00000000000E+00 0. -1.
         22    1    3    3    0    0  0.38892053711E+02  0.64622202873E+02  0.54637264122E+03  0.55155388134E+03  0.00000000000E+00 0. -1.
</event>
<event>
 7    1  0.6597701E-006  0.3362984E+02  0.7818608E-02  0.1609133E+00
          2   -1    0    0  502    0  0.00000000000E+00  0.00000000000E+00  0.79485967092E+03  0.79485967092E+03  0.00000000000E+00 0. -1.
          1   -1    0    0  501    0 -0.00000000000E+00 -0.00000000000E+00 -0.14437272503E+02  0.14437272503E+02  0.00000000000E+00 0. -1.
         25    2    1    2    0    0 -0.12208451871E+02 -0.33627650937E+01  0.66994351524E+03  0.68162362982E+03  0.12500441846E+03 0.  0.
          2    1    1    2  501    0  0.24923432152E+02  0.24944931035E+02  0.42486462554E+02  0.55213463530E+02  0.00000000000E+00 0. -1.
          1    1    1    2  502    0 -0.12714980281E+02 -0.21582165941E+02  0.67992420624E+02  0.72459850073E+02  0.00000000000E+00 0. -1.
         22    1    3    3    0    0  0.43576228875E+00 -0.51593798649E+02  0.13768740785E+03  0.14703717975E+03  0.00000000000E+00 0.  1.
         22    1    3    3    0    0 -0.12644214159E+02  0.48231033555E+02  0.53225610738E+03  0.53458645007E+03  0.00000000000E+00 0.  1.
</event>
<event>
 7    1  0.6597701E-006  0.6584915E+02  0.7818608E-02  0.1382570E+00
          2   -1    0    0  502    0  0.00000000000E+00  0.00000000000E+00  0.94356337361E+03  0.94356337361E+03  0.00000000000E+00 0. -1.
          1   -1    0    0  501    0 -0.00000000000E+00 -0.00000000000E+00 -0.46314147253E+03  0.46314147253E+03  0.00000000000E+00 0. -1.
         25    2    1    2    0    0  0.73234908420E+02 -0.20871562753E+02 -0.38765901487E+02  0.15141496321E+03  0.12499888809E+03 0.  0.
          2    1    1    2  501    0 -0.54774788769E+02 -0.38108128680E+02 -0.36393786855E+03  0.37000443122E+03  0.00000000000E+00 0. -1.
          1    1    1    2  502    0 -0.18460119652E+02  0.58979691433E+02  0.88312567112E+03  0.88528545171E+03  0.00000000000E+00 0. -1.
         22    1    3    3    0    0  0.92038969454E+02  0.38668564298E+01  0.10968835751E+02  0.92770899718E+02  0.00000000000E+00 0. -1.
         22    1    3    3    0    0 -0.18804061034E+02 -0.24738419183E+02 -0.49734737238E+02  0.58644063495E+02  0.00000000000E+00 0. -1.
</event>
<event>
 7    1  0.6597701E-006  0.1078712E+03  0.7818608E-02  0.1356165E+00
          2   -1    0    0  502    0  0.00000000000E+00  0.00000000000E+00  0.96394771020E+02  0.96394771020E+02  0.00000000000E+00 0. -1.
          1   -1    0    0  501    0 -0.00000000000E+00 -0.00000000000E+00 -0.12175106590E+04  0.12175106590E+04  0.00000000000E+00 0. -1.
         25    2    1    2    0    0  0.11528722109E+03 -0.11226482378E+02 -0.18202282625E+03  0.24935308377E+03  0.12500989504E+03 0.  0.
          2    1    1    2  501    0 -0.12859531009E+02  0.45158048533E+02 -0.95441406823E+03  0.95556832855E+03  0.00000000000E+00 0. -1.
          1    1    1    2  502    0 -0.10242769008E+03 -0.33931566156E+02  0.15321006482E+02  0.10898401772E+03  0.00000000000E+00 0. -1.
         22    1    3    3    0    0  0.76199371345E+02  0.18387994069E+02 -0.21175875255E+02  0.81196552957E+02  0.00000000000E+00 0. -1.
         22    1    3    3    0    0  0.39087849749E+02 -0.29614476447E+02 -0.16084695099E+03  0.16815653082E+03  0.00000000000E+00 0. -1.
</event>
<event>
 7    1  0.6597701E-006  0.9997017E+02  0.7818608E-02  0.1365572E+00
          2   -1    0    0  502    0  0.00000000000E+00  0.00000000000E+00  0.85411849848E+03  0.85411849848E+03  0.00000000000E+00 0. -1.
          1   -1    0    0  501    0 -0.00000000000E+00 -0.00000000000E+00 -0.19491200318E+04  0.19491200318E+04  0.00000000000E+00 0. -1.
         25    2    1    2    0    0 -0.34802669708E+02 -0.67462852806E+02  0.25790710783E+02  0.14850145652E+03  0.12500023800E+03 0.  0.
          2    1    1    2  501    0 -0.46399273988E+02  0.62499124043E+01 -0.18841019275E+04  0.18846835350E+04  0.00000000000E+00 0. -1.
          1    1    1    2  502    0  0.81201943697E+02  0.61212940402E+02  0.76330968339E+03  0.77005353872E+03  0.00000000000E+00 0. -1.
         22    1    3    3    0    0 -0.28934690383E+02  0.17796533509E+02  0.49296079276E+02  0.59866821734E+02  0.00000000000E+00 0.  1.
         22    1    3    3    0    0 -0.58679793247E+01 -0.85259386315E+02 -0.23505368493E+02  0.88634634789E+02  0.00000000000E+00 0.  1.
</event>
<event>
 7    1  0.6597701E-006  0.2105559E+03  0.7818608E-02  0.1176074E+00
          2   -1    0    0  502    0  0.00000000000E+00  0.00000000000E+00  0.12098504850E+04  0.12098504850E+04  0.00000000000E+00 0. -1.
          1   -1    0    0  501    0 -0.00000000000E+00 -0.00000000000E+00 -0.12406252081E+04  0.12406252081E+04  0.00000000000E+00 0. -1.
         25    2    1    2    0    0 -0.42480325716E+02 -0.10685531581E+03 -0.87715902179E+02  0.19115995004E+03  0.12500164164E+03 0.  0.
          2    1    1    2  501    0 -0.11462166882E+02  0.23608245784E+03 -0.10841745351E+04  0.11096399104E+04  0.00000000000E+00 0. -1.
          1    1    1    2  502    0  0.53942492598E+02 -0.12922714203E+03  0.11411157142E+04  0.11496758326E+04  0.00000000000E+00 0. -1.
         22    1    3    3    0    0  0.35516164216E+02 -0.16868600437E+02  0.58021480808E+01  0.39744339517E+02  0.00000000000E+00 0. -1.
         22    1    3    3    0    0 -0.77996489931E+02 -0.89986715372E+02 -0.93518050260E+02  0.15141561052E+03  0.00000000000E+00 0. -1.
</event>
<event>
 7    1  0.6597701E-006  0.3225347E+02  0.7818608E-02  0.1587819E+00
          2   -1    0    0  502    0  0.00000000000E+00  0.00000000000E+00  0.10755871494E+03  0.10755871494E+03  0.00000000000E+00 0. -1.
          1   -1    0    0  501    0 -0.00000000000E+00 -0.00000000000E+00 -0.18236877398E+03  0.18236877398E+03  0.00000000000E+00 0. -1.
         25    2    1    2    0    0  0.86130293558E+01 -0.50892708980E+02 -0.39108239257E+01  0.13529535720E+03  0.12500114813E+03 0.  0.
          2    1    1    2  501    0  0.11969997345E+02  0.29482757092E+02 -0.10482215818E+03  0.10954541819E+03  0.00000000000E+00 0. -1.
          1    1    1    2  502    0 -0.20583026701E+02  0.21409951888E+02  0.33922923055E+02  0.45086713526E+02  0.00000000000E+00 0. -1.
         22    1    3    3    0    0  0.54860807861E+02 -0.18775799498E+02 -0.38137852362E+02  0.69402699290E+02  0.00000000000E+00 0. -1.
         22    1    3    3    0    0 -0.46247778505E+02 -0.32116909482E+02  0.34227028436E+02  0.65892657914E+02  0.00000000000E+00 0. -1.
</event>
<event>
 7    1  0.6597701E-006  0.7275760E+02  0.7818608E-02  0.1430822E+00
          2   -1    0    0  502    0  0.00000000000E+00  0.00000000000E+00  0.75401026251E+03  0.75401026251E+03  0.00000000000E+00 0. -1.
          1   -1    0    0  501    0 -0.00000000000E+00 -0.00000000000E+00 -0.16007778202E+03  0.16007778202E+03  0.00000000000E+00 0. -1.
         25    2    1    2    0    0 -0.84640651100E+02 -0.98952179035E+01  0.62018133320E+03  0.63836663370E+03  0.12500047129E+03 0.  0.
          2    1    1    2  501    0  0.29805950995E+02 -0.24068017655E+02 -0.13989569002E+03  0.14504643489E+03  0.00000000000E+00 0. -1.
          1    1    1    2  502    0  0.54834700105E+02  0.33963235559E+02  0.11364683732E+03  0.13067497594E+03  0.00000000000E+00 0. -1.
         22    1    3    3    0    0 -0.10013574726E+03 -0.32199342923E+02  0.31751510276E+03  0.33448438834E+03  0.00000000000E+00 0.  1.
         22    1    3    3    0    0  0.15495096164E+02  0.22304125020E+02  0.30266623044E+03  0.30388224536E+03  0.00000000000E+00 0.  1.
</event>
<event>
 7    1  0.6597701E-006  0.5279250E+02  0.7818608E-02  0.1461808E+00
          2   -1    0    0  502    0  0.00000000000E+00  0.00000000000E+00  0.27601464322E+04  0.27601464322E+04  0.00000000000E+00 0. -1.
          1   -1    0    0  501    0 -0.00000000000E+00 -0.00000000000E+00 -0.60458142098E+02  0.60458142098E+02  0.00000000000E+00 0. -1.
         25    2    1    2    0    0 -0.86358228866E+02  0.11480951964E+02  0.31035543581E+03  0.34573826210E+03  0.12499957357E+03 0.  0.
          2    1    1    2  501    0  0.45978266974E+02 -0.22926906665E+02 -0.27087985368E+02  0.58081004076E+02  0.00000000000E+00 0. -1.
          1    1    1    2  502    0  0.40379961893E+02  0.11445954701E+02  0.24164208396E+04  0.24167853081E+04  0.00000000000E+00 0. -1.
         22    1    3    3    0    0 -0.87733985200E+02  0.70420925852E+01  0.32167647911E+03  0.33350052540E+03  0.00000000000E+00 0. -1.
         22    1    3    3    0    0  0.13757563335E+01  0.44388593786E+01 -0.11321043304E+02  0.12237736701E+02  0.00000000000E+00 0. -1.
</event>
<event>
 7    1  0.6597701E-006  0.7134606E+02  0.7818608E-02  0.1419506E+00
          2   -1    0    0  502    0  0.00000000000E+00  0.00000000000E+00  0.30084545653E+03  0.30084545653E+03  0.00000000000E+00 0. -1.
          1   -1    0    0  501    0 -0.00000000000E+00 -0.00000000000E+00 -0.17510530118E+04  0.17510530118E+04  0.00000000000E+00 0. -1.
         25    2    1    2    0    0  0.85478613119E-01 -0.59074396078E+02 -0.52356370291E+02  0.14783727851E+03  0.12499951932E+03 0.  0.
          2    1    1    2  501    0  0.42590995403E+02  0.40710964524E+00 -0.16454763733E+04  0.16460275373E+04  0.00000000000E+00 0. -1.
          1    1    1    2  502    0 -0.42676474016E+02  0.58667286432E+02  0.24762518831E+03  0.25803365249E+03  0.00000000000E+00 0. -1.
         22    1    3    3    0    0  0.82951814514E+01 -0.97621510311E+02 -0.44700439560E+02  0.10768889733E+03  0.00000000000E+00 0. -1.
         22    1    3    3    0    0 -0.82097028383E+01  0.38547114234E+02 -0.76559307316E+01  0.40148381185E+02  0.00000000000E+00 0. -1.
</event>
<event>
 7    1  0.6597701E-006  0.1281502E+03  0.7818608E-02  0.1275954E+00
          2   -1    0    0  502    0  0.00000000000E+00  0.00000000000E+00  0.31104622787E+03  0.31104622787E+03  0.00000000000E+00 0. -1.
          1   -1    0    0  501    0 -0.00000000000E+00 -0.00000000000E+00 -0.34863426814E+04  0.34863426814E+04  0.00000000000E+00 0. -1.
         25    2    1    2    0    0  0.15941989163E+03 -0.79910381662E+02 -0.90804416973E+03  0.93379321706E+03  0.12500074847E+03 0.  0.
          2    1    1    2  501    0 -0.79029800251E+02 -0.19226965567E+02 -0.25510872153E+04  0.25523834676E+04  0.00000000000E+00 0. -1.
          1    1    1    2  502    0 -0.80390091378E+02  0.99137347230E+02  0.28383493151E+03  0.31121222462E+03  0.00000000000E+00 0. -1.
         22    1    3    3    0    0  0.15734879533E+02 -0.54314936486E+02 -0.43737480747E+03  0.44101521625E+03  0.00000000000E+00 0.  1.
         22    1    3    3    0    0  0.14368501210E+03 -0.25595445176E+02 -0.47066936226E+03  0.49277800081E+03  0.00000000000E+00 0.  1.
</event>
<event>
 7    1  0.6597701E-006  0.1232562E+03  0.7818608E-02  0.1340750E+00
          2   -1    0    0  502    0  0.00000000000E+00  0.00000000000E+00  0.20660788604E+04  0.20660788604E+04  0.00000000000E+00 0. -1.
          1   -1    0    0  501    0 -0.00000000000E+00 -0.00000000000E+00 -0.18712924848E+03  0.18712924848E+03  0.00000000000E+00 0. -1.
         25    2    1    2    0    0  0.41845705775E+02  0.70129538458E+02  0.43483054209E+03  0.45975118202E+03  0.12499733507E+03 0.  0.
          2    1    1    2  501    0 -0.81254353987E+02 -0.95525340655E+02 -0.15176998660E+03  0.19687937825E+03  0.00000000000E+00 0. -1.
          1    1    1    2  502    0  0.39408648213E+02  0.25395802197E+02  0.15958890564E+04  0.15965775486E+04  0.00000000000E+00 0. -1.
         22    1    3    3    0    0  0.83900647797E+02  0.53197906088E+02  0.24066373626E+03  0.26036199774E+03  0.00000000000E+00 0.  1.
         22    1    3    3    0    0 -0.42054942022E+02  0.16931632369E+02  0.19416680583E+03  0.19938918428E+03  0.00000000000E+00 0.  1.
</event>
<event>
 7    1  0.6597701E-006  0.1578400E+03  0.7818608E-02  0.1391121E+00
          2   -1    0    0  502    0  0.00000000000E+00  0.00000000000E+00  0.19628883814E+03  0.19628883814E+03  0.00000000000E+00 0. -1.
          1   -1    0    0  501    0 -0.00000000000E+00 -0.00000000000E+00 -0.41282432345E+03  0.41282432345E+03  0.00000000000E+00 0. -1.
         25    2    1    2    0    0 -0.17675222458E+03  0.20192849262E+02 -0.21621504578E+03  0.30663248951E+03  0.12500175017E+03 0.  0.
          2    1    1    2  501    0  0.23796972796E+02  0.35686179830E+01 -0.11010957807E+03  0.11270825228E+03  0.00000000000E+00 0. -1.
          1    1    1    2  502    0  0.15295525179E+03 -0.23761467245E+02  0.10978913854E+03  0.18977241980E+03  0.00000000000E+00 0. -1.
         22    1    3    3    0    0 -0.62679988302E+02  0.51715541562E+02 -0.15107353425E+03  0.17154151370E+03  0.00000000000E+00 0. -1.
         22    1    3    3    0    0 -0.11407223628E+03 -0.31522692300E+02 -0.65141511528E+02  0.13509097581E+03  0.00000000000E+00 0. -1.
</event>
<event>
 7    1  0.6597701E-006  0.3105906E+03  0.7818608E-02  0.1187544E+00
          2   -1    0    0  502    0  0.00000000000E+00  0.00000000000E+00  0.11564947317E+04  0.11564947317E+04  0.00000000000E+00 0. -1.
          1   -1    0    0  501    0 -0.00000000000E+00 -0.00000000000E+00 -0.91030474931E+03  0.91030474931E+03  0.00000000000E+00 0. -1.
         25    2    1    2    0    0  0.21523195371E+03 -0.83904121091E+02 -0.57067828931E+03  0.62822265928E+03  0.12500121720E+03 0.  0.
          2    1    1    2  501    0  0.81941150754E+02 -0.15973026129E+02 -0.28291819916E+03  0.29497829949E+03  0.00000000000E+00 0. -1.
          1    1    1    2  502    0 -0.29717310447E+03  0.99877147220E+02  0.10997864709E+04  0.11435985223E+04  0.00000000000E+00 0. -1.
         22    1    3    3    0    0  0.18231067762E+03 -0.11030439559E+02 -0.39119257932E+03  0.43172964676E+03  0.00000000000E+00 0.  1.
         22    1    3    3    0    0  0.32921276097E+02 -0.72873681532E+02 -0.17948570999E+03  0.19649301252E+03  0.00000000000E+00 0.  1.
</event>
<event>
 7    1  0.6597701E-006  0.9566598E+02  0.7818608E-02  0.1427098E+00
          2   -1    0    0  502    0  0.00000000000E+00  0.00000000000E+00  0.58004290009E+03  0.58004290009E+03  0.00000000000E+00 0. -1.
          1   -1    0    0  501    0 -0.00000000000E+00 -0.00000000000E+00 -0.24670997450E+04  0.24670997450E+04  0.00000000000E+00 0. -1.
         25    2    1    2    0    0 -0.88936106716E+02  0.71796045238E+02 -0.22196589524E+04  0.22261120449E+04  0.12499867336E+03 0.  0.
          2    1    1    2  501    0  0.29783444701E+02  0.33541739930E+01 -0.23930876979E+03  0.24117833932E+03  0.00000000000E+00 0. -1.
          1    1    1    2  502    0  0.59152662015E+02 -0.75150219231E+02  0.57191087727E+03  0.57985226085E+03  0.00000000000E+00 0. -1.
         22    1    3    3    0    0 -0.33675750024E+02  0.10128340262E+03 -0.13886352692E+04  0.13927312356E+04  0.00000000000E+00 0. -1.
         22    1    3    3    0    0 -0.55260356693E+02 -0.29487357385E+02 -0.83102368320E+03  0.83338080930E+03  0.00000000000E+00 0. -1.
</event>
<event>
 7    1  0.6597701E-006  0.6014228E+02  0.7818608E-02  0.1441906E+00
          2   -1    0    0  502    0  0.00000000000E+00  0.00000000000E+00  0.16487636916E+03  0.16487636916E+03  0.00000000000E+00 0. -1.
          1   -1    0    0  501    0 -0.00000000000E+00 -0.00000000000E+00 -0.63207720261E+03  0.63207720261E+03  0.00000000000E+00 0. -1.
         25    2    1    2    0    0  0.86115838999E+02  0.54498947194E+02 -0.31053532390E+01  0.16130931273E+03  0.12499991273E+03 0.  0.
          2    1    1    2  501    0 -0.50646429734E+02 -0.30826495702E+02 -0.54285396762E+03  0.54608219513E+03  0.00000000000E+00 0. -1.
          1    1    1    2  502    0 -0.35469409266E+02 -0.23672451492E+02  0.78758487400E+02  0.89562063904E+02  0.00000000000E+00 0. -1.
         22    1    3    3    0    0 -0.42695976244E+01  0.67669035377E+02  0.11613760848E+02  0.68791040505E+02  0.00000000000E+00 0. -1.
         22    1    3    3    0    0  0.90385436624E+02 -0.13170088183E+02 -0.14719114087E+02  0.92518272227E+02  0.00000000000E+00 0. -1.
</event>
<event>
 7    1  0.6597701E-006  0.9404936E+02  0.7818608E-02  0.1335983E+00
          2   -1    0    0  502    0  0.00000000000E+00  0.00000000000E+00  0.62519834032E+02  0.62519834032E+02  0.00000000000E+00 0. -1.
          1   -1    0    0  501    0 -0.00000000000E+00 -0.00000000000E+00 -0.64057702348E+03  0.64057702348E+03  0.00000000000E+00 0. -1.
         25    2    1    2    0    0 -0.46820395213E+02 -0.46888599946E+02 -0.56911589640E+02  0.15249189051E+03  0.12499662964E+03 0.  0.
          2    1    1    2  501    0  0.98739573173E+02  0.93992996912E+01 -0.41456199842E+03  0.42626224402E+03  0.00000000000E+00 0. -1.
          1    1    1    2  502    0 -0.51919177960E+02  0.37489300255E+02 -0.10658360138E+03  0.12434272298E+03  0.00000000000E+00 0. -1.
         22    1    3    3    0    0 -0.43697171714E+02  0.35920321467E+02 -0.35918415771E+02  0.67006304939E+02  0.00000000000E+00 0.  1.
         22    1    3    3    0    0 -0.31232234983E+01 -0.82808921413E+02 -0.20993173869E+02  0.85485585567E+02  0.00000000000E+00 0.  1.
</event>
<event>
 7    1  0.6597701E-006  0.1415765E+03  0.7818608E-02  0.1324638E+00
          2   -1    0    0  502    0  0.00000000000E+00  0.00000000000E+00  0.32024094231E+03  0.32024094231E+03  0.00000000000E+00 0. -1.
          1   -1    0    0  501    0 -0.00000000000E+00 -0.00000000000E+00 -0.12395752000E+04  0.12395752000E+04  0.00000000000E+00 0. -1.
         25    2    1    2    0    0  0.31315829582E+02  0.12595449246E+03 -0.70546258190E+03  0.72811383051E+03  0.12500832114E+03 0.  0.
          2    1    1    2  501    0  0.44752464713E+01 -0.15642296684E+03 -0.50917613043E+03  0.53268048978E+03  0.00000000000E+00 0. -1.
          1    1    1    2  502    0 -0.35791076053E+02  0.30468474380E+02  0.29530445470E+03  0.29902182198E+03  0.00000000000E+00 0. -1.
         22    1    3    3    0    0 -0.41729814146E+02  0.62078106011E+02 -0.42002368293E+03  0.42663211653E+03  0.00000000000E+00 0. -1.
         22    1    3    3    0    0  0.73045643728E+02  0.63876386452E+02 -0.28543889898E+03  0.30148171398E+03  0.00000000000E+00 0. -1.
</event>
<event>
 7    1  0.6597701E-006  0.9046246E+02  0.7818608E-02  0.1347873E+00
          2   -1    0    0  502    0  0.00000000000E+00  0.00000000000E+00  0.64793542369E+03  0.64793542369E+03  0.00000000000E+00 0. -1.
          1   -1    0    0  501    0 -0.00000000000E+00 -0.00000000000E+00 -0.43668560665E+03  0.43668560665E+03  0.00000000000E+00 0. -1.
         25    2    1    2    0    0  0.39071174491E+02  0.13692293812E+03  0.26158639349E+03  0.32299735625E+03  0.12500161288E+03 0.  0.
          2    1    1    2  501    0 -0.18176182482E+02 -0.57264818957E+02 -0.39893298297E+03  0.40343172657E+03  0.00000000000E+00 0. -1.
          1    1    1    2  502    0 -0.20894992010E+02 -0.79658119168E+02  0.34859640651E+03  0.35819194752E+03  0.00000000000E+00 0. -1.
         22    1    3    3    0    0  0.15595201109E+02  0.15573053895E+03  0.19583776694E+03  0.25069431988E+03  0.00000000000E+00 0.  1.
         22    1    3    3    0    0  0.23475973382E+02 -0.18807600825E+02  0.65748626553E+02  0.72303036372E+02  0.00000000000E+00 0.  1.
</event>
<event>
 7    1  0.6597701E-006  0.8352785E+02  0.7818608E-02  0.1381096E+00
          2   -1    0    0  502    0  0.00000000000E+00  0.00000000000E+00  0.82355549947E+03  0.82355549947E+03  0.00000000000E+00 0. -1.
          1   -1    0    0  501    0 -0.00000000000E+00 -0.00000000000E+00 -0.19807622840E+03  0.19807622840E+03  0.00000000000E+00 0. -1.
         25    2    1    2    0    0  0.12290094671E+03  0.40283730758E+02  0.16147460142E+03  0.24171537721E+03  0.12499942005E+03 0.  0.
          2    1    1    2  501    0 -0.44785117271E+02 -0.20630291532E+02 -0.15141819590E+03  0.15924442127E+03  0.00000000000E+00 0. -1.
          1    1    1    2  502    0 -0.78115829442E+02 -0.19653439226E+02  0.61542286555E+03  0.62067192938E+03  0.00000000000E+00 0. -1.
         22    1    3    3    0    0  0.14547105208E+03  0.15438767145E+02  0.13247614104E+03  0.19735782343E+03  0.00000000000E+00 0.  1.
         22    1    3    3    0    0 -0.22570105368E+02  0.24844963613E+02  0.28998460374E+02  0.44357553780E+02  0.00000000000E+00 0.  1.
</event>
<event>
 7    1  0.6597701E-006  0.8589799E+02  0.7818608E-02  0.1484222E+00
          2   -1    0    0  502    0  0.00000000000E+00  0.00000000000E+00  0.14452722098E+04  0.14452722098E+04  0.00000000000E+00 0. -1.
          1   -1    0    0  501    0 -0.00000000000E+00 -0.00000000000E+00 -0.44646728341E+02  0.44646728341E+02  0.00000000000E+00 0. -1.
         25    2    1    2    0    0 -0.11256365156E+01  0.75126776840E+02  0.35459789985E+03  0.38341846491E+03  0.12499899598E+03 0.  0.
          2    1    1    2  501    0 -0.19676072347E+02  0.98051495524E+01 -0.24206996791E+02  0.32699655570E+02  0.00000000000E+00 0. -1.
          1    1    1    2  502    0  0.20801708863E+02 -0.84931926392E+02  0.10702345784E+04  0.10738008176E+04  0.00000000000E+00 0. -1.
         22    1    3    3    0    0 -0.19317771816E+02  0.10312379778E+03  0.20675104947E+03  0.23184842124E+03  0.00000000000E+00 0. -1.
         22    1    3    3    0    0  0.18192135300E+02 -0.27997020939E+02  0.14784685038E+03  0.15157004367E+03  0.00000000000E+00 0. -1.
</event>
<event>
 7    1  0.6597701E-006  0.5044170E+02  0.7818608E-02  0.1504747E+00
          2   -1    0    0  502    0  0.00000000000E+00  0.00000000000E+00  0.89142962922E+02  0.89142962922E+02  0.00000000000E+00 0. -1.
          1   -1    0    0  501    0 -0.00000000000E+00 -0.00000000000E+00 -0.21181253477E+03  0.21181253477E+03  0.00000000000E+00 0. -1.
         25    2    1    2    0    0 -0.30745583642E+02 -0.29113862141E+02 -0.51379481398E+02  0.14162362192E+03  0.12499796516E+03 0.  0.
          2    1    1    2  501    0  0.78651091672E+01  0.52162633336E+02 -0.10187338251E+03  0.11472134205E+03  0.00000000000E+00 0. -1.
          1    1    1    2  502    0  0.22880474474E+02 -0.23048771195E+02  0.30583292057E+02  0.44610533721E+02  0.00000000000E+00 0. -1.
         22    1    3    3    0    0 -0.44158917835E+02  0.15640690590E+02 -0.75645163883E+02  0.88976581443E+02  0.00000000000E+00 0. -1.
         22    1    3    3    0    0  0.13413334194E+02 -0.44754552731E+02  0.24265682485E+02  0.52647040475E+02  0.00000000000E+00 0. -1.
</event>
<event>
 7    1  0.6597701E-006  0.6603449E+02  0.7818608E-02  0.1519852E+00
          2   -1    0    0  502    0  0.00000000000E+00  0.00000000000E+00  0.18415054252E+03  0.18415054252E+03  0.00000000000E+00 0. -1.
          1   -1    0    0  501    0 -0.00000000000E+00 -0.00000000000E+00 -0.72149694163E+03  0.72149694163E+03  0.00000000000E+00 0. -1.
         25    2    1    2    0    0 -0.28238070610E+02 -0.61997602063E+02 -0.51194237199E+03  0.53136667409E+03  0.12499783519E+03 0.  0.
          2    1    1    2  501    0  0.61822092964E+01  0.65915623067E+02 -0.19359617358E+03  0.20460343962E+03  0.00000000000E+00 0. -1.
          1    1    1    2  502    0  0.22055861314E+02 -0.39180210037E+01  0.16819214647E+03  0.16967737044E+03  0.00000000000E+00 0. -1.
         22    1    3    3    0    0 -0.56230628356E+02 -0.26872564853E+02 -0.45297309837E+03  0.45724024992E+03  0.00000000000E+00 0. -1.
         22    1    3    3    0    0  0.27992557746E+02 -0.35125037210E+02 -0.58969273628E+02  0.74126424171E+02  0.00000000000E+00 0. -1.
</event>
<event>
 7    1  0.6597701E-006  0.4437286E+02  0.7818608E-02  0.1495840E+00
          2   -1    0    0  502    0  0.00000000000E+00  0.00000000000E+00  0.15094432600E+04  0.15094432600E+04  0.00000000000E+00 0. -1.
          1   -1    0    0  501    0 -0.00000000000E+00 -0.00000000000E+00 -0.10156313630E+03  0.10156313630E+03  0.00000000000E+00 0. -1.
         25    2    1    2    0    0  0.89254309499E+01  0.89372838833E+01  0.57987261588E+03  0.59332656413E+03  0.12499849078E+03 0.  0.
          2    1    1    2  501    0  0.91848862284E+01 -0.43757186713E+02 -0.89123274297E+02  0.99709636172E+02  0.00000000000E+00 0. -1.
          1    1    1    2  502    0 -0.18110317178E+02  0.34819902830E+02  0.91713078212E+03  0.91797019600E+03  0.00000000000E+00 0. -1.
         22    1    3    3    0    0 -0.39514858550E+02  0.20968750591E+02  0.86004411300E+02  0.96942618649E+02  0.00000000000E+00 0. -1.
         22    1    3    3    0    0  0.48440289500E+02 -0.12031466708E+02  0.49386820458E+03  0.49638394548E+03  0.00000000000E+00 0. -1.
</event>
<event>
 7    1  0.6597701E-006  0.6598060E+02  0.7818608E-02  0.1510338E+00
          2   -1    0    0  502    0  0.00000000000E+00  0.00000000000E+00  0.33143487331E+03  0.33143487331E+03  0.00000000000E+00 0. -1.
          1   -1    0    0  501    0 -0.00000000000E+00 -0.00000000000E+00 -0.81872514220E+03  0.81872514220E+03  0.00000000000E+00 0. -1.
         25    2    1    2    0    0 -0.40349999109E+02  0.71286738296E+02 -0.29043119113E+03  0.32662717210E+03  0.12500044515E+03 0.  0.
          2    1    1    2  501    0  0.22555682541E+02 -0.79092307580E+01 -0.50645356934E+03  0.50701729028E+03  0.00000000000E+00 0. -1.
          1    1    1    2  502    0  0.17794316568E+02 -0.63377507538E+02  0.30959449157E+03  0.31651555313E+03  0.00000000000E+00 0. -1.
         22    1    3    3    0    0 -0.40216247944E+02  0.10255147126E+03 -0.26260461528E+03  0.28477242637E+03  0.00000000000E+00 0.  1.
         22    1    3    3    0    0 -0.13375116466E+00 -0.31264732961E+02 -0.27826575849E+02  0.41854745729E+02  0.00000000000E+00 0.  1.
</event>
<event>
 7    1  0.6597701E-006  0.5050250E+02  0.7818608E-02  0.1483083E+00
          2   -1    0    0  502    0  0.00000000000E+00  0.00000000000E+00  0.14394922675E+04  0.14394922675E+04  0.00000000000E+00 0. -1.
          1   -1    0    0  501    0 -0.00000000000E+00 -0.00000000000E+00 -0.47071305432E+02  0.47071305432E+02  0.00000000000E+00 0. -1.
         25    2    1    2    0    0 -0.11842101505E+01  0.84636770970E+02  0.57096625447E+03  0.59058806731E+03  0.12500806435E+03 0.  0.
          2    1    1    2  501    0  0.77000224017E+01 -0.36897108723E+02 -0.26866492937E+02  0.46287097769E+02  0.00000000000E+00 0. -1.
          1    1    1    2  502    0 -0.65158122513E+01 -0.47739662247E+02  0.84832120057E+03  0.84968840789E+03  0.00000000000E+00 0. -1.
         22    1    3    3    0    0 -0.39592810872E+02  0.10125199676E+03  0.39225474503E+03  0.40704218764E+03  0.00000000000E+00 0. -1.
         22    1    3    3    0    0  0.38408600721E+02 -0.16615225792E+02  0.17871150944E+03  0.18354587967E+03  0.00000000000E+00 0. -1.
</event>
<event>
 7    1  0.6597701E-006  0.6825214E+02  0.7818608E-02  0.1410414E+00
          2   -1    0    0  502    0  0.00000000000E+00  0.00000000000E+00  0.20056234585E+04  0.20056234585E+04  0.00000000000E+00 0. -1.
          1   -1    0    0  501    0 -0.00000000000E+00 -0.00000000000E+00 -0.29647054309E+04  0.29647054309E+04  0.00000000000E+00 0. -1.
         25    2    1    2    0    0  0.30267247662E+02  0.47208564884E+02  0.19810000937E+03  0.24086249787E+03  0.12500549703E+03 0.  0.
          2    1    1    2  501    0 -0.66409519620E+02 -0.15968003647E+02 -0.29426083834E+04  0.29434009750E+04  0.00000000000E+00 0. -1.
          1    1    1    2  502    0  0.36142271959E+02 -0.31240561237E+02  0.17854264016E+04  0.17860654165E+04  0.00000000000E+00 0. -1.
         22    1    3    3    0    0  0.72194098743E+02  0.40043444965E+01  0.13800114666E+03  0.15579582520E+03  0.00000000000E+00 0.  1.
         22    1    3    3    0    0 -0.41926851082E+02  0.43204220387E+02  0.60098862706E+02  0.85066672672E+02  0.00000000000E+00 0.  1.
</event>
<event>
 7    1  0.6597701E-006  0.1023944E+03  0.7818608E-02  0.1330703E+00
          2   -1    0    0  502    0  0.00000000000E+00  0.00000000000E+00  0.64535975236E+03  0.64535975236E+03  0.00000000000E+00 0. -1.
          1   -1    0    0  501    0 -0.00000000000E+00 -0.00000000000E+00 -0.92306481090E+03  0.92306481090E+03  0.00000000000E+00 0. -1.
         25    2    1    2    0    0  0.30864027703E+02  0.15470928928E+03  0.36834202443E+02  0.20461913610E+03  0.12499871997E+03 0.  0.
          2    1    1    2  501    0  0.36051775738E+01 -0.61496127648E+02 -0.83331868565E+03  0.83559248613E+03  0.00000000000E+00 0. -1.
          1    1    1    2  502    0 -0.34469205277E+02 -0.93213161632E+02  0.51877942466E+03  0.52821294103E+03  0.00000000000E+00 0. -1.
         22    1    3    3    0    0  0.37536439007E+02 -0.25310567577E+01 -0.12568516841E+02  0.39665578493E+02  0.00000000000E+00 0. -1.
         22    1    3    3    0    0 -0.66724113037E+01  0.15724034604E+03  0.49402719284E+02  0.16495355761E+03  0.00000000000E+00 0. -1.
</event>
<event>
 7    1  0.6597701E-006  0.1355473E+03  0.7818608E-02  0.1374649E+00
          2   -1    0    0  502    0  0.00000000000E+00  0.00000000000E+00  0.16839325032E+04  0.16839325032E+04  0.00000000000E+00 0. -1.
          1   -1    0    0  501    0 -0.00000000000E+00 -0.00000000000E+00 -0.97873314659E+02  0.97873314659E+02  0.00000000000E+00 0. -1.
         25    2    1    2    0    0 -0.37443845000E+02  0.10502902302E+03  0.88652660471E+03  0.90221239899E+03  0.12499861927E+03 0.  0.
          2    1    1    2  501    0  0.25310980425E+02 -0.13467292967E+03 -0.37338274099E+02  0.14202672435E+03  0.00000000000E+00 0. -1.
          1    1    1    2  502    0  0.12132864575E+02  0.29643906653E+02  0.73687085796E+03  0.73756669455E+03  0.00000000000E+00 0. -1.
         22    1    3    3    0    0 -0.27578101671E+02  0.91123707334E+02  0.87800515213E+03  0.88315181532E+03  0.00000000000E+00 0.  1.
         22    1    3    3    0    0 -0.98657433292E+01  0.13905315686E+02  0.85214525828E+01  0.19060583671E+02  0.00000000000E+00 0.  1.
</event>
<event>
 7    1  0.6597701E-006  0.1198269E+03  0.7818608E-02  0.1428999E+00
          2   -1    0    0  502    0  0.00000000000E+00  0.00000000000E+00  0.79242518581E+03  0.79242518581E+03  0.00000000000E+00 0. -1.
          1   -1    0    0  501    0 -0.00000000000E+00 -0.00000000000E+00 -0.15450321637E+03  0.15450321637E+03  0.00000000000E+00 0. -1.
         25    2    1    2    0    0  0.13216697699E+03  0.78373281693E+01  0.16752611642E+03  0.24742445110E+03  0.12499730318E+03 0.  0.
          2    1    1    2  501    0 -0.11557637284E+03 -0.24600794494E+02 -0.83763615591E+02  0.14484281254E+03  0.00000000000E+00 0. -1.
          1    1    1    2  502    0 -0.16590604155E+02  0.16763466325E+02  0.55415946862E+03  0.55466113854E+03  0.00000000000E+00 0. -1.
         22    1    3    3    0    0  0.74246751698E+02  0.61423756744E+02  0.12486532469E+03  0.15772383251E+03  0.00000000000E+00 0.  1.
         22    1    3    3    0    0  0.57920225296E+02 -0.53586428575E+02  0.42660791724E+02  0.89700618594E+02  0.00000000000E+00 0.  1.
</event>
<event>
 7    1  0.6597701E-006  0.6143051E+02  0.7818608E-02  0.1427704E+00
          2   -1    0    0  502    0  0.00000000000E+00  0.00000000000E+00  0.67176860164E+03  0.67176860164E+03  0.00000000000E+00 0. -1.
          1   -1    0    0  501    0 -0.00000000000E+00 -0.00000000000E+00 -0.41200385603E+03  0.41200385603E+03  0.00000000000E+00 0. -1.
         25    2    1    2    0    0  0.53392156938E+02 -0.53903578515E+02  0.16371521701E+03  0.21950832902E+03  0.12499966412E+03 0.  0.
          2    1    1    2  501    0 -0.60915643846E+02  0.80562296091E+01 -0.38051295988E+03  0.38544225396E+03  0.00000000000E+00 0. -1.
          1    1    1    2  502    0  0.75234869081E+01  0.45847348905E+02  0.47656248848E+03  0.47882187469E+03  0.00000000000E+00 0. -1.
         22    1    3    3    0    0  0.82045572754E+02 -0.11905187105E+01  0.68121601722E+02  0.10664635936E+03  0.00000000000E+00 0. -1.
         22    1    3    3    0    0 -0.28653415816E+02 -0.52713059804E+02  0.95593615287E+02  0.11286196966E+03  0.00000000000E+00 0. -1.
</event>
<event>
 7    1  0.6597701E-006  0.1941763E+03  0.7818608E-02  0.1185327E+00
          2   -1    0    0  502    0  0.00000000000E+00  0.00000000000E+00  0.22542393190E+04  0.22542393190E+04  0.00000000000E+00 0. -1.
          1   -1    0    0  501    0 -0.00000000000E+00 -0.00000000000E+00 -0.79594436465E+03  0.79594436465E+03  0.00000000000E+00 0. -1.
         25    2    1    2    0    0 -0.12665761760E+03 -0.15358440888E+03  0.39630648415E+03  0.46077418921E+03  0.12499480515E+03 0.  0.
          2    1    1    2  501    0 -0.36758039174E+01  0.19536422343E+03 -0.74858684704E+03  0.77366850711E+03  0.00000000000E+00 0. -1.
          1    1    1    2  502    0  0.13033342152E+03 -0.41779814546E+02  0.18105753172E+04  0.18157409873E+04  0.00000000000E+00 0. -1.
         22    1    3    3    0    0 -0.86004738282E+02 -0.13715053838E+03  0.38161027564E+03  0.41452803000E+03  0.00000000000E+00 0.  1.
         22    1    3    3    0    0 -0.40652879322E+02 -0.16433870504E+02  0.14696208514E+02  0.46246159209E+02  0.00000000000E+00 0.  1.
</event>
<event>
 7    1  0.6597701E-006  0.9010204E+02  0.7818608E-02  0.1307928E+00
          2   -1    0    0  502    0  0.00000000000E+00  0.00000000000E+00  0.22824935795E+04  0.22824935795E+04  0.00000000000E+00 0. -1.
          1   -1    0    0  501    0 -0.00000000000E+00 -0.00000000000E+00 -0.96719003513E+03  0.96719003513E+03  0.00000000000E+00 0. -1.
         25    2    1    2    0    0 -0.17044149115E+03  0.22563607050E+01  0.68283104659E+02  0.22213166148E+03  0.12499799830E+03 0.  0.
          2    1    1    2  501    0  0.83235076479E+02 -0.20912930145E+02 -0.88726409444E+03  0.89140507172E+03  0.00000000000E+00 0. -1.
          1    1    1    2  502    0  0.87206414675E+02  0.18656569440E+02  0.21342845342E+04  0.21361468815E+04  0.00000000000E+00 0. -1.
         22    1    3    3    0    0 -0.53393344370E+02  0.13112482717E+02  0.87183315003E+02  0.10307141622E+03  0.00000000000E+00 0.  1.
         22    1    3    3    0    0 -0.11704814678E+03 -0.10856122012E+02 -0.18900210344E+02  0.11906024526E+03  0.00000000000E+00 0.  1.
</event>
<event>
 7    1  0.6597701E-006  0.3046849E+02  0.7818608E-02  0.1597146E+00
          2   -1    0    0  502    0  0.00000000000E+00  0.00000000000E+00  0.13139947772E+02  0.13139947772E+02  0.00000000000E+00 0. -1.
          1   -1    0    0  501    0 -0.00000000000E+00 -0.00000000000E+00 -0.24456771449E+04  0.24456771449E+04  0.00000000000E+00 0. -1.
         25    2    1    2    0    0 -0.47786238078E+02  0.20191355079E+02 -0.11565018548E+04  0.11643938892E+04  0.12500149486E+03 0.  0.
          2    1    1    2  501    0  0.29469250100E+02  0.37522910273E+01 -0.12598621633E+04  0.12602123579E+04  0.00000000000E+00 0. -1.
          1    1    1    2  502    0  0.18316987977E+02 -0.23943646106E+02 -0.16173179051E+02  0.34210845620E+02  0.00000000000E+00 0. -1.
         22    1    3    3    0    0 -0.76115691160E+02  0.33917244491E+02 -0.48143992535E+03  0.48859838276E+03  0.00000000000E+00 0.  1.
         22    1    3    3    0    0  0.28329453082E+02 -0.13725889413E+02 -0.67506192946E+03  0.67579550647E+03  0.00000000000E+00 0.  1.
</event>
<event>
 7    1  0.6597701E-006  0.8391315E+02  0.7818608E-02  0.1352631E+00
          2   -1    0    0  502    0  0.00000000000E+00  0.00000000000E+00  0.10000173906E+04  0.10000173906E+04  0.00000000000E+00 0. -1.
          1   -1    0    0  501    0 -0.00000000000E+00 -0.00000000000E+00 -0.83847869136E+03  0.83847869136E+03  0.00000000000E+00 0. -1.
         25    2    1    2    0    0 -0.86176024539E+01 -0.25127846796E+02 -0.31177175484E+02  0.13154561162E+03  0.12500623948E+03 0.  0.
          2    1    1    2  501    0  0.52676033765E+02  0.69024733850E+02 -0.75360372743E+03  0.75858932000E+03  0.00000000000E+00 0. -1.
          1    1    1    2  502    0 -0.44058431311E+02 -0.43896887054E+02  0.94631960212E+03  0.94836115031E+03  0.00000000000E+00 0. -1.
         22    1    3    3    0    0  0.48653183412E+02  0.16737427614E+02 -0.32016060772E+02  0.60599520515E+02  0.00000000000E+00 0.  1.
         22    1    3    3    0    0 -0.57270785866E+02 -0.41865274409E+02  0.83888528815E+00  0.70946091109E+02  0.00000000000E+00 0.  1.
</event>
<event>
 7    1  0.6597701E-006  0.1553534E+03  0.7818608E-02  0.1301665E+00
          2   -1    0    0  502    0  0.00000000000E+00  0.00000000000E+00  0.47235384895E+03  0.47235384895E+03  0.00000000000E+00 0. -1.
          1   -1    0    0  501    0 -0.00000000000E+00 -0.00000000000E+00 -0.56511572222E+03  0.56511572222E+03  0.00000000000E+00 0. -1.
         25    2    1    2    0    0 -0.18477515247E+03 -0.75491230471E+02 -0.90888000442E+02  0.25243983513E+03  0.12499783553E+03 0.  0.
          2    1    1    2  501    0  0.13347199478E+03  0.63392802810E+02 -0.37767434092E+03  0.40555064866E+03  0.00000000000E+00 0. -1.
          1    1    1    2  502    0  0.51303157695E+02  0.12098427660E+02  0.37580046809E+03  0.37947908738E+03  0.00000000000E+00 0. -1.
         22    1    3    3    0    0 -0.15424643681E+03 -0.81546471996E+02 -0.20748516917E+02  0.17570512604E+03  0.00000000000E+00 0. -1.
         22    1    3    3    0    0 -0.30528715665E+02  0.60552415249E+01 -0.70139483525E+02  0.76734709091E+02  0.00000000000E+00 0. -1.
</event>
<event>
 7    1  0.6597701E-006  0.4437640E+02  0.7818608E-02  0.1545960E+00
          2   -1    0    0  502    0  0.00000000000E+00  0.00000000000E+00  0.10764300700E+04  0.10764300700E+04  0.00000000000E+00 0. -1.
          1   -1    0    0  501    0 -0.00000000000E+00 -0.00000000000E+00 -0.41799511008E+03  0.41799511008E+03  0.00000000000E+00 0. -1.
         25    2    1    2    0    0 -0.59019622503E+01  0.22863707337E+02  0.19311241457E+02  0.12867075058E+03  0.12500262292E+03 0.  0.
          2    1    1    2  501    0  0.32948771773E+02 -0.30405985463E+02 -0.36173451320E+03  0.36450240541E+03  0.00000000000E+00 0. -1.
          1    1    1    2  502    0 -0.27046809522E+02  0.75422781255E+01  0.10008582316E+04  0.10012520241E+04  0.00000000000E+00 0. -1.
         22    1    3    3    0    0  0.49425345528E+02  0.16910393796E+02 -0.24642637349E+02  0.57758858839E+02  0.00000000000E+00 0. -1.
         22    1    3    3    0    0 -0.55327307778E+02  0.59533135413E+01  0.43953878805E+02  0.70911891740E+02  0.00000000000E+00 0. -1.
</event>
<event>
 7    1  0.6597701E-006  0.7222919E+02  0.7818608E-02  0.1365526E+00
          2   -1    0    0  502    0  0.00000000000E+00  0.00000000000E+00  0.27765233488E+03  0.27765233488E+03  0.00000000000E+00 0. -1.
          1   -1    0    0  501    0 -0.00000000000E+00 -0.00000000000E+00 -0.53503059202E+03  0.53503059202E+03  0.00000000000E+00 0. -1.
         25    2    1    2    0    0  0.15355925242E+02  0.34024805393E+02  0.14042630637E+03  0.19167351839E+03  0.12500279321E+03 0.  0.
          2    1    1    2  501    0  0.72186830522E+02 -0.24734224096E+01 -0.48687081026E+03  0.49219939273E+03  0.00000000000E+00 0. -1.
          1    1    1    2  502    0 -0.87542755763E+02 -0.31551382983E+02  0.89066246753E+02  0.12881001578E+03  0.00000000000E+00 0. -1.
         22    1    3    3    0    0 -0.39389025195E+02  0.19562881752E+02  0.42381696448E+01  0.44183296959E+02  0.00000000000E+00 0.  1.
         22    1    3    3    0    0  0.54744950436E+02  0.14461923641E+02  0.13618813672E+03  0.14749022143E+03  0.00000000000E+00 0.  1.
</event>
<event>
 7    1  0.6597701E-006  0.7486023E+02  0.7818608E-02  0.1495298E+00
          2   -1    0    0  502    0  0.00000000000E+00  0.00000000000E+00  0.38399278049E+03  0.38399278049E+03  0.00000000000E+00 0. -1.
          1   -1    0    0  501    0 -0.00000000000E+00 -0.00000000000E+00 -0.22487342236E+03  0.22487342236E+03  0.00000000000E+00 0. -1.
         25    2    1    2    0    0 -0.19509641284E+01 -0.82722498525E+02  0.11656227902E+03  0.18989201903E+03  0.12500158390E+03 0.  0.
          2    1    1    2  501    0  0.22275226956E+02  0.71224054655E+02 -0.18017666666E+03  0.19501969876E+03  0.00000000000E+00 0. -1.
          1    1    1    2  502    0 -0.20324262827E+02  0.11498443870E+02  0.22273374577E+03  0.22395448505E+03  0.00000000000E+00 0. -1.
         22    1    3    3    0    0  0.52842058953E+00  0.22832334907E+02  0.71562614739E+02  0.75118590069E+02  0.00000000000E+00 0. -1.
         22    1    3    3    0    0 -0.24793847179E+01 -0.10555483343E+03  0.44999664278E+02  0.11477342896E+03  0.00000000000E+00 0. -1.
</event>
<event>
 7    1  0.6597701E-006  0.5842873E+02  0.7818608E-02  0.1470230E+00
          2   -1    0    0  502    0  0.00000000000E+00  0.00000000000E+00  0.74534929870E+02  0.74534929870E+02  0.00000000000E+00 0. -1.
          1   -1    0    0  501    0 -0.00000000000E+00 -0.00000000000E+00 -0.89488178600E+03  0.89488178600E+03  0.00000000000E+00 0. -1.
         25    2    1    2    0    0 -0.76960399701E+02  0.83436703899E+01 -0.14938202884E+03  0.20960145237E+03  0.12500103335E+03 0.  0.
          2    1    1    2  501    0  0.23029850300E+02 -0.27265439618E+02 -0.69635975884E+03  0.69727375681E+03  0.00000000000E+00 0. -1.
          1    1    1    2  502    0  0.53930549401E+02  0.18921769228E+02  0.25394931558E+02  0.62541506684E+02  0.00000000000E+00 0. -1.
         22    1    3    3    0    0  0.25582900326E+02  0.14863605352E+02 -0.80848685613E+02  0.86092517204E+02  0.00000000000E+00 0.  1.
         22    1    3    3    0    0 -0.10254330003E+03 -0.65199349621E+01 -0.68533343232E+02  0.12350893517E+03  0.00000000000E+00 0.  1.
</event>
<event>
 7    1  0.6597701E-006  0.3885718E+03  0.7818608E-02  0.1201696E+00
          2   -1    0    0  502    0  0.00000000000E+00  0.00000000000E+00  0.22374778931E+04  0.22374778931E+04  0.00000000000E+00 0. -1.
          1   -1    0    0  501    0 -0.00000000000E+00 -0.00000000000E+00 -0.96756237506E+03  0.96756237506E+03  0.00000000000E+00 0. -1.
         25    2    1    2    0    0  0.78713556102E+02 -0.42983448179E+03  0.25212249876E+03  0.51975297215E+03  0.12499556805E+03 0.  0.
          2    1    1    2  501    0 -0.86438415123E+02  0.37321739322E+03 -0.78926468259E+03  0.87732637108E+03  0.00000000000E+00 0. -1.
          1    1    1    2  502    0  0.77248590205E+01  0.56617088569E+02  0.18070577018E+04  0.18079609249E+04  0.00000000000E+00 0. -1.
         22    1    3    3    0    0  0.59606420266E+02 -0.26761796501E+03  0.87380219587E+02  0.28776310276E+03  0.00000000000E+00 0. -1.
         22    1    3    3    0    0  0.19107135837E+02 -0.16221651678E+03  0.16474227917E+03  0.23198986939E+03  0.00000000000E+00 0. -1.
</event>
<event>
 7    1  0.6597701E-006  0.3892622E+02  0.7818608E-02  0.1572444E+00
          2   -1    0    0  502    0  0.00000000000E+00  0.00000000000E+00  0.25808669945E+04  0.25808669945E+04  0.00000000000E+00 0. -1.
          1   -1    0    0  501    0 -0.00000000000E+00 -0.00000000000E+00 -0.10843293189E+02  0.10843293189E+02  0.00000000000E+00 0. -1.
         25    2    1    2    0    0  0.62123000428E+02  0.19309687309E+02  0.75181425241E+03  0.76490545840E+03  0.12499423573E+03 0.  0.
          2    1    1    2  501    0 -0.26343783962E+02 -0.61769713904E+01  0.40621665539E+02  0.48808499671E+02  0.00000000000E+00 0. -1.
          1    1    1    2  502    0 -0.35779216466E+02 -0.13132715918E+02  0.17775877834E+04  0.17779963296E+04  0.00000000000E+00 0. -1.
         22    1    3    3    0    0  0.79785148757E+02 -0.51515844362E+01  0.70291474694E+03  0.70744706534E+03  0.00000000000E+00 0.  1.
         22    1    3    3    0    0 -0.17662148329E+02  0.24461271745E+02  0.48899505464E+02  0.57458393065E+02  0.00000000000E+00 0.  1.
</event>
<event>
 7    1  0.6597701E-006  0.1761487E+03  0.7818608E-02  0.1219193E+00
          2   -1    0    0  502    0  0.00000000000E+00  0.00000000000E+00  0.10775597730E+04  0.10775597730E+04  0.00000000000E+00 0. -1.
          1   -1    0    0  501    0 -0.00000000000E+00 -0.00000000000E+00 -0.57494275045E+03  0.57494275045E+03  0.00000000000E+00 0. -1.
         25    2    1    2    0    0  0.20303223952E+03  0.45719074737E+02  0.49381777964E+03  0.55026649401E+03  0.12499956348E+03 0.  0.
          2    1    1    2  501    0 -0.12908006813E+03 -0.11967387035E+03 -0.52736568769E+03  0.55596588725E+03  0.00000000000E+00 0. -1.
          1    1    1    2  502    0 -0.73952171390E+02  0.73954795608E+02  0.53616493057E+03  0.54627014216E+03  0.00000000000E+00 0. -1.
         22    1    3    3    0    0  0.18878614958E+03  0.39754238146E+02  0.30551169819E+03  0.36132811606E+03  0.00000000000E+00 0. -1.
         22    1    3    3    0    0  0.14246089941E+02  0.59648365911E+01  0.18830608145E+03  0.18893837796E+03  0.00000000000E+00 0. -1.
</event>
<event>
 7    1  0.6597701E-006  0.1004964E+03  0.7818608E-02  0.1314218E+00
          2   -1    0    0  502    0  0.00000000000E+00  0.00000000000E+00  0.11291523395E+04  0.11291523395E+04  0.00000000000E+00 0. -1.
          1   -1    0    0  501    0 -0.00000000000E+00 -0.00000000000E+00 -0.88040547372E+02  0.88040547372E+02  0.00000000000E+00 0. -1.
         25    2    1    2    0    0 -0.35217686101E+02  0.26143305907E+02  0.28074728556E+03  0.31043096331E+03  0.12499834709E+03 0.  0.
          2    1    1    2  501    0 -0.53414618202E+02  0.49292796219E+02 -0.49910800115E+02  0.88170228336E+02  0.00000000000E+00 0. -1.
          1    1    1    2  502    0  0.88632304302E+02 -0.75436102127E+02  0.81027530667E+03  0.81859169521E+03  0.00000000000E+00 0. -1.
         22    1    3    3    0    0  0.31899930152E+02  0.24630588700E+02  0.28393348052E+02  0.49299631409E+02  0.00000000000E+00 0.  1.
         22    1    3    3    0    0 -0.67117616253E+02  0.15127172069E+01  0.25235393751E+03  0.26113133191E+03  0.00000000000E+00 0.  1.
</event>
<event>
 7    1  0.6597701E-006  0.9116089E+02  0.7818608E-02  0.1410452E+00
          2   -1    0    0  502    0  0.00000000000E+00  0.00000000000E+00  0.25242130675E+03  0.25242130675E+03  0.00000000000E+00 0. -1.
          1   -1    0    0  501    0 -0.00000000000E+00 -0.00000000000E+00 -0.55101154207E+03  0.55101154207E+03  0.00000000000E+00 0. -1.
         25    2    1    2    0    0  0.71505294281E+01 -0.11762579450E+03 -0.31286783844E+02  0.17461229936E+03  0.12499453845E+03 0.  0.
          2    1    1    2  501    0 -0.19549811447E+02  0.29939231996E+02 -0.43643990210E+03  0.43790220470E+03  0.00000000000E+00 0. -1.
          1    1    1    2  502    0  0.12399282019E+02  0.87686562501E+02  0.16913645062E+03  0.19091834476E+03  0.00000000000E+00 0. -1.
         22    1    3    3    0    0  0.75432419401E+01 -0.82272804479E+02  0.42414736541E+02  0.92869396098E+02  0.00000000000E+00 0. -1.
         22    1    3    3    0    0 -0.39271251202E+00 -0.35352990018E+02 -0.73701520386E+02  0.81742903261E+02  0.00000000000E+00 0. -1.
</event>
<event>
 7    1  0.6597701E-006  0.5114096E+02  0.7818608E-02  0.1453755E+00
          2   -1    0    0  502    0  0.00000000000E+00  0.00000000000E+00  0.54498120311E+03  0.54498120311E+03  0.00000000000E+00 0. -1.
          1   -1    0    0  501    0 -0.00000000000E+00 -0.00000000000E+00 -0.14119498017E+04  0.14119498017E+04  0.00000000000E+00 0. -1.
         25    2    1    2    0    0  0.14078337776E+02 -0.54357878588E+02  0.23001801402E+02  0.13895127866E+03  0.12500158564E+03 0.  0.
          2    1    1    2  501    0  0.32533409620E+02  0.32441871914E+02 -0.13521543030E+04  0.13529346462E+04  0.00000000000E+00 0. -1.
          1    1    1    2  502    0 -0.46611747396E+02  0.21916006673E+02  0.46218390292E+03  0.46504508003E+03  0.00000000000E+00 0. -1.
         22    1    3    3    0    0  0.46833434335E+02 -0.76967419214E+02 -0.50826890467E+01  0.90239613918E+02  0.00000000000E+00 0. -1.
         22    1    3    3    0    0 -0.32755096558E+02  0.22609540626E+02  0.28084490449E+02  0.48711664739E+02  0.00000000000E+00 0. -1.
</event>
<event>
 7    1  0.6597701E-006  0.7431406E+02  0.7818608E-02  0.1375092E+00
          2   -1    0    0  502    0  0.00000000000E+00  0.00000000000E+00  0.23251404711E+04  0.23251404711E+04  0.00000000000E+00 0. -1.
          1   -1    0    0  501    0 -0.00000000000E+00 -0.00000000000E+00 -0.31420612392E+03  0.31420612392E+03  0.00000000000E+00 0. -1.
         25    2    1    2    0    0  0.26770613644E+01 -0.12451038503E+03 -0.92870792953E+02  0.19939974096E+03  0.12500107949E+03 0.  0.
          2    1    1    2  501    0 -0.11541338340E+02  0.66978189775E+02 -0.16081048991E+03  0.17458320097E+03  0.00000000000E+00 0. -1.
          1    1    1    2  502    0  0.88642769754E+01  0.57532195257E+02  0.22646156301E+04  0.22653636531E+04  0.00000000000E+00 0. -1.
         22    1    3    3    0    0  0.38038453535E+02  0.82991456140E+01 -0.23048162196E+02  0.45243978007E+02  0.00000000000E+00 0. -1.
         22    1    3    3    0    0 -0.35361392171E+02 -0.13280953065E+03 -0.69822630757E+02  0.15415576296E+03  0.00000000000E+00 0. -1.
</event>
<event>
 7    1  0.6597701E-006  0.4479686E+02  0.7818608E-02  0.1487841E+00
          2   -1    0    0  502    0  0.00000000000E+00  0.00000000000E+00  0.66549895890E+03  0.66549895890E+03  0.00000000000E+00 0. -1.
          1   -1    0    0  501    0 -0.00000000000E+00 -0.00000000000E+00 -0.83270305326E+03  0.83270305326E+03  0.00000000000E+00 0. -1.
         25    2    1    2    0    0 -0.14759046832E+02  0.88033735671E+01  0.70460673167E+02  0.14450963254E+03  0.12499199408E+03 0.  0.
          2    1    1    2  501    0 -0.52248257565E+01 -0.44716531435E+02 -0.79428351416E+03  0.79555840003E+03  0.00000000000E+00 0. -1.
          1    1    1    2  502    0  0.19983872588E+02  0.35913157868E+02  0.55661874663E+03  0.55813397959E+03  0.00000000000E+00 0. -1.
         22    1    3    3    0    0  0.29132870350E+02 -0.41181439462E+02  0.57937591711E+02  0.76820567716E+02  0.00000000000E+00 0. -1.
         22    1    3    3    0    0 -0.43891917182E+02  0.49984813029E+02  0.12523081456E+02  0.67689064823E+02  0.00000000000E+00 0. -1.
</event>
<event>
 7    1  0.6597701E-006  0.6364151E+02  0.7818608E-02  0.1458326E+00
          2   -1    0    0  502    0  0.00000000000E+00  0.00000000000E+00  0.37135883375E+03  0.37135883375E+03  0.00000000000E+00 0. -1.
          1   -1    0    0  501    0 -0.00000000000E+00 -0.00000000000E+00 -0.51456637316E+03  0.51456637316E+03  0.00000000000E+00 0. -1.
         25    2    1    2    0    0 -0.90885287788E+02  0.15836956202E+02 -0.12749245317E+03  0.20097366579E+03  0.12500057604E+03 0.  0.
          2    1    1    2  501    0  0.61539930884E+02  0.45075030809E+01 -0.34664836971E+03  0.35209739122E+03  0.00000000000E+00 0. -1.
          1    1    1    2  502    0  0.29345356904E+02 -0.20344459283E+02  0.33093328348E+03  0.33285414990E+03  0.00000000000E+00 0. -1.
         22    1    3    3    0    0  0.10606576745E+01 -0.27108238781E+01  0.23249770324E+02  0.23431290637E+02  0.00000000000E+00 0.  1.
         22    1    3    3    0    0 -0.91945945462E+02  0.18547780080E+02 -0.15074222349E+03  0.17754237516E+03  0.00000000000E+00 0.  1.
</event>
<event>
 7    1  0.6597701E-006  0.5109741E+02  0.7818608E-02  0.1552589E+00
          2   -1    0    0  502    0  0.00000000000E+00  0.00000000000E+00  0.80785500252E+03  0.80785500252E+03  0.00000000000E+00 0. -1.
          1   -1    0    0  501    0 -0.00000000000E+00 -0.00000000000E+00 -0.92142170554E+02  0.92142170554E+02  0.00000000000E+00 0. -1.
         25    2    1    2    0    0 -0.39648469979E+02  0.18896228212E+01  0.71395093283E+02  0.14932520847E+03  0.12500074677E+03 0.  0.
          2    1    1    2  501    0  0.49130881182E+02  0.19468000563E+02 -0.39798250562E+02  0.66156989649E+02  0.00000000000E+00 0. -1.
          1    1    1    2  502    0 -0.94824112036E+01 -0.21357623384E+02  0.68411598924E+03  0.68451497495E+03  0.00000000000E+00 0. -1.
         22    1    3    3    0    0 -0.22546893764E+02 -0.38362943658E+02  0.91076682541E+02  0.10136587181E+03  0.00000000000E+00 0.  1.
         22    1    3    3    0    0 -0.17101576214E+02  0.40252566479E+02 -0.19681589258E+02  0.47959336661E+02  0.00000000000E+00 0.  1.
</event>
<event>
 7    1  0.6597701E-006  0.1681659E+03  0.7818608E-02  0.1322187E+00
          2   -1    0    0  502    0  0.00000000000E+00  0.00000000000E+00  0.22948146798E+03  0.22948146798E+03  0.00000000000E+00 0. -1.
          1   -1    0    0  501    0 -0.00000000000E+00 -0.00000000000E+00 -0.13324576028E+04  0.13324576028E+04  0.00000000000E+00 0. -1.
         25    2    1    2    0    0  0.11814911807E+03  0.16449540278E+03 -0.31828016139E+03  0.39742313293E+03  0.12499973528E+03 0.  0.
          2    1    1    2  501    0 -0.97623733776E+02 -0.12964772148E+03 -0.96560132851E+03  0.97914495898E+03  0.00000000000E+00 0. -1.
          1    1    1    2  502    0 -0.20525384295E+02 -0.34847681298E+02  0.18090535510E+03  0.18537097884E+03  0.00000000000E+00 0. -1.
         22    1    3    3    0    0  0.12440134839E+03  0.11645378092E+03 -0.30118532248E+03  0.34604880732E+03  0.00000000000E+00 0.  1.
         22    1    3    3    0    0 -0.62522303174E+01  0.48041621857E+02 -0.17094838908E+02  0.51374325610E+02  0.00000000000E+00 0.  1.
</event>
<event>
 7    1  0.6597701E-006  0.7783904E+02  0.7818608E-02  0.1464764E+00
          2   -1    0    0  502    0  0.00000000000E+00  0.00000000000E+00  0.13420319431E+04  0.13420319431E+04  0.00000000000E+00 0. -1.
          1   -1    0    0  501    0 -0.00000000000E+00 -0.00000000000E+00 -0.15173622458E+03  0.15173622458E+03  0.00000000000E+00 0. -1.
         25    2    1    2    0    0  0.44778341193E+02 -0.59789757028E+02  0.93614172734E+03  0.94739985086E+03  0.12500091545E+03 0.  0.
          2    1    1    2  501    0 -0.21389778838E+02  0.74934628080E+02 -0.13518286578E+03  0.15603566363E+03  0.00000000000E+00 0. -1.
          1    1    1    2  502    0 -0.23388562355E+02 -0.15144871051E+02  0.38933685695E+03  0.39033265319E+03  0.00000000000E+00 0. -1.
         22    1    3    3    0    0  0.85376387874E+02 -0.59730091195E+02  0.62601994674E+03  0.63463200764E+03  0.00000000000E+00 0. -1.
         22    1    3    3    0    0 -0.40598046681E+02 -0.59665833916E-01  0.31012178060E+03  0.31276784323E+03  0.00000000000E+00 0. -1.
</event>
<event>
 7    1  0.6597701E-006  0.6273620E+02  0.7818608E-02  0.1406731E+00
          2   -1    0    0  502    0  0.00000000000E+00  0.00000000000E+00  0.36987610572E+02  0.36987610572E+02  0.00000000000E+00 0. -1.
          1   -1    0    0  501    0 -0.00000000000E+00 -0.00000000000E+00 -0.58732779399E+03  0.58732779399E+03  0.00000000000E+00 0. -1.
         25    2    1    2    0    0 -0.23583118179E+01 -0.54637026851E+02 -0.35375379331E+03  0.37915428117E+03  0.12500182522E+03 0.  0.
          2    1    1    2  501    0  0.52452778241E+02  0.10490289509E+02 -0.16067551040E+03  0.16934568126E+03  0.00000000000E+00 0. -1.
          1    1    1    2  502    0 -0.50094466423E+02  0.44146737342E+02 -0.35910879701E+02  0.75815442128E+02  0.00000000000E+00 0. -1.
         22    1    3    3    0    0 -0.63087851763E+02 -0.35309591745E+02 -0.20266634316E+03  0.21517548875E+03  0.00000000000E+00 0.  1.
         22    1    3    3    0    0  0.60729539945E+02 -0.19327435105E+02 -0.15108745016E+03  0.16397879242E+03  0.00000000000E+00 0.  1.
</event>
<event>
 7    1  0.7869081E-006  0.4951459E+02  0.7818608E-02  0.1458214E+00
          2   -1    0    0  502    0  0.00000000000E+00  0.00000000000E+00  0.10374315572E+04  0.10374315572E+04  0.00000000000E+00 0. -1.
          1   -1    0    0  501    0 -0.00000000000E+00 -0.00000000000E+00 -0.10020464489E+04  0.10020464489E+04  0.00000000000E+00 0. -1.
         25    2    1    2    0    0  0.45386124634E+02 -0.38953643462E+01 -0.66520074501E+02  0.14874470563E+03  0.12499997188E+03 0.  0.
          2    1    1    2  501    0 -0.23293608540E+02  0.44166489621E+02 -0.89318696507E+03  0.89458159246E+03  0.00000000000E+00 0. -1.
          1    1    1    2  502    0 -0.22092516093E+02 -0.40271125275E+02  0.99509214786E+03  0.99615170809E+03  0.00000000000E+00 0. -1.
         22    1    3    3    0    0  0.56032662425E+01 -0.83470761710E+01  0.36690431247E+02  0.38042844508E+02  0.00000000000E+00 0. -1.
         22    1    3    3    0    0  0.39782858391E+02  0.44517118248E+01 -0.10321050575E+03  0.11070186113E+03  0.00000000000E+00 0. -1.
</event>
<event>
 7    1  0.6597701E-006  0.1376629E+03  0.7818608E-02  0.1285518E+00
          2   -1    0    0  502    0  0.00000000000E+00  0.00000000000E+00  0.10709433805E+04  0.10709433805E+04  0.00000000000E+00 0. -1.
          1   -1    0    0  501    0 -0.00000000000E+00 -0.00000000000E+00 -0.25501207307E+03  0.25501207307E+03  0.00000000000E+00 0. -1.
         25    2    1    2    0    0 -0.14630937140E+03 -0.31262598216E+02  0.15307353051E+03  0.24787116071E+03  0.12499929745E+03 0.  0.
          2    1    1    2  501    0  0.10650185036E+03  0.87788066430E+02 -0.18310766912E+03  0.22929851118E+03  0.00000000000E+00 0. -1.
          1    1    1    2  502    0  0.39807521039E+02 -0.56525468214E+02  0.84596544608E+03  0.84878578172E+03  0.00000000000E+00 0. -1.
         22    1    3    3    0    0 -0.73548810976E+02  0.46807820751E+02  0.56078273895E+02  0.10365892380E+03  0.00000000000E+00 0.  1.
         22    1    3    3    0    0 -0.72760560426E+02 -0.78070418968E+02  0.96995256616E+02  0.14421223692E+03  0.00000000000E+00 0.  1.
</event>
<event>
 7    1  0.6597701E-006  0.1481899E+03  0.7818608E-02  0.1404719E+00
          2   -1    0    0  502    0  0.00000000000E+00  0.00000000000E+00  0.49577825991E+03  0.49577825991E+03  0.00000000000E+00 0. -1.
          1   -1    0    0  501    0 -0.00000000000E+00 -0.00000000000E+00 -0.67696093401E+03  0.67696093401E+03  0.00000000000E+00 0. -1.
         25    2    1    2    0    0 -0.14156195580E+03 -0.68990794357E+02 -0.27648014663E+03  0.34185627265E+03  0.12499969052E+03 0.  0.
          2    1    1    2  501    0  0.13684559344E+03  0.46473179963E+02 -0.35328937893E+03  0.38170650789E+03  0.00000000000E+00 0. -1.
          1    1    1    2  502    0  0.47163623565E+01  0.22517614393E+02  0.44858685147E+03  0.44917641338E+03  0.00000000000E+00 0. -1.
         22    1    3    3    0    0 -0.99525549091E+02 -0.19988810570E+02 -0.25393056700E+03  0.27346959671E+03  0.00000000000E+00 0.  1.
         22    1    3    3    0    0 -0.42036406708E+02 -0.49001983786E+02 -0.22549579638E+02  0.68386675937E+02  0.00000000000E+00 0.  1.
</event>
<event>
 7    1  0.6597701E-006  0.1565858E+03  0.7818608E-02  0.1280048E+00
          2   -1    0    0  502    0  0.00000000000E+00  0.00000000000E+00  0.25399997174E+03  0.25399997174E+03  0.00000000000E+00 0. -1.
          1   -1    0    0  501    0 -0.00000000000E+00 -0.00000000000E+00 -0.60275474868E+03  0.60275474868E+03  0.00000000000E+00 0. -1.
         25    2    1    2    0    0  0.96574073420E+02  0.41954845405E+02  0.98995700271E+02  0.19107789998E+03  0.12499541784E+03 0.  0.
          2    1    1    2  501    0 -0.12796123205E+03 -0.97745389206E+02 -0.53429441381E+03  0.55803114487E+03  0.00000000000E+00 0. -1.
          1    1    1    2  502    0  0.31387158626E+02  0.55790543801E+02  0.86543936605E+02  0.10764567556E+03  0.00000000000E+00 0. -1.
         22    1    3    3    0    0  0.20340446488E+02 -0.54007932610E+01  0.99123579257E+02  0.10133304642E+03  0.00000000000E+00 0. -1.
         22    1    3    3    0    0  0.76233626933E+02  0.47355638666E+02 -0.12787898644E+00  0.89744853567E+02  0.00000000000E+00 0. -1.
</event>
<event>
 7    1  0.6597701E-006  0.8139850E+02  0.7818608E-02  0.1395365E+00
          2   -1    0    0  502    0  0.00000000000E+00  0.00000000000E+00  0.32202648244E+04  0.32202648244E+04  0.00000000000E+00 0. -1.
          1   -1    0    0  501    0 -0.00000000000E+00 -0.00000000000E+00 -0.98781501653E+02  0.98781501653E+02  0.00000000000E+00 0. -1.
         25    2    1    2    0    0  0.61608659450E+02 -0.10576177770E+03  0.48023246685E+03  0.51110559124E+03  0.12499809051E+03 0.  0.
          2    1    1    2  501    0 -0.50180776504E+02  0.62129995668E+02 -0.63981627206E+02  0.10233227894E+03  0.00000000000E+00 0. -1.
          1    1    1    2  502    0 -0.11427882946E+02  0.43631782034E+02  0.27052324831E+04  0.27056084559E+04  0.00000000000E+00 0. -1.
         22    1    3    3    0    0  0.44018723739E+02 -0.11784225779E+03  0.24979213193E+03  0.27967937882E+03  0.00000000000E+00 0. -1.
         22    1    3    3    0    0  0.17589935711E+02  0.12080480083E+02  0.23044033492E+03  0.23142621242E+03  0.00000000000E+00 0. -1.
</event>
<event>
 7    1  0.6597701E-006  0.2231969E+03  0.7818608E-02  0.1191142E+00
          2   -1    0    0  502    0  0.00000000000E+00  0.00000000000E+00  0.30415594511E+03  0.30415594511E+03  0.00000000000E+00 0. -1.
          1   -1    0    0  501    0 -0.00000000000E+00 -0.00000000000E+00 -0.66107501696E+03  0.66107501696E+03  0.00000000000E+00 0. -1.
         25    2    1    2    0    0 -0.47695903773E+02  0.21601406352E+03 -0.38149685868E+03  0.45837047666E+03  0.12500666308E+03 0.  0.
          2    1    1    2  501    0 -0.10177384182E+03 -0.45886841151E+02 -0.17328753595E+03  0.20613608900E+03  0.00000000000E+00 0. -1.
          1    1    1    2  502    0  0.14946974559E+03 -0.17012722237E+03  0.19786532279E+03  0.30072439641E+03  0.00000000000E+00 0. -1.
         22    1    3    3    0    0 -0.74841181239E+02  0.18572554679E+03 -0.36102390059E+03  0.41283584866E+03  0.00000000000E+00 0.  1.
         22    1    3    3    0    0  0.27145277465E+02  0.30288516723E+02 -0.20472958089E+02  0.45534627998E+02  0.00000000000E+00 0.  1.
</event>
<event>
 7    1  0.6597701E-006  0.5469230E+02  0.7818608E-02  0.1462450E+00
          2   -1    0    0  502    0  0.00000000000E+00  0.00000000000E+00  0.90547079113E+03  0.90547079113E+03  0.00000000000E+00 0. -1.
          1   -1    0    0  501    0 -0.00000000000E+00 -0.00000000000E+00 -0.42879286273E+03  0.42879286273E+03  0.00000000000E+00 0. -1.
         25    2    1    2    0    0 -0.68142489843E+02 -0.61524771694E+02  0.10606567273E+03  0.18787558608E+03  0.12497444722E+03 0.  0.
          2    1    1    2  501    0  0.46894116990E+02  0.27252244837E+02 -0.38545197153E+03  0.38924923303E+03  0.00000000000E+00 0. -1.
          1    1    1    2  502    0  0.21248372853E+02  0.34272526857E+02  0.75606422720E+03  0.75713883475E+03  0.00000000000E+00 0. -1.
         22    1    3    3    0    0  0.12278566091E+02 -0.27817313417E+02 -0.18671124576E+02  0.35681605960E+02  0.00000000000E+00 0.  1.
         22    1    3    3    0    0 -0.80421055933E+02 -0.33707458277E+02  0.12473679731E+03  0.15219398012E+03  0.00000000000E+00 0.  1.
</event>
<event>
 7    1  0.6597701E-006  0.4472765E+02  0.7818608E-02  0.1516050E+00
          2   -1    0    0  502    0  0.00000000000E+00  0.00000000000E+00  0.54795233146E+02  0.54795233146E+02  0.00000000000E+00 0. -1.
          1   -1    0    0  501    0 -0.00000000000E+00 -0.00000000000E+00 -0.64248892566E+03  0.64248892566E+03  0.00000000000E+00 0. -1.
         25    2    1    2    0    0 -0.23160250570E+02  0.64052545910E+02 -0.27116591270E+03  0.30626170951E+03  0.12500462655E+03 0.  0.
          2    1    1    2  501    0 -0.79072561672E+01 -0.32991935179E+02 -0.33967577096E+03  0.34136581824E+03  0.00000000000E+00 0. -1.
          1    1    1    2  502    0  0.31067506737E+02 -0.31060610731E+02  0.23147991143E+02  0.49656631055E+02  0.00000000000E+00 0. -1.
         22    1    3    3    0    0  0.25031044359E+02  0.85830807757E+02 -0.16584044855E+03  0.18840524175E+03  0.00000000000E+00 0. -1.
         22    1    3    3    0    0 -0.48191294929E+02 -0.21778261846E+02 -0.10532546415E+03  0.11785646776E+03  0.00000000000E+00 0. -1.
</event>
<event>
 7    1  0.6597701E-006  0.1546928E+03  0.7818608E-02  0.1246771E+00
          2   -1    0    0  502    0  0.00000000000E+00  0.00000000000E+00  0.35038191310E+03  0.35038191310E+03  0.00000000000E+00 0. -1.
          1   -1    0    0  501    0 -0.00000000000E+00 -0.00000000000E+00 -0.35273187895E+03  0.35273187895E+03  0.00000000000E+00 0. -1.
         25    2    1    2    0    0 -0.39236569359E+02 -0.22496388898E+03  0.62077071737E+02  0.26764346467E+03  0.12502480403E+03 0.  0.
          2    1    1    2  501    0  0.50863088228E+02  0.13601472899E+03 -0.21544734738E+03  0.25981651168E+03  0.00000000000E+00 0. -1.
          1    1    1    2  502    0 -0.11626518869E+02  0.88949159993E+02  0.15102030980E+03  0.17565381572E+03  0.00000000000E+00 0. -1.
         22    1    3    3    0    0 -0.14899917256E+02 -0.20444430958E+03  0.91329124597E+02  0.22441143521E+03  0.00000000000E+00 0.  1.
         22    1    3    3    0    0 -0.24336652103E+02 -0.20519579404E+02 -0.29252052860E+02  0.43232029457E+02  0.00000000000E+00 0.  1.
</event>
<event>
 7    1  0.6597701E-006  0.7387418E+02  0.7818608E-02  0.1438490E+00
          2   -1    0    0  502    0  0.00000000000E+00  0.00000000000E+00  0.12231360501E+04  0.12231360501E+04  0.00000000000E+00 0. -1.
          1   -1    0    0  501    0 -0.00000000000E+00 -0.00000000000E+00 -0.33686250354E+03  0.33686250354E+03  0.00000000000E+00 0. -1.
         25    2    1    2    0    0  0.71626743161E+02 -0.69994688800E+02  0.53109756665E+03  0.55472489056E+03  0.12500172844E+03 0.  0.
          2    1    1    2  501    0 -0.36517780442E+02  0.64018058291E+02 -0.32039603909E+03  0.32876356541E+03  0.00000000000E+00 0. -1.
          1    1    1    2  502    0 -0.35108962719E+02  0.59766305083E+01  0.67557201900E+03  0.67651009765E+03  0.00000000000E+00 0. -1.
         22    1    3    3    0    0 -0.27563316503E+02 -0.51549647706E+02  0.22267895234E+03  0.23022384414E+03  0.00000000000E+00 0.  1.
         22    1    3    3    0    0  0.99190059663E+02 -0.18445041094E+02  0.30841861430E+03  0.32450104642E+03  0.00000000000E+00 0.  1.
</event>
<event>
 7    1  0.6597701E-006  0.1192820E+03  0.7818608E-02  0.1419386E+00
          2   -1    0    0  502    0  0.00000000000E+00  0.00000000000E+00  0.10447363175E+04  0.10447363175E+04  0.00000000000E+00 0. -1.
          1   -1    0    0  501    0 -0.00000000000E+00 -0.00000000000E+00 -0.18098499778E+03  0.18098499778E+03  0.00000000000E+00 0. -1.
         25    2    1    2    0    0 -0.14009674220E+03  0.12340218710E+02  0.95226841901E+02  0.21088572612E+03  0.12500103955E+03 0.  0.
          2    1    1    2  501    0  0.11534077923E+03 -0.62270354381E+01 -0.95841933396E+02  0.15009312949E+03  0.00000000000E+00 0. -1.
          1    1    1    2  502    0  0.24755962974E+02 -0.61131832719E+01  0.86436641119E+03  0.86474245964E+03  0.00000000000E+00 0. -1.
         22    1    3    3    0    0 -0.13308850237E+03  0.47599298743E+02  0.43486660521E+02  0.14788283318E+03  0.00000000000E+00 0.  1.
         22    1    3    3    0    0 -0.70082398291E+01 -0.35259080033E+02  0.51740181379E+02  0.63002892945E+02  0.00000000000E+00 0.  1.
</event>
<event>
 7    1  0.6597701E-006  0.2565281E+02  0.7818608E-02  0.1689373E+00
          2   -1    0    0  502    0  0.00000000000E+00  0.00000000000E+00  0.16277118930E+04  0.16277118930E+04  0.00000000000E+00 0. -1.
          1   -1    0    0  501    0 -0.00000000000E+00 -0.00000000000E+00 -0.91822967336E+03  0.91822967336E+03  0.00000000000E+00 0. -1.
         25    2    1    2    0    0 -0.12298104558E+02 -0.22297686991E+01 -0.17558222719E+03  0.21589286742E+03  0.12499758579E+03 0.  0.
          2    1    1    2  501    0 -0.63362887687E+01  0.19873930799E+02 -0.72223911649E+03  0.72254028474E+03  0.00000000000E+00 0. -1.
          1    1    1    2  502    0  0.18634393327E+02 -0.17644162100E+02  0.16073035633E+04  0.16075084142E+04  0.00000000000E+00 0. -1.
         22    1    3    3    0    0 -0.41248819874E+02  0.48166466223E+02 -0.11865416643E+03  0.13453729900E+03  0.00000000000E+00 0.  1.
         22    1    3    3    0    0  0.28950715316E+02 -0.50396234922E+02 -0.56928060756E+02  0.81355568421E+02  0.00000000000E+00 0.  1.
</event>
<event>
 7    1  0.6597701E-006  0.4498499E+02  0.7818608E-02  0.1484073E+00
          2   -1    0    0  502    0  0.00000000000E+00  0.00000000000E+00  0.29379484118E+03  0.29379484118E+03  0.00000000000E+00 0. -1.
          1   -1    0    0  501    0 -0.00000000000E+00 -0.00000000000E+00 -0.13119726425E+04  0.13119726425E+04  0.00000000000E+00 0. -1.
         25    2    1    2    0    0  0.31774149688E+02  0.84186920226E+01  0.55458480820E+02  0.14064626952E+03  0.12500103628E+03 0.  0.
          2    1    1    2  501    0 -0.95532741290E+01 -0.44084532870E+02 -0.12667173848E+04  0.12675202736E+04  0.00000000000E+00 0. -1.
          1    1    1    2  502    0 -0.22220875559E+02  0.35665840847E+02  0.19308110264E+03  0.19760094056E+03  0.00000000000E+00 0. -1.
         22    1    3    3    0    0 -0.39632380732E+02  0.15805116508E+02  0.54028087632E+02  0.68844473732E+02  0.00000000000E+00 0. -1.
         22    1    3    3    0    0  0.71406530420E+02 -0.73864244852E+01  0.14303931877E+01  0.71801795785E+02  0.00000000000E+00 0. -1.
</event>
<event>
 7    1  0.6597701E-006  0.1149046E+03  0.7818608E-02  0.1298923E+00
          2   -1    0    0  502    0  0.00000000000E+00  0.00000000000E+00  0.18039188490E+04  0.18039188490E+04  0.00000000000E+00 0. -1.
          1   -1    0    0  501    0 -0.00000000000E+00 -0.00000000000E+00 -0.56918507709E+03  0.56918507709E+03  0.00000000000E+00 0. -1.
         25    2    1    2    0    0 -0.17161151454E+03 -0.50191095066E+02 -0.12063294483E+03  0.24930157442E+03  0.12501723755E+03 0.  0.
          2    1    1    2  501    0  0.72736883585E+02 -0.71653602456E+01 -0.37884330266E+03  0.38582929463E+03  0.00000000000E+00 0. -1.
          1    1    1    2  502    0  0.98874630954E+02  0.57356455311E+02  0.17342100194E+04  0.17379730571E+04  0.00000000000E+00 0. -1.
         22    1    3    3    0    0 -0.18330551174E+02  0.26146885042E+02 -0.59409876157E+02  0.67447773044E+02  0.00000000000E+00 0. -1.
         22    1    3    3    0    0 -0.15328096337E+03 -0.76337980108E+02 -0.61223068669E+02  0.18185380137E+03  0.00000000000E+00 0. -1.
</event>
<event>
 7    1  0.6597701E-006  0.8444435E+02  0.7818608E-02  0.1322689E+00
          2   -1    0    0  502    0  0.00000000000E+00  0.00000000000E+00  0.94945432575E+03  0.94945432575E+03  0.00000000000E+00 0. -1.
          1   -1    0    0  501    0 -0.00000000000E+00 -0.00000000000E+00 -0.79980609416E+03  0.79980609416E+03  0.00000000000E+00 0. -1.
         25    2    1    2    0    0 -0.13284156653E+03 -0.11518362788E+02  0.22105170673E+03  0.28682446869E+03  0.12499945725E+03 0.  0.
          2    1    1    2  501    0  0.64745692312E+02  0.53849618527E+02 -0.76228232955E+03  0.76691990196E+03  0.00000000000E+00 0. -1.
          1    1    1    2  502    0  0.68095874220E+02 -0.42331255738E+02  0.69087885441E+03  0.69551604925E+03  0.00000000000E+00 0. -1.
         22    1    3    3    0    0 -0.10004757402E+03 -0.50081908874E+02  0.20530197978E+03  0.23380893389E+03  0.00000000000E+00 0. -1.
         22    1    3    3    0    0 -0.32793992517E+02  0.38563546086E+02  0.15749726945E+02  0.53015534806E+02  0.00000000000E+00 0. -1.
</event>
<event>
 7    1  0.6597701E-006  0.1041906E+03  0.7818608E-02  0.1424360E+00
          2   -1    0    0  502    0  0.00000000000E+00  0.00000000000E+00  0.53712617458E+03  0.53712617458E+03  0.00000000000E+00 0. -1.
          1   -1    0    0  501    0 -0.00000000000E+00 -0.00000000000E+00 -0.43932909884E+03  0.43932909884E+03  0.00000000000E+00 0. -1.
         25    2    1    2    0    0  0.12146336280E+02  0.90533299261E+02  0.88245853950E+02  0.17820157865E+03  0.12499864052E+03 0.  0.
          2    1    1    2  501    0  0.26723755683E+02  0.86869328947E+01 -0.38680403829E+03  0.38782339532E+03  0.00000000000E+00 0. -1.
          1    1    1    2  502    0 -0.38870091963E+02 -0.99220232155E+02  0.39635526008E+03  0.41043029946E+03  0.00000000000E+00 0. -1.
         22    1    3    3    0    0  0.24486446494E+02 -0.24031542148E+02  0.21768698297E+01  0.34377897582E+02  0.00000000000E+00 0.  1.
         22    1    3    3    0    0 -0.12340110214E+02  0.11456484141E+03  0.86068984120E+02  0.14382368106E+03  0.00000000000E+00 0.  1.
</event>
<event>
 7    1  0.6597701E-006  0.3704774E+02  0.7818608E-02  0.1613384E+00
          2   -1    0    0  502    0  0.00000000000E+00  0.00000000000E+00  0.94151531385E+03  0.94151531385E+03  0.00000000000E+00 0. -1.
          1   -1    0    0  501    0 -0.00000000000E+00 -0.00000000000E+00 -0.80223183189E+03  0.80223183189E+03  0.00000000000E+00 0. -1.
         25    2    1    2    0    0 -0.84300792552E+01  0.40912010031E+02  0.74835065084E+02  0.15155634133E+03  0.12499671527E+03 0.  0.
          2    1    1    2  501    0  0.25556498869E+02 -0.26830324672E+02 -0.76327329457E+03  0.76417218162E+03  0.00000000000E+00 0. -1.
          1    1    1    2  502    0 -0.17126419614E+02 -0.14081685358E+02  0.82772171144E+03  0.82801862280E+03  0.00000000000E+00 0. -1.
         22    1    3    3    0    0 -0.65755848842E+01  0.75500048377E+02  0.86503662372E+02  0.11500599648E+03  0.00000000000E+00 0.  1.
         22    1    3    3    0    0 -0.18544943711E+01 -0.34588038347E+02 -0.11668597288E+02  0.36550344851E+02  0.00000000000E+00 0.  1.
</event>
<event>
 7    1  0.6597701E-006  0.1855069E+03  0.7818608E-02  0.1354915E+00
          2   -1    0    0  502    0  0.00000000000E+00  0.00000000000E+00  0.13155205385E+04  0.13155205385E+04  0.00000000000E+00 0. -1.
          1   -1    0    0  501    0 -0.00000000000E+00 -0.00000000000E+00 -0.22138168596E+04  0.22138168596E+04  0.00000000000E+00 0. -1.
         25    2    1    2    0    0 -0.16887958220E+03  0.12606756360E+03  0.25155062626E+03  0.35116370643E+03  0.12499954908E+03 0.  0.
          2    1    1    2  501    0  0.14236802406E+03 -0.11841694654E+03 -0.21598600111E+04  0.21677837750E+04  0.00000000000E+00 0. -1.
          1    1    1    2  502    0  0.26511558139E+02 -0.76506170566E+01  0.10100130638E+04  0.10103899166E+04  0.00000000000E+00 0. -1.
         22    1    3    3    0    0 -0.26727554468E+01  0.59634522719E+02  0.31458973763E+02  0.67476565945E+02  0.00000000000E+00 0. -1.
         22    1    3    3    0    0 -0.16620682676E+03  0.66433040877E+02  0.22009165250E+03  0.28368714049E+03  0.00000000000E+00 0. -1.
</event>
<event>
 7    1  0.6597701E-006  0.7009715E+02  0.7818608E-02  0.1507498E+00
          2   -1    0    0  502    0  0.00000000000E+00  0.00000000000E+00  0.21152004349E+03  0.21152004349E+03  0.00000000000E+00 0. -1.
          1   -1    0    0  501    0 -0.00000000000E+00 -0.00000000000E+00 -0.42357675865E+03  0.42357675865E+03  0.00000000000E+00 0. -1.
         25    2    1    2    0    0 -0.43676707274E+02 -0.76110160974E+02 -0.25101139336E+02  0.15479444135E+03  0.12502335988E+03 0.  0.
          2    1    1    2  501    0  0.23588258748E+02  0.65040599171E+02 -0.32911299622E+03  0.33630648190E+03  0.00000000000E+00 0. -1.
          1    1    1    2  502    0  0.20088448526E+02  0.11069561803E+02  0.14215742040E+03  0.14399587889E+03  0.00000000000E+00 0. -1.
         22    1    3    3    0    0 -0.38321142543E+02  0.12250874293E+01  0.38639490801E+02  0.54433638996E+02  0.00000000000E+00 0.  1.
         22    1    3    3    0    0 -0.53555647303E+01 -0.77335248403E+02 -0.63740630137E+02  0.10036080235E+03  0.00000000000E+00 0.  1.
</event>
<event>
 7    1  0.6597701E-006  0.1386636E+03  0.7818608E-02  0.1286680E+00
          2   -1    0    0  502    0  0.00000000000E+00  0.00000000000E+00  0.12262036338E+04  0.12262036338E+04  0.00000000000E+00 0. -1.
          1   -1    0    0  501    0 -0.00000000000E+00 -0.00000000000E+00 -0.35059274658E+03  0.35059274658E+03  0.00000000000E+00 0. -1.
         25    2    1    2    0    0  0.29081390610E+02 -0.19435691811E+03  0.19063272576E+01  0.23291054310E+03  0.12499339226E+03 0.  0.
          2    1    1    2  501    0 -0.88033466433E+01  0.12956675983E+03 -0.21601872304E+03  0.25204986187E+03  0.00000000000E+00 0. -1.
          1    1    1    2  502    0 -0.20278043967E+02  0.64790158280E+02  0.10897232830E+04  0.10918359754E+04  0.00000000000E+00 0. -1.
         22    1    3    3    0    0  0.50977275350E+02 -0.19280234209E+03  0.25070927136E+02  0.20099745547E+03  0.00000000000E+00 0.  1.
         22    1    3    3    0    0 -0.21895884740E+02 -0.15545760253E+01 -0.23164599878E+02  0.31913087639E+02  0.00000000000E+00 0.  1.
</event>
<event>
 7    1  0.6597701E-006  0.7099266E+02  0.7818608E-02  0.1405089E+00
          2   -1    0    0  502    0  0.00000000000E+00  0.00000000000E+00  0.21944226927E+03  0.21944226927E+03  0.00000000000E+00 0. -1.
          1   -1    0    0  501    0 -0.00000000000E+00 -0.00000000000E+00 -0.44291988265E+03  0.44291988265E+03  0.00000000000E+00 0. -1.
         25    2    1    2    0    0  0.38175253082E+02  0.11007785977E+03 -0.22579335347E+03  0.28317603971E+03  0.12502618059E+03 0.  0.
          2    1    1    2  501    0 -0.75950222518E+01 -0.47277565062E+02 -0.17878261482E+03  0.18508396981E+03  0.00000000000E+00 0. -1.
          1    1    1    2  502    0 -0.30580230831E+02 -0.62800294707E+02  0.18109835491E+03  0.19410214240E+03  0.00000000000E+00 0. -1.
         22    1    3    3    0    0 -0.35039428695E+02  0.71665832524E+02 -0.67119151090E+02  0.10425321845E+03  0.00000000000E+00 0.  1.
         22    1    3    3    0    0  0.73214681777E+02  0.38412027245E+02 -0.15867420238E+03  0.17892282125E+03  0.00000000000E+00 0.  1.
</event>
<event>
 7    1  0.6597701E-006  0.3112225E+02  0.7818608E-02  0.1622675E+00
          2   -1    0    0  502    0  0.00000000000E+00  0.00000000000E+00  0.14492185616E+04  0.14492185616E+04  0.00000000000E+00 0. -1.
          1   -1    0    0  501    0 -0.00000000000E+00 -0.00000000000E+00 -0.95729484114E+02  0.95729484114E+02  0.00000000000E+00 0. -1.
         25    2    1    2    0    0  0.69824966617E+01  0.54813086395E+02  0.11219999468E+03  0.17682352150E+03  0.12499795699E+03 0.  0.
          2    1    1    2  501    0 -0.75270996655E+01 -0.23830066012E+02 -0.60764231538E+02  0.65702519814E+02  0.00000000000E+00 0. -1.
          1    1    1    2  502    0  0.54460300383E+00 -0.30983020383E+02  0.13020533143E+04  0.13024220044E+04  0.00000000000E+00 0. -1.
         22    1    3    3    0    0 -0.43015924902E+02  0.10861389449E+02  0.99650798389E+02  0.10908080122E+03  0.00000000000E+00 0.  1.
         22    1    3    3    0    0  0.49998421564E+02  0.43951696946E+02  0.12549196292E+02  0.67742720280E+02  0.00000000000E+00 0.  1.
</event>
<event>
 7    1  0.6597701E-006  0.8810824E+02  0.7818608E-02  0.1336652E+00
          2   -1    0    0  502    0  0.00000000000E+00  0.00000000000E+00  0.13103310476E+03  0.13103310476E+03  0.00000000000E+00 0. -1.
          1   -1    0    0  501    0 -0.00000000000E+00 -0.00000000000E+00 -0.35620865163E+03  0.35620865163E+03  0.00000000000E+00 0. -1.
         25    2    1    2    0    0 -0.47091433698E+02  0.83308438074E+02  0.27621815443E+02  0.15983216593E+03  0.12500183036E+03 0.  0.
          2    1    1    2  501    0  0.85280466088E+02 -0.27092823917E+02 -0.24274231158E+03  0.25870950666E+03  0.00000000000E+00 0. -1.
          1    1    1    2  502    0 -0.38189032390E+02 -0.56215614158E+02 -0.10055050726E+02  0.68700083807E+02  0.00000000000E+00 0. -1.
         22    1    3    3    0    0  0.15928608090E+02  0.44510035870E+01  0.53187390318E+02  0.55699465684E+02  0.00000000000E+00 0.  1.
         22    1    3    3    0    0 -0.63020041788E+02  0.78857434487E+02 -0.25565574875E+02  0.10413270024E+03  0.00000000000E+00 0.  1.
</event>
<event>
 7    1  0.6597701E-006  0.2409929E+03  0.7818608E-02  0.1332464E+00
          2   -1    0    0  502    0  0.00000000000E+00  0.00000000000E+00  0.14640773924E+04  0.14640773924E+04  0.00000000000E+00 0. -1.
          1   -1    0    0  501    0 -0.00000000000E+00 -0.00000000000E+00 -0.15180904156E+04  0.15180904156E+04  0.00000000000E+00 0. -1.
         25    2    1    2    0    0  0.19129960994E+02  0.23335611022E+03  0.30030723261E+03  0.40079141997E+03  0.12501319441E+03 0.  0.
          2    1    1    2  501    0  0.54323076822E+01 -0.24116055239E+03 -0.14577864316E+04  0.14776092860E+04  0.00000000000E+00 0. -1.
          1    1    1    2  502    0 -0.24562268676E+02  0.78044421718E+01  0.11034661758E+04  0.11037671020E+04  0.00000000000E+00 0. -1.
         22    1    3    3    0    0  0.10081599180E+02  0.23832244955E+03  0.30678295412E+03  0.38860649703E+03  0.00000000000E+00 0.  1.
         22    1    3    3    0    0  0.90483618144E+01 -0.49663393249E+01 -0.64757215090E+01  0.12184922933E+02  0.00000000000E+00 0.  1.
</event>
<event>
 7    1  0.6597701E-006  0.1039405E+03  0.7818608E-02  0.1387283E+00
          2   -1    0    0  502    0  0.00000000000E+00  0.00000000000E+00  0.96754003186E+03  0.96754003186E+03  0.00000000000E+00 0. -1.
          1   -1    0    0  501    0 -0.00000000000E+00 -0.00000000000E+00 -0.30954118632E+03  0.30954118632E+03  0.00000000000E+00 0. -1.
         25    2    1    2    0    0  0.68874105832E+02 -0.51910334177E+02  0.16782439502E+03  0.22633435919E+03  0.12499555726E+03 0.  0.
          2    1    1    2  501    0 -0.10034049646E+03  0.31169560909E+02 -0.26995607401E+03  0.28968265163E+03  0.00000000000E+00 0. -1.
          1    1    1    2  502    0  0.31466390625E+02  0.20740773267E+02  0.76013052453E+03  0.76106420737E+03  0.00000000000E+00 0. -1.
         22    1    3    3    0    0  0.97327373325E+02 -0.40853145551E+02  0.77384051481E+02  0.13088120004E+03  0.00000000000E+00 0.  1.
         22    1    3    3    0    0 -0.28453267492E+02 -0.11057188626E+02  0.90440343544E+02  0.95453159149E+02  0.00000000000E+00 0.  1.
</event>
<event>
 7    1  0.6597701E-006  0.5497935E+02  0.7818608E-02  0.1434700E+00
          2   -1    0    0  502    0  0.00000000000E+00  0.00000000000E+00  0.14451539768E+04  0.14451539768E+04  0.00000000000E+00 0. -1.
          1   -1    0    0  501    0 -0.00000000000E+00 -0.00000000000E+00 -0.21690707121E+02  0.21690707121E+02  0.00000000000E+00 0. -1.
         25    2    1    2    0    0 -0.15749996661E+02 -0.43413130892E+02  0.42194255285E+03  0.44248690106E+03  0.12500550937E+03 0.  0.
          2    1    1    2  501    0 -0.39735461257E+02  0.29072158012E+02  0.46833424528E+02  0.67951945563E+02  0.00000000000E+00 0. -1.
          1    1    1    2  502    0  0.55485457919E+02  0.14340972880E+02  0.95468729229E+03  0.95640583729E+03  0.00000000000E+00 0. -1.
         22    1    3    3    0    0  0.13638285432E+02  0.74486167134E+01  0.34661385673E+03  0.34696203019E+03  0.00000000000E+00 0. -1.
         22    1    3    3    0    0 -0.29388282093E+02 -0.50861747605E+02  0.75328696124E+02  0.95524870864E+02  0.00000000000E+00 0. -1.
</event>
<event>
 7    1  0.6597701E-006  0.4829567E+02  0.7818608E-02  0.1524794E+00
          2   -1    0    0  502    0  0.00000000000E+00  0.00000000000E+00  0.19763259808E+04  0.19763259808E+04  0.00000000000E+00 0. -1.
          1   -1    0    0  501    0 -0.00000000000E+00 -0.00000000000E+00 -0.87931685785E+02  0.87931685785E+02  0.00000000000E+00 0. -1.
         25    2    1    2    0    0  0.23533268394E+02 -0.71949886051E+02  0.43279344599E+03  0.45679923517E+03  0.12499909415E+03 0.  0.
          2    1    1    2  501    0 -0.22289258950E+02  0.42339417970E+02 -0.68232267832E+02  0.83337145092E+02  0.00000000000E+00 0. -1.
          1    1    1    2  502    0 -0.12440094440E+01  0.29610468080E+02  0.15238331168E+04  0.15241212863E+04  0.00000000000E+00 0. -1.
         22    1    3    3    0    0  0.76361042004E+01 -0.73422928650E+02  0.10354790441E+03  0.12716683942E+03  0.00000000000E+00 0.  1.
         22    1    3    3    0    0  0.15897164193E+02  0.14730425997E+01  0.32924554157E+03  0.32963239575E+03  0.00000000000E+00 0.  1.
</event>
<event>
 7    1  0.6597701E-006  0.7451190E+02  0.7818608E-02  0.1375304E+00
          2   -1    0    0  502    0  0.00000000000E+00  0.00000000000E+00  0.24155789588E+03  0.24155789588E+03  0.00000000000E+00 0. -1.
          1   -1    0    0  501    0 -0.00000000000E+00 -0.00000000000E+00 -0.48339798146E+03  0.48339798146E+03  0.00000000000E+00 0. -1.
         25    2    1    2    0    0 -0.81680640814E+02  0.11859597257E+01 -0.29857678466E+03  0.33383132717E+03  0.12498849979E+03 0.  0.
          2    1    1    2  501    0  0.56984221169E+02 -0.53616266743E+02 -0.15390691622E+03  0.17265353858E+03  0.00000000000E+00 0. -1.
          1    1    1    2  502    0  0.24696419645E+02  0.52430307017E+02  0.21064361530E+03  0.21847101159E+03  0.00000000000E+00 0. -1.
         22    1    3    3    0    0 -0.69237777496E+02  0.51819921615E+02 -0.24153138922E+03  0.25654743438E+03  0.00000000000E+00 0. -1.
         22    1    3    3    0    0 -0.12442863318E+02 -0.50633961889E+02 -0.57045395437E+02  0.77283892790E+02  0.00000000000E+00 0. -1.
</event>
<event>
 7    1  0.6597701E-006  0.1167601E+03  0.7818608E-02  0.1255984E+00
          2   -1    0    0  502    0  0.00000000000E+00  0.00000000000E+00  0.74878794555E+02  0.74878794555E+02  0.00000000000E+00 0. -1.
          1   -1    0    0  501    0 -0.00000000000E+00 -0.00000000000E+00 -0.98467762783E+03  0.98467762783E+03  0.00000000000E+00 0. -1.
         25    2    1    2    0    0 -0.39750849283E+02  0.93925054029E+02 -0.33448214436E+03  0.37135585384E+03  0.12499927797E+03 0.  0.
          2    1    1    2  501    0 -0.85935754629E+02 -0.66109983098E+02 -0.54535993582E+03  0.55603322148E+03  0.00000000000E+00 0. -1.
          1    1    1    2  502    0  0.12568660391E+03 -0.27815070931E+02 -0.29956753092E+02  0.13216734706E+03  0.00000000000E+00 0. -1.
         22    1    3    3    0    0 -0.29659055914E+02 -0.26857168883E+02 -0.89144726130E+02  0.97712585243E+02  0.00000000000E+00 0.  1.
         22    1    3    3    0    0 -0.10091793369E+02  0.12078222291E+03 -0.24533741823E+03  0.27364326860E+03  0.00000000000E+00 0.  1.
</event>
<event>
 7    1  0.6597701E-006  0.4001387E+02  0.7818608E-02  0.1539017E+00
          2   -1    0    0  502    0  0.00000000000E+00  0.00000000000E+00  0.85684941058E+03  0.85684941058E+03  0.00000000000E+00 0. -1.
          1   -1    0    0  501    0 -0.00000000000E+00 -0.00000000000E+00 -0.66077863169E+03  0.66077863169E+03  0.00000000000E+00 0. -1.
         25    2    1    2    0    0 -0.17717887811E+02 -0.16108165883E+02 -0.21251081995E+03  0.24770173753E+03  0.12498762186E+03 0.  0.
          2    1    1    2  501    0 -0.29019143485E+01  0.41325782396E+02 -0.42935890179E+03  0.43135288099E+03  0.00000000000E+00 0. -1.
          1    1    1    2  502    0  0.20619802159E+02 -0.25217616513E+02  0.83794050063E+03  0.83857342375E+03  0.00000000000E+00 0. -1.
         22    1    3    3    0    0 -0.29768389809E+02 -0.66559060014E+02 -0.99496128464E+02  0.12335211827E+03  0.00000000000E+00 0. -1.
         22    1    3    3    0    0  0.12050501999E+02  0.50450894132E+02 -0.11301469149E+03  0.12434961926E+03  0.00000000000E+00 0. -1.
</event>
<event>
 7    1  0.6597701E-006  0.4682405E+02  0.7818608E-02  0.1553827E+00
          2   -1    0    0  502    0  0.00000000000E+00  0.00000000000E+00  0.47225685955E+02  0.47225685955E+02  0.00000000000E+00 0. -1.
          1   -1    0    0  501    0 -0.00000000000E+00 -0.00000000000E+00 -0.86383428952E+03  0.86383428952E+03  0.00000000000E+00 0. -1.
         25    2    1    2    0    0  0.24553144664E+02 -0.62864257824E+02 -0.81920805928E+02  0.16398842866E+03  0.12500565774E+03 0.  0.
          2    1    1    2  501    0 -0.27184065035E+02  0.37701982256E+02 -0.71066630177E+03  0.71218467080E+03  0.00000000000E+00 0. -1.
          1    1    1    2  502    0  0.26309203703E+01  0.25162275568E+02 -0.24021495869E+02  0.34886876007E+02  0.00000000000E+00 0. -1.
         22    1    3    3    0    0 -0.24867319602E+02 -0.73653324406E+02 -0.13503773822E+02  0.78902139944E+02  0.00000000000E+00 0.  1.
         22    1    3    3    0    0  0.49420464267E+02  0.10789066582E+02 -0.68417032106E+02  0.85086288721E+02  0.00000000000E+00 0.  1.
</event>
<event>
 7    1  0.6597701E-006  0.2686582E+03  0.7818608E-02  0.1291647E+00
          2   -1    0    0  502    0  0.00000000000E+00  0.00000000000E+00  0.95368042157E+03  0.95368042157E+03  0.00000000000E+00 0. -1.
          1   -1    0    0  501    0 -0.00000000000E+00 -0.00000000000E+00 -0.46826059218E+03  0.46826059218E+03  0.00000000000E+00 0. -1.
         25    2    1    2    0    0  0.24752985847E+03 -0.11140165385E+03  0.29872931716E+03  0.42254781118E+03  0.12500435385E+03 0.  0.
          2    1    1    2  501    0 -0.22944406213E+03  0.13953514570E+03 -0.36141872260E+03  0.45026450846E+03  0.00000000000E+00 0. -1.
          1    1    1    2  502    0 -0.18085796341E+02 -0.28133491850E+02  0.54810923483E+03  0.54912869411E+03  0.00000000000E+00 0. -1.
         22    1    3    3    0    0  0.59642960558E+01  0.17461350735E+02  0.16149824896E+01  0.18522412515E+02  0.00000000000E+00 0.  1.
         22    1    3    3    0    0  0.24156556242E+03 -0.12886300459E+03  0.29711433467E+03  0.40402539866E+03  0.00000000000E+00 0.  1.
</event>
<event>
 7    1  0.6597701E-006  0.3295243E+02  0.7818608E-02  0.1588287E+00
          2   -1    0    0  502    0  0.00000000000E+00  0.00000000000E+00  0.56307887313E+03  0.56307887313E+03  0.00000000000E+00 0. -1.
          1   -1    0    0  501    0 -0.00000000000E+00 -0.00000000000E+00 -0.58322155187E+03  0.58322155187E+03  0.00000000000E+00 0. -1.
         25    2    1    2    0    0  0.40933792650E+02  0.35497893772E+02 -0.36515221730E+03  0.38973902505E+03  0.12499876002E+03 0.  0.
          2    1    1    2  501    0 -0.28555176931E+02 -0.49804877206E+01 -0.20425951677E+03  0.20630597078E+03  0.00000000000E+00 0. -1.
          1    1    1    2  502    0 -0.12378615719E+02 -0.30517406052E+02  0.54926905532E+03  0.55025542917E+03  0.00000000000E+00 0. -1.
         22    1    3    3    0    0  0.83939267181E+01 -0.47463048406E+01 -0.32258345516E+03  0.32272754912E+03  0.00000000000E+00 0.  1.
         22    1    3    3    0    0  0.32539865932E+02  0.40244198613E+02 -0.42568762132E+02  0.67011475930E+02  0.00000000000E+00 0.  1.
</event>
<event>
 7    1  0.8465820E-006  0.8026165E+02  0.7818608E-02  0.1341576E+00
          2   -1    0    0  502    0  0.00000000000E+00  0.00000000000E+00  0.15151288056E+04  0.15151288056E+04  0.00000000000E+00 0. -1.
          1   -1    0    0  501    0 -0.00000000000E+00 -0.00000000000E+00 -0.13042358735E+04  0.13042358735E+04  0.00000000000E+00 0. -1.
         25    2    1    2    0    0  0.12320438091E+03 -0.70591429373E+02 -0.15020525232E+03  0.24155568206E+03  0.12500024134E+03 0.  0.
          2    1    1    2  501    0 -0.44611980267E+02  0.55855232363E+02 -0.11061129957E+04  0.11084204956E+04  0.00000000000E+00 0. -1.
          1    1    1    2  502    0 -0.78592400638E+02  0.14736197011E+02  0.14672111801E+04  0.14693885014E+04  0.00000000000E+00 0. -1.
         22    1    3    3    0    0  0.11170035138E+03 -0.10470502496E+03 -0.12421152670E+03  0.19715124680E+03  0.00000000000E+00 0. -1.
         22    1    3    3    0    0  0.11504029528E+02  0.34113595586E+02 -0.25993725620E+02  0.44404435261E+02  0.00000000000E+00 0. -1.
</event>
<event>
 7    1  0.6597701E-006  0.1350896E+03  0.7818608E-02  0.1389380E+00
          2   -1    0    0  502    0  0.00000000000E+00  0.00000000000E+00  0.15138613953E+04  0.15138613953E+04  0.00000000000E+00 0. -1.
          1   -1    0    0  501    0 -0.00000000000E+00 -0.00000000000E+00 -0.23130684094E+03  0.23130684094E+03  0.00000000000E+00 0. -1.
         25    2    1    2    0    0  0.72952909469E+02 -0.11544062204E+03  0.76110185170E+03  0.78329399121E+03  0.12499913515E+03 0.  0.
          2    1    1    2  501    0 -0.46788866542E+02  0.12676963022E+03 -0.19917245570E+03  0.24068528058E+03  0.00000000000E+00 0. -1.
          1    1    1    2  502    0 -0.26164042927E+02 -0.11329008182E+02  0.72062515840E+03  0.72118896448E+03  0.00000000000E+00 0. -1.
         22    1    3    3    0    0 -0.34109414613E+02 -0.12630604114E+02  0.13213183812E+03  0.13704673280E+03  0.00000000000E+00 0. -1.
         22    1    3    3    0    0  0.10706232408E+03 -0.10281001792E+03  0.62897001358E+03  0.64624725841E+03  0.00000000000E+00 0. -1.
</event>
<event>
 7    1  0.6597701E-006  0.9889620E+02  0.7818608E-02  0.1296628E+00
          2   -1    0    0  502    0  0.00000000000E+00  0.00000000000E+00  0.89736028613E+03  0.89736028613E+03  0.00000000000E+00 0. -1.
          1   -1    0    0  501    0 -0.00000000000E+00 -0.00000000000E+00 -0.31094452345E+03  0.31094452345E+03  0.00000000000E+00 0. -1.
         25    2    1    2    0    0  0.79473717840E+01  0.11300360269E+03 -0.11807906956E+03  0.20591334518E+03  0.12499865646E+03 0.  0.
          2    1    1    2  501    0  0.69897910480E+02 -0.51366835892E+02 -0.13313344584E+03  0.15889865991E+03  0.00000000000E+00 0. -1.
          1    1    1    2  502    0 -0.77845282264E+02 -0.61636766796E+02  0.83762827808E+03  0.84349280450E+03  0.00000000000E+00 0. -1.
         22    1    3    3    0    0  0.41766078436E+02  0.14184356123E+02  0.51127508400E+01  0.44404295825E+02  0.00000000000E+00 0. -1.
         22    1    3    3    0    0 -0.33818706652E+02  0.98819246564E+02 -0.12319182040E+03  0.16150904936E+03  0.00000000000E+00 0. -1.
</event>
<event>
 7    1  0.6597701E-006  0.4287215E+02  0.7818608E-02  0.1540675E+00
          2   -1    0    0  502    0  0.00000000000E+00  0.00000000000E+00  0.16279329769E+03  0.16279329769E+03  0.00000000000E+00 0. -1.
          1   -1    0    0  501    0 -0.00000000000E+00 -0.00000000000E+00 -0.51370463275E+03  0.51370463275E+03  0.00000000000E+00 0. -1.
         25    2    1    2    0    0 -0.58147530750E+01 -0.12179963608E+02 -0.11860239299E+02  0.12627792085E+03  0.12499314041E+03 0.  0.
          2    1    1    2  501    0  0.13681334261E+02  0.41209364012E+02 -0.44140660102E+03  0.44353712135E+03  0.00000000000E+00 0. -1.
          1    1    1    2  502    0 -0.78665811859E+01 -0.29029400404E+02  0.10235550526E+03  0.10668288824E+03  0.00000000000E+00 0. -1.
         22    1    3    3    0    0 -0.50038650946E+02 -0.79805484766E+01  0.35095992670E+02  0.61638335831E+02  0.00000000000E+00 0.  1.
         22    1    3    3    0    0  0.44223897871E+02 -0.41994151319E+01 -0.46956231969E+02  0.64639585016E+02  0.00000000000E+00 0.  1.
</event>
<event>
 7    1  0.1143060E-005  0.8014509E+02  0.7818608E-02  0.1362312E+00
          2   -1    0    0  502    0  0.00000000000E+00  0.00000000000E+00  0.14404428323E+04  0.14404428323E+04  0.00000000000E+00 0. -1.
          1   -1    0    0  501    0 -0.00000000000E+00 -0.00000000000E+00 -0.98077156042E+03  0.98077156042E+03  0.00000000000E+00 0. -1.
         25    2    1    2    0    0  0.94982089579E+02  0.82890980309E+02 -0.34824379802E+03  0.39088531619E+03  0.12500030239E+03 0.  0.
          2    1    1    2  501    0 -0.70304777196E+02 -0.28187908926E+02 -0.60822235086E+03  0.61292067023E+03  0.00000000000E+00 0. -1.
          1    1    1    2  502    0 -0.24677312383E+02 -0.54703071383E+02  0.14161374207E+04  0.14174084063E+04  0.00000000000E+00 0. -1.
         22    1    3    3    0    0  0.56289837859E+02  0.11172234788E+03 -0.28571578355E+03  0.31190373168E+03  0.00000000000E+00 0.  1.
         22    1    3    3    0    0  0.38692251720E+02 -0.28831367574E+02 -0.62528014464E+02  0.78981584513E+02  0.00000000000E+00 0.  1.
</event>
<event>
 7    1  0.6597701E-006  0.5626641E+02  0.7818608E-02  0.1447766E+00
          2   -1    0    0  502    0  0.00000000000E+00  0.00000000000E+00  0.60232423478E+03  0.60232423478E+03  0.00000000000E+00 0. -1.
          1   -1    0    0  501    0 -0.00000000000E+00 -0.00000000000E+00 -0.10690291469E+03  0.10690291469E+03  0.00000000000E+00 0. -1.
         25    2    1    2    0    0 -0.58230912488E+01  0.23537524502E+02  0.69438450543E+02  0.14503990011E+03  0.12500780279E+03 0.  0.
          2    1    1    2  501    0 -0.22846291121E+02 -0.56440606466E+02 -0.54505455008E+02  0.81721109280E+02  0.00000000000E+00 0. -1.
          1    1    1    2  502    0  0.28669382370E+02  0.32903081964E+02  0.48048832456E+03  0.48246614008E+03  0.00000000000E+00 0. -1.
         22    1    3    3    0    0 -0.49199450496E+02  0.45183959343E+02  0.87556958495E+01  0.67370901143E+02  0.00000000000E+00 0. -1.
         22    1    3    3    0    0  0.43376359247E+02 -0.21646434841E+02  0.60682754693E+02  0.77668998964E+02  0.00000000000E+00 0. -1.
</event>
<event>
 7    1  0.6597701E-006  0.1160460E+03  0.7818608E-02  0.1281316E+00
          2   -1    0    0  502    0  0.00000000000E+00  0.00000000000E+00  0.17137271275E+04  0.17137271275E+04  0.00000000000E+00 0. -1.
          1   -1    0    0  501    0 -0.00000000000E+00 -0.00000000000E+00 -0.25377600137E+02  0.25377600137E+02  0.00000000000E+00 0. -1.
         25    2    1    2    0    0 -0.83925320737E+02  0.15850455177E+02  0.57260218705E+03  0.59227910715E+03  0.12500631888E+03 0.  0.
          2    1    1    2  501    0  0.13284670433E+03  0.54077390768E+02  0.38039715557E+03  0.40653979758E+03  0.00000000000E+00 0. -1.
          1    1    1    2  502    0 -0.48921383596E+02 -0.69927845944E+02  0.73535018478E+03  0.74028582296E+03  0.00000000000E+00 0. -1.
         22    1    3    3    0    0 -0.94712242273E+02  0.70275485641E+01  0.57030091126E+03  0.57815475840E+03  0.00000000000E+00 0. -1.
         22    1    3    3    0    0  0.10786921535E+02  0.88229066127E+01  0.23012757896E+01  0.14124348748E+02  0.00000000000E+00 0. -1.
</event>
<event>
 7    1  0.6597701E-006  0.1316014E+03  0.7818608E-02  0.1333384E+00
          2   -1    0    0  502    0  0.00000000000E+00  0.00000000000E+00  0.59831361937E+03  0.59831361937E+03  0.00000000000E+00 0. -1.
          1   -1    0    0  501    0 -0.00000000000E+00 -0.00000000000E+00 -0.16969574756E+04  0.16969574756E+04  0.00000000000E+00 0. -1.
         25    2    1    2    0    0  0.34406027783E+02  0.17089748474E+03  0.72578781144E+02  0.22645621151E+03  0.12500004488E+03 0.  0.
          2    1    1    2  501    0 -0.40415654308E+02 -0.12446844793E+03 -0.16161457579E+04  0.16214354537E+04  0.00000000000E+00 0. -1.
          1    1    1    2  502    0  0.60096265244E+01 -0.46429036814E+02  0.44492312049E+03  0.44737942981E+03  0.00000000000E+00 0. -1.
         22    1    3    3    0    0  0.18292529605E+02  0.16709026764E+03  0.17563804206E+02  0.16900373190E+03  0.00000000000E+00 0. -1.
         22    1    3    3    0    0  0.16113498178E+02  0.38072171033E+01  0.55014976937E+02  0.57452479607E+02  0.00000000000E+00 0. -1.
</event>
<event>
 7    1  0.6597701E-006  0.1692722E+03  0.7818608E-02  0.1373510E+00
          2   -1    0    0  502    0  0.00000000000E+00  0.00000000000E+00  0.16453061092E+04  0.16453061092E+04  0.00000000000E+00 0. -1.
          1   -1    0    0  501    0 -0.00000000000E+00 -0.00000000000E+00 -0.54049076413E+03  0.54049076413E+03  0.00000000000E+00 0. -1.
         25    2    1    2    0    0  0.99359557347E+02  0.15814631631E+03  0.77383474410E+03  0.80580899469E+03  0.12500138297E+03 0.  0.
          2    1    1    2  501    0 -0.11870762491E+02 -0.23008963940E+02 -0.51660297582E+03  0.51725135288E+03  0.00000000000E+00 0. -1.
          1    1    1    2  502    0 -0.87488794856E+02 -0.13513735237E+03  0.84758357680E+03  0.86273652577E+03  0.00000000000E+00 0. -1.
         22    1    3    3    0    0 -0.85573672759E+01  0.17464232319E+02  0.10398158090E+02  0.22053336184E+02  0.00000000000E+00 0. -1.
         22    1    3    3    0    0  0.10791692462E+03  0.14068208399E+03  0.76343658601E+03  0.78375565850E+03  0.00000000000E+00 0. -1.
</event>
<event>
 7    1  0.6597701E-006  0.8352571E+02  0.7818608E-02  0.1354526E+00
          2   -1    0    0  502    0  0.00000000000E+00  0.00000000000E+00  0.24134961548E+04  0.24134961548E+04  0.00000000000E+00 0. -1.
          1   -1    0    0  501    0 -0.00000000000E+00 -0.00000000000E+00 -0.11258241877E+03  0.11258241877E+03  0.00000000000E+00 0. -1.
         25    2    1    2    0    0  0.21138141493E+02 -0.32064324525E+02  0.10525127321E+04  0.10606039660E+04  0.12499111793E+03 0.  0.
          2    1    1    2  501    0 -0.81665140863E+02  0.21247915505E+02 -0.91322952766E+02  0.12434046344E+03  0.00000000000E+00 0. -1.
          1    1    1    2  502    0  0.60526999370E+02  0.10816409020E+02  0.13397239567E+04  0.13411341441E+04  0.00000000000E+00 0. -1.
         22    1    3    3    0    0 -0.33608258710E+00 -0.78645526551E+02  0.57769782905E+03  0.58302659758E+03  0.00000000000E+00 0. -1.
         22    1    3    3    0    0  0.21474224080E+02  0.46581202026E+02  0.47481490305E+03  0.47757736844E+03  0.00000000000E+00 0. -1.
</event>
<event>
 7    1  0.6597701E-006  0.7010665E+02  0.7818608E-02  0.1468155E+00
          2   -1    0    0  502    0  0.00000000000E+00  0.00000000000E+00  0.31083838630E+04  0.31083838630E+04  0.00000000000E+00 0. -1.
          1   -1    0    0  501    0 -0.00000000000E+00 -0.00000000000E+00 -0.52515221461E+03  0.52515221461E+03  0.00000000000E+00 0. -1.
         25    2    1    2    0    0  0.20140038946E+02 -0.35243392955E+02  0.36885949408E+02  0.13649923622E+03  0.12499500114E+03 0.  0.
          2    1    1    2  501    0  0.87949701518E+01 -0.28881540169E+02 -0.47445623129E+03  0.47541582880E+03  0.00000000000E+00 0. -1.
          1    1    1    2  502    0 -0.28935009098E+02  0.64124933124E+02  0.30208019303E+04  0.30216210126E+04  0.00000000000E+00 0. -1.
         22    1    3    3    0    0 -0.15993094692E+02 -0.57282522485E+02 -0.22489229793E+02  0.63583267584E+02  0.00000000000E+00 0. -1.
         22    1    3    3    0    0  0.36133133638E+02  0.22039129530E+02  0.59375179201E+02  0.72915968636E+02  0.00000000000E+00 0. -1.
</event>
<event>
 7    1  0.6597701E-006  0.2871106E+02  0.7818608E-02  0.1622514E+00
          2   -1    0    0  502    0  0.00000000000E+00  0.00000000000E+00  0.21437355951E+03  0.21437355951E+03  0.00000000000E+00 0. -1.
          1   -1    0    0  501    0 -0.00000000000E+00 -0.00000000000E+00 -0.10474204867E+03  0.10474204867E+03  0.00000000000E+00 0. -1.
         25    2    1    2    0    0  0.22652936509E+01 -0.37817066216E+02  0.10068585074E+03  0.16491422279E+03  0.12499519306E+03 0.  0.
          2    1    1    2  501    0 -0.21568665066E+02  0.16431930780E+02 -0.67373937771E+02  0.72625499328E+02  0.00000000000E+00 0. -1.
          1    1    1    2  502    0  0.19303371415E+02  0.21385135436E+02  0.76319597878E+02  0.81575886056E+02  0.00000000000E+00 0. -1.
         22    1    3    3    0    0 -0.10214229412E+01 -0.80149141996E+02  0.36785491857E+02  0.88193541026E+02  0.00000000000E+00 0. -1.
         22    1    3    3    0    0  0.32867165921E+01  0.42332075780E+02  0.63900358880E+02  0.76720681767E+02  0.00000000000E+00 0. -1.
</event>
<event>
 7    1  0.6597701E-006  0.8495431E+02  0.7818608E-02  0.1422460E+00
          2   -1    0    0  502    0  0.00000000000E+00  0.00000000000E+00  0.62156795214E+03  0.62156795214E+03  0.00000000000E+00 0. -1.
          1   -1    0    0  501    0 -0.00000000000E+00 -0.00000000000E+00 -0.22093303312E+03  0.22093303312E+03  0.00000000000E+00 0. -1.
         25    2    1    2    0    0  0.58942661693E+02  0.66220333336E+02  0.18029426570E+03  0.23662329732E+03  0.12500077070E+03 0.  0.
          2    1    1    2  501    0 -0.31743743787E+02  0.14665924850E+02 -0.18672105349E+03  0.18996711936E+03  0.00000000000E+00 0. -1.
          1    1    1    2  502    0 -0.27198917906E+02 -0.80886258186E+02  0.40706170681E+03  0.41591056857E+03  0.00000000000E+00 0. -1.
         22    1    3    3    0    0 -0.17615097069E+02 -0.21653695848E+02  0.87862072908E+01  0.29263827965E+02  0.00000000000E+00 0.  1.
         22    1    3    3    0    0  0.76557758762E+02  0.87874029183E+02  0.17150805841E+03  0.20735946935E+03  0.00000000000E+00 0.  1.
</event>
<event>
 7    1  0.6597701E-006  0.7300994E+02  0.7818608E-02  0.1402303E+00
          2   -1    0    0  502    0  0.00000000000E+00  0.00000000000E+00  0.22771557833E+04  0.22771557833E+04  0.00000000000E+00 0. -1.
          1   -1    0    0  501    0 -0.00000000000E+00 -0.00000000000E+00 -0.37663851711E+02  0.37663851711E+02  0.00000000000E+00 0. -1.
         25    2    1    2    0    0 -0.14736285230E+02 -0.10214348891E+03  0.12505759033E+04  0.12610376124E+04  0.12500127796E+03 0.  0.
          2    1    1    2  501    0 -0.19909387612E+02  0.69511959924E+02  0.91762069697E+01  0.72886892250E+02  0.00000000000E+00 0. -1.
          1    1    1    2  502    0  0.34645672842E+02  0.32631528982E+02  0.97973982130E+03  0.98089513037E+03  0.00000000000E+00 0. -1.
         22    1    3    3    0    0  0.26721678178E+02 -0.11223738389E+03  0.10239832612E+04  0.10304625164E+04  0.00000000000E+00 0. -1.
         22    1    3    3    0    0 -0.41457963408E+02  0.10093894979E+02  0.22659264216E+03  0.23057509607E+03  0.00000000000E+00 0. -1.
</event>
<event>
 7    1  0.6597701E-006  0.9164767E+02  0.7818608E-02  0.1356256E+00
          2   -1    0    0  502    0  0.00000000000E+00  0.00000000000E+00  0.41172326518E+03  0.41172326518E+03  0.00000000000E+00 0. -1.
          1   -1    0    0  501    0 -0.00000000000E+00 -0.00000000000E+00 -0.44956451086E+03  0.44956451086E+03  0.00000000000E+00 0. -1.
         25    2    1    2    0    0 -0.11627782663E+03 -0.66712702430E+02  0.89839476871E+02  0.20413222810E+03  0.12501086879E+03 0.  0.
          2    1    1    2  501    0  0.54974428836E+02  0.52314152340E+01 -0.38326713041E+03  0.38722506218E+03  0.00000000000E+00 0. -1.
          1    1    1    2  502    0  0.61303397792E+02  0.61481287196E+02  0.25558640786E+03  0.26993048576E+03  0.00000000000E+00 0. -1.
         22    1    3    3    0    0 -0.36213778748E+02 -0.92374249761E+02  0.47899066976E+02  0.11017604280E+03  0.00000000000E+00 0. -1.
         22    1    3    3    0    0 -0.80064047880E+02  0.25661547331E+02  0.41940409895E+02  0.93956185302E+02  0.00000000000E+00 0. -1.
</event>
<event>
 7    1  0.6597701E-006  0.7578462E+02  0.7818608E-02  0.1348657E+00
          2   -1    0    0  502    0  0.00000000000E+00  0.00000000000E+00  0.20076255570E+03  0.20076255570E+03  0.00000000000E+00 0. -1.
          1   -1    0    0  501    0 -0.00000000000E+00 -0.00000000000E+00 -0.62683501852E+03  0.62683501852E+03  0.00000000000E+00 0. -1.
         25    2    1    2    0    0  0.63750735070E+01  0.14164356470E+01 -0.29082508227E+03  0.31661455590E+03  0.12499160243E+03 0.  0.
          2    1    1    2  501    0  0.71212772937E+02  0.18680858198E+01 -0.31088551992E+03  0.31894287149E+03  0.00000000000E+00 0. -1.
          1    1    1    2  502    0 -0.77587846444E+02 -0.32845214668E+01  0.17563813937E+03  0.19204014684E+03  0.00000000000E+00 0. -1.
         22    1    3    3    0    0  0.47799473405E+02  0.40568387338E+02 -0.10550395056E+03  0.12272598458E+03  0.00000000000E+00 0. -1.
         22    1    3    3    0    0 -0.41424399898E+02 -0.39151951691E+02 -0.18532113171E+03  0.19388857131E+03  0.00000000000E+00 0. -1.
</event>
<event>
 7    1  0.6597701E-006  0.1217121E+03  0.7818608E-02  0.1413750E+00
          2   -1    0    0  502    0  0.00000000000E+00  0.00000000000E+00  0.14653585375E+04  0.14653585375E+04  0.00000000000E+00 0. -1.
          1   -1    0    0  501    0 -0.00000000000E+00 -0.00000000000E+00 -0.74054236550E+03  0.74054236550E+03  0.00000000000E+00 0. -1.
         25    2    1    2    0    0  0.13710106645E+03  0.34954020349E+02  0.40194471736E+03  0.44407547879E+03  0.12499995633E+03 0.  0.
          2    1    1    2  501    0 -0.25539817283E+02  0.53927750642E+01 -0.71586284420E+03  0.71633859033E+03  0.00000000000E+00 0. -1.
          1    1    1    2  502    0 -0.11156124917E+03 -0.40346795413E+02  0.10387342989E+04  0.10454868339E+04  0.00000000000E+00 0. -1.
         22    1    3    3    0    0  0.13180471973E+03  0.54262457232E+02  0.39917850060E+03  0.42386362636E+03  0.00000000000E+00 0.  1.
         22    1    3    3    0    0  0.52963467258E+01 -0.19308436883E+02  0.27662167630E+01  0.20211852431E+02  0.00000000000E+00 0.  1.
</event>
<event>
 7    1  0.6597701E-006  0.4675672E+02  0.7818608E-02  0.1481182E+00
          2   -1    0    0  502    0  0.00000000000E+00  0.00000000000E+00  0.38921500846E+03  0.38921500846E+03  0.00000000000E+00 0. -1.
          1   -1    0    0  501    0 -0.00000000000E+00 -0.00000000000E+00 -0.25325545773E+04  0.25325545773E+04  0.00000000000E+00 0. -1.
         25    2    1    2    0    0 -0.62336296440E+02 -0.42739316621E+02  0.14081929524E+02  0.14675704833E+03  0.12500746960E+03 0.  0.
          2    1    1    2  501    0  0.41228964492E+02  0.16061560094E+01 -0.24643128768E+04  0.24646582648E+04  0.00000000000E+00 0. -1.
          1    1    1    2  502    0  0.21107331948E+02  0.41133160612E+02  0.30689137848E+03  0.31035427264E+03  0.00000000000E+00 0. -1.
         22    1    3    3    0    0  0.38141982180E+02 -0.16866924914E+02  0.10172349779E+02  0.42927621186E+02  0.00000000000E+00 0. -1.
         22    1    3    3    0    0 -0.10047827862E+03 -0.25872391707E+02  0.39095797448E+01  0.10382942714E+03  0.00000000000E+00 0. -1.
</event>
<event>
 7    1  0.6597701E-006  0.1285371E+03  0.7818608E-02  0.1288580E+00
          2   -1    0    0  502    0  0.00000000000E+00  0.00000000000E+00  0.26653256685E+04  0.26653256685E+04  0.00000000000E+00 0. -1.
          1   -1    0    0  501    0 -0.00000000000E+00 -0.00000000000E+00 -0.53002852100E+02  0.53002852100E+02  0.00000000000E+00 0. -1.
         25    2    1    2    0    0  0.98873676822E+01  0.11214651993E+03  0.25995756779E+03  0.30964076016E+03  0.12499944530E+03 0.  0.
          2    1    1    2  501    0  0.58913599948E+02 -0.13317076249E+03  0.16471599501E+03  0.21985591476E+03  0.00000000000E+00 0. -1.
          1    1    1    2  502    0 -0.68800967631E+02  0.21024242561E+02  0.21876492536E+04  0.21888318457E+04  0.00000000000E+00 0. -1.
         22    1    3    3    0    0 -0.81167313690E+01 -0.18824422510E+02  0.10020380903E+03  0.10227924303E+03  0.00000000000E+00 0. -1.
         22    1    3    3    0    0  0.18004099051E+02  0.13097094244E+03  0.15975375877E+03  0.20736151713E+03  0.00000000000E+00 0. -1.
</event>
<event>
 7    1  0.6964415E-006  0.8713283E+02  0.7818608E-02  0.1344245E+00
          2   -1    0    0  502    0  0.00000000000E+00  0.00000000000E+00  0.11455019024E+04  0.11455019024E+04  0.00000000000E+00 0. -1.
          1   -1    0    0  501    0 -0.00000000000E+00 -0.00000000000E+00 -0.73013300691E+03  0.73013300691E+03  0.00000000000E+00 0. -1.
         25    2    1    2    0    0 -0.14100859006E+03 -0.25581370044E+02 -0.25141669824E+03  0.31523525583E+03  0.12500032560E+03 0.  0.
          2    1    1    2  501    0  0.76659299865E+02  0.25609777384E+02 -0.44221159899E+03  0.44953710329E+03  0.00000000000E+00 0. -1.
          1    1    1    2  502    0  0.64349290195E+02 -0.28407339629E-01  0.11089971927E+04  0.11108625502E+04  0.00000000000E+00 0. -1.
         22    1    3    3    0    0 -0.85749808909E+02  0.45412812916E+02 -0.15893187225E+03  0.18621142103E+03  0.00000000000E+00 0. -1.
         22    1    3    3    0    0 -0.55258781151E+02 -0.70994182961E+02 -0.92484825991E+02  0.12902383480E+03  0.00000000000E+00 0. -1.
</event>
<event>
 7    1  0.6597701E-006  0.6144675E+02  0.7818608E-02  0.1408263E+00
          2   -1    0    0  502    0  0.00000000000E+00  0.00000000000E+00  0.12649464535E+03  0.12649464535E+03  0.00000000000E+00 0. -1.
          1   -1    0    0  501    0 -0.00000000000E+00 -0.00000000000E+00 -0.10031225138E+04  0.10031225138E+04  0.00000000000E+00 0. -1.
         25    2    1    2    0    0  0.95296939138E+02  0.45547703374E+02  0.74191587729E+01  0.16381914394E+03  0.12500227243E+03 0.  0.
          2    1    1    2  501    0 -0.41338450280E+02 -0.44864956896E+02 -0.90562754694E+03  0.90768000177E+03  0.00000000000E+00 0. -1.
          1    1    1    2  502    0 -0.53958488858E+02 -0.68274647753E+00  0.21580519667E+02  0.58118013488E+02  0.00000000000E+00 0. -1.
         22    1    3    3    0    0 -0.28867963325E+01 -0.35404393909E+02  0.86517396346E+01  0.36560324121E+02  0.00000000000E+00 0. -1.
         22    1    3    3    0    0  0.98183735470E+02  0.80952097283E+02 -0.12325808617E+01  0.12725881982E+03  0.00000000000E+00 0. -1.
</event>
<event>
 7    1  0.6597701E-006  0.9384488E+02  0.7818608E-02  0.1364510E+00
          2   -1    0    0  502    0  0.00000000000E+00  0.00000000000E+00  0.54448469921E+03  0.54448469921E+03  0.00000000000E+00 0. -1.
          1   -1    0    0  501    0 -0.00000000000E+00 -0.00000000000E+00 -0.78494595043E+02  0.78494595043E+02  0.00000000000E+00 0. -1.
         25    2    1    2    0    0  0.69719102287E+02  0.37135823251E+02  0.56595828002E+02  0.15832734241E+03  0.12499854805E+03 0.  0.
          2    1    1    2  501    0 -0.11445857330E+03 -0.14108374566E+02  0.10448241599E+03  0.15561615111E+03  0.00000000000E+00 0. -1.
          1    1    1    2  502    0  0.44739471017E+02 -0.23027448685E+02  0.30491186017E+03  0.30903580073E+03  0.00000000000E+00 0. -1.
         22    1    3    3    0    0  0.11835773781E+02  0.49361434949E+02 -0.25761703938E+02  0.56923652299E+02  0.00000000000E+00 0.  1.
         22    1    3    3    0    0  0.57883328506E+02 -0.12225611699E+02  0.82357531940E+02  0.10140369011E+03  0.00000000000E+00 0.  1.
</event>
<event>
 7    1  0.6597701E-006  0.1777018E+03  0.7818608E-02  0.1245586E+00
          2   -1    0    0  502    0  0.00000000000E+00  0.00000000000E+00  0.80106513853E+03  0.80106513853E+03  0.00000000000E+00 0. -1.
          1   -1    0    0  501    0 -0.00000000000E+00 -0.00000000000E+00 -0.39914119732E+03  0.39914119732E+03  0.00000000000E+00 0. -1.
         25    2    1    2    0    0 -0.24155250123E+03  0.13945390731E+02  0.78701330553E+02  0.28348020336E+03  0.12500016596E+03 0.  0.
          2    1    1    2  501    0  0.16557485136E+03 -0.35683142319E+02 -0.26974633968E+03  0.31851437301E+03  0.00000000000E+00 0. -1.
          1    1    1    2  502    0  0.75977649875E+02  0.21737751588E+02  0.59296895033E+03  0.59821175948E+03  0.00000000000E+00 0. -1.
         22    1    3    3    0    0 -0.18692419542E+03 -0.43271037805E+02  0.42675606230E+02  0.19655595873E+03  0.00000000000E+00 0. -1.
         22    1    3    3    0    0 -0.54628305819E+02  0.57216428536E+02  0.36025724323E+02  0.86924244628E+02  0.00000000000E+00 0. -1.
</event>
<event>
 7    1  0.6597701E-006  0.1799524E+03  0.7818608E-02  0.1332667E+00
          2   -1    0    0  502    0  0.00000000000E+00  0.00000000000E+00  0.24853194003E+04  0.24853194003E+04  0.00000000000E+00 0. -1.
          1   -1    0    0  501    0 -0.00000000000E+00 -0.00000000000E+00 -0.46378736592E+02  0.46378736592E+02  0.00000000000E+00 0. -1.
         25    2    1    2    0    0 -0.19865804095E+03 -0.63294149828E+02  0.11218102729E+04  0.11478476060E+04  0.12499868614E+03 0.  0.
          2    1    1    2  501    0  0.16683134149E+03  0.50100480505E+02  0.19611121512E+03  0.26230204602E+03  0.00000000000E+00 0. -1.
          1    1    1    2  502    0  0.31826699463E+02  0.13193669322E+02  0.11210191757E+04  0.11215484849E+04  0.00000000000E+00 0. -1.
         22    1    3    3    0    0 -0.49611790913E+02  0.35376286840E+02  0.37675194375E+03  0.38164753188E+03  0.00000000000E+00 0.  1.
         22    1    3    3    0    0 -0.14904625004E+03 -0.98670436667E+02  0.74505832912E+03  0.76620007408E+03  0.00000000000E+00 0.  1.
</event>
<event>
 7    1  0.6597701E-006  0.1541113E+03  0.7818608E-02  0.1263112E+00
          2   -1    0    0  502    0  0.00000000000E+00  0.00000000000E+00  0.16182148375E+04  0.16182148375E+04  0.00000000000E+00 0. -1.
          1   -1    0    0  501    0 -0.00000000000E+00 -0.00000000000E+00 -0.97382937599E+02  0.97382937599E+02  0.00000000000E+00 0. -1.
         25    2    1    2    0    0 -0.94337034904E+02  0.48838919722E+02  0.45454570702E+03  0.48324024278E+03  0.12499846495E+03 0.  0.
          2    1    1    2  501    0 -0.76556656493E+02  0.20096595999E+01 -0.56710650539E+02  0.95294586780E+02  0.00000000000E+00 0. -1.
          1    1    1    2  502    0  0.17089369140E+03 -0.50848579322E+02  0.11229968434E+04  0.11370629456E+04  0.00000000000E+00 0. -1.
         22    1    3    3    0    0 -0.41099841108E+02  0.68902267444E+01  0.38082040337E+03  0.38309378981E+03  0.00000000000E+00 0. -1.
         22    1    3    3    0    0 -0.53237193796E+02  0.41948692978E+02  0.73725303647E+02  0.10014645298E+03  0.00000000000E+00 0. -1.
</event>
<event>
 7    1  0.6597701E-006  0.6161197E+02  0.7818608E-02  0.1488105E+00
          2   -1    0    0  502    0  0.00000000000E+00  0.00000000000E+00  0.37134164986E+02  0.37134164986E+02  0.00000000000E+00 0. -1.
          1   -1    0    0  501    0 -0.00000000000E+00 -0.00000000000E+00 -0.17612155802E+04  0.17612155802E+04  0.00000000000E+00 0. -1.
         25    2    1    2    0    0  0.30870234126E+02  0.67806584014E+02 -0.39871312159E+03  0.42443871145E+03  0.12500144902E+03 0.  0.
          2    1    1    2  501    0 -0.29008178466E+02 -0.69409597018E+01 -0.13110071357E+04  0.13113463925E+04  0.00000000000E+00 0. -1.
          1    1    1    2  502    0 -0.18620556598E+01 -0.60865624312E+02 -0.14361157938E+02  0.62564641224E+02  0.00000000000E+00 0. -1.
         22    1    3    3    0    0  0.23730540927E+02 -0.30967861902E+02 -0.60199445522E+02  0.71736464122E+02  0.00000000000E+00 0.  1.
         22    1    3    3    0    0  0.71396931990E+01  0.98774445915E+02 -0.33851367606E+03  0.35270224732E+03  0.00000000000E+00 0.  1.
</event>
<event>
 7    1  0.6597701E-006  0.1456858E+03  0.7818608E-02  0.1225835E+00
          2   -1    0    0  502    0  0.00000000000E+00  0.00000000000E+00  0.74380175419E+03  0.74380175419E+03  0.00000000000E+00 0. -1.
          1   -1    0    0  501    0 -0.00000000000E+00 -0.00000000000E+00 -0.17700768157E+04  0.17700768157E+04  0.00000000000E+00 0. -1.
         25    2    1    2    0    0  0.37267281374E+02  0.36501001694E+02  0.12325745280E+02  0.13601473719E+03  0.12500764517E+03 0.  0.
          2    1    1    2  501    0  0.11765710844E+03  0.86146327930E+01 -0.16964333448E+04  0.17005303586E+04  0.00000000000E+00 0. -1.
          1    1    1    2  502    0 -0.15492438981E+03 -0.45115634487E+02  0.65783253804E+03  0.67733347410E+03  0.00000000000E+00 0. -1.
         22    1    3    3    0    0  0.86799881179E+01  0.33907948563E+01  0.66066935565E+02  0.66720908705E+02  0.00000000000E+00 0.  1.
         22    1    3    3    0    0  0.28587293256E+02  0.33110206838E+02 -0.53741190285E+02  0.69293828483E+02  0.00000000000E+00 0.  1.
</event>
<event>
 7    1  0.6597701E-006  0.8685147E+02  0.7818608E-02  0.1473987E+00
          2   -1    0    0  502    0  0.00000000000E+00  0.00000000000E+00  0.22250979049E+04  0.22250979049E+04  0.00000000000E+00 0. -1.
          1   -1    0    0  501    0 -0.00000000000E+00 -0.00000000000E+00 -0.40658345574E+02  0.40658345574E+02  0.00000000000E+00 0. -1.
         25    2    1    2    0    0 -0.51035407399E+02 -0.84174751176E+02  0.73154203830E+03  0.74864476693E+03  0.12500092681E+03 0.  0.
          2    1    1    2  501    0 -0.76727122943E+01  0.22079392418E+02 -0.26449736823E+02  0.35298139633E+02  0.00000000000E+00 0. -1.
          1    1    1    2  502    0  0.58708119693E+02  0.62095358758E+02  0.14793472579E+04  0.14818133439E+04  0.00000000000E+00 0. -1.
         22    1    3    3    0    0  0.26265581526E+02 -0.39690828512E+02  0.99003547663E+02  0.10984964766E+03  0.00000000000E+00 0.  1.
         22    1    3    3    0    0 -0.77300988925E+02 -0.44483922664E+02  0.63253849064E+03  0.63879511927E+03  0.00000000000E+00 0.  1.
</event>
<event>
 7    1  0.6597701E-006  0.3482208E+02  0.7818608E-02  0.1575206E+00
          2   -1    0    0  502    0  0.00000000000E+00  0.00000000000E+00  0.12465326282E+04  0.12465326282E+04  0.00000000000E+00 0. -1.
          1   -1    0    0  501    0 -0.00000000000E+00 -0.00000000000E+00 -0.84523840841E+02  0.84523840841E+02  0.00000000000E+00 0. -1.
         25    2    1    2    0    0  0.39679676547E+02 -0.42043317087E+02  0.47835267971E+02  0.14578741894E+03  0.12499456555E+03 0.  0.
          2    1    1    2  501    0 -0.28256073261E+02  0.92508198480E+01 -0.29020803027E+02  0.41547447001E+02  0.00000000000E+00 0. -1.
          1    1    1    2  502    0 -0.11423603286E+02  0.32792497239E+02  0.11431943224E+04  0.11437216031E+04  0.00000000000E+00 0. -1.
         22    1    3    3    0    0  0.83388918093E+02 -0.22514885858E+02  0.46043109667E+02  0.97880537870E+02  0.00000000000E+00 0. -1.
         22    1    3    3    0    0 -0.43709241546E+02 -0.19528431229E+02  0.17921583046E+01  0.47906881073E+02  0.00000000000E+00 0. -1.
</event>
<event>
 7    1  0.6597701E-006  0.4524769E+02  0.7818608E-02  0.1488457E+00
          2   -1    0    0  502    0  0.00000000000E+00  0.00000000000E+00  0.45669091022E+03  0.45669091022E+03  0.00000000000E+00 0. -1.
          1   -1    0    0  501    0 -0.00000000000E+00 -0.00000000000E+00 -0.92976859282E+02  0.92976859282E+02  0.00000000000E+00 0. -1.
         25    2    1    2    0    0  0.92732524585E+01  0.48499867751E+02  0.57827110372E+02  0.14631295703E+03  0.12500110527E+03 0.  0.
          2    1    1    2  501    0 -0.38301176547E+02 -0.13207633457E+02 -0.38535453206E+02  0.55914245593E+02  0.00000000000E+00 0. -1.
          1    1    1    2  502    0  0.29027924088E+02 -0.35292234294E+02  0.34442239377E+03  0.34744056687E+03  0.00000000000E+00 0. -1.
         22    1    3    3    0    0 -0.50597862470E+02  0.54605684925E+01  0.51345131322E+02  0.72293042579E+02  0.00000000000E+00 0.  1.
         22    1    3    3    0    0  0.59871114929E+02  0.43039299259E+02  0.64819790496E+01  0.74019914455E+02  0.00000000000E+00 0.  1.
</event>
<event>
 7    1  0.6597701E-006  0.1794880E+03  0.7818608E-02  0.1368668E+00
          2   -1    0    0  502    0  0.00000000000E+00  0.00000000000E+00  0.38188070301E+02  0.38188070301E+02  0.00000000000E+00 0. -1.
          1   -1    0    0  501    0 -0.00000000000E+00 -0.00000000000E+00 -0.16404399698E+04  0.16404399698E+04  0.00000000000E+00 0. -1.
         25    2    1    2    0    0  0.12181832244E+01  0.18074244526E+03 -0.66718995148E+03  0.70244997322E+03  0.12499687213E+03 0.  0.
          2    1    1    2  501    0  0.25201136568E+02 -0.32822400961E+01 -0.55829463689E+03  0.55887276903E+03  0.00000000000E+00 0. -1.
          1    1    1    2  502    0 -0.26419319792E+02 -0.17746020516E+03 -0.37676731116E+03  0.41730529787E+03  0.00000000000E+00 0. -1.
         22    1    3    3    0    0  0.54951901374E+02  0.87763315261E+02 -0.42649411444E+03  0.43888419956E+03  0.00000000000E+00 0. -1.
         22    1    3    3    0    0 -0.53733718150E+02  0.92979129995E+02 -0.24069583704E+03  0.26356577366E+03  0.00000000000E+00 0. -1.
</event>
<event>
 7    1  0.6597701E-006  0.4773360E+02  0.7818608E-02  0.1468124E+00
          2   -1    0    0  502    0  0.00000000000E+00  0.00000000000E+00  0.36450610669E+03  0.36450610669E+03  0.00000000000E+00 0. -1.
          1   -1    0    0  501    0 -0.00000000000E+00 -0.00000000000E+00 -0.52712718787E+03  0.52712718787E+03  0.00000000000E+00 0. -1.
         25    2    1    2    0    0  0.79404196208E+00  0.24877471577E+02 -0.88880993718E+01  0.12776498264E+03  0.12500149353E+03 0.  0.
          2    1    1    2  501    0 -0.44733366138E+02 -0.18844584837E+02 -0.45589339038E+03  0.45847025620E+03  0.00000000000E+00 0. -1.
          1    1    1    2  502    0  0.43939324175E+02 -0.60328867392E+01  0.30216040857E+03  0.30539805572E+03  0.00000000000E+00 0. -1.
         22    1    3    3    0    0 -0.19445043924E+02  0.58867652462E+02 -0.43065784899E+02  0.75486237610E+02  0.00000000000E+00 0. -1.
         22    1    3    3    0    0  0.20239085886E+02 -0.33990180885E+02  0.34177685527E+02  0.52278745032E+02  0.00000000000E+00 0. -1.
</event>
<event>
 7    1  0.6597701E-006  0.4626690E+02  0.7818608E-02  0.1471571E+00
          2   -1    0    0  502    0  0.00000000000E+00  0.00000000000E+00  0.21081686124E+03  0.21081686124E+03  0.00000000000E+00 0. -1.
          1   -1    0    0  501    0 -0.00000000000E+00 -0.00000000000E+00 -0.91994845639E+02  0.91994845639E+02  0.00000000000E+00 0. -1.
         25    2    1    2    0    0  0.83754652695E+01 -0.27535192984E+02  0.10812040073E+03  0.16776257461E+03  0.12500370041E+03 0.  0.
          2    1    1    2  501    0  0.44458122667E+02  0.40421914524E+01 -0.38636149360E+02  0.59039105855E+02  0.00000000000E+00 0. -1.
          1    1    1    2  502    0 -0.52833587936E+02  0.23493001532E+02  0.49337764229E+02  0.76010026407E+02  0.00000000000E+00 0. -1.
         22    1    3    3    0    0  0.42370527968E+02 -0.42999577410E+02  0.79899541122E+01  0.60893880353E+02  0.00000000000E+00 0.  1.
         22    1    3    3    0    0 -0.33995062699E+02  0.15464384425E+02  0.10013044662E+03  0.10686869426E+03  0.00000000000E+00 0.  1.
</event>
<event>
 7    1  0.6597701E-006  0.1499035E+03  0.7818608E-02  0.1286998E+00
          2   -1    0    0  502    0  0.00000000000E+00  0.00000000000E+00  0.10135384258E+03  0.10135384258E+03  0.00000000000E+00 0. -1.
          1   -1    0    0  501    0 -0.00000000000E+00 -0.00000000000E+00 -0.91773321623E+03  0.91773321623E+03  0.00000000000E+00 0. -1.
         25    2    1    2    0    0 -0.14217609296E+03 -0.14169914161E+03 -0.66401221511E+03  0.70486175224E+03  0.12500071920E+03 0.  0.
          2    1    1    2  501    0  0.23939990786E+02  0.57853427926E+02 -0.15718652514E+03  0.16919735804E+03  0.00000000000E+00 0. -1.
          1    1    1    2  502    0  0.11823610218E+03  0.83845713680E+02  0.48193666173E+01  0.14502794853E+03  0.00000000000E+00 0. -1.
         22    1    3    3    0    0  0.16952859348E+01 -0.47728474803E+02 -0.58936487734E+02  0.75857701572E+02  0.00000000000E+00 0. -1.
         22    1    3    3    0    0 -0.14387137890E+03 -0.93970666804E+02 -0.60507572738E+03  0.62900405066E+03  0.00000000000E+00 0. -1.
</event>
<event>
 7    1  0.6597701E-006  0.2856934E+03  0.7818608E-02  0.1325284E+00
          2   -1    0    0  502    0  0.00000000000E+00  0.00000000000E+00  0.13525536841E+04  0.13525536841E+04  0.00000000000E+00 0. -1.
          1   -1    0    0  501    0 -0.00000000000E+00 -0.00000000000E+00 -0.96130168281E+02  0.96130168281E+02  0.00000000000E+00 0. -1.
         25    2    1    2    0    0  0.45256414810E+02 -0.27066587292E+03  0.67312700438E+03  0.73758615201E+03  0.12500083909E+03 0.  0.
          2    1    1    2  501    0 -0.64185365369E+02  0.28401017201E+03  0.27045742085E+03  0.39740251059E+03  0.00000000000E+00 0. -1.
          1    1    1    2  502    0  0.18928950560E+02 -0.13344299087E+02  0.31283909057E+03  0.31369518976E+03  0.00000000000E+00 0. -1.
         22    1    3    3    0    0  0.74077161767E+02 -0.12820620725E+03  0.25442751860E+03  0.29437666295E+03  0.00000000000E+00 0.  1.
         22    1    3    3    0    0 -0.28820746957E+02 -0.14245966567E+03  0.41869948578E+03  0.44320948906E+03  0.00000000000E+00 0.  1.
</event>
<event>
 7    1  0.6597701E-006  0.9790031E+02  0.7818608E-02  0.1370405E+00
          2   -1    0    0  502    0  0.00000000000E+00  0.00000000000E+00  0.11703529082E+04  0.11703529082E+04  0.00000000000E+00 0. -1.
          1   -1    0    0  501    0 -0.00000000000E+00 -0.00000000000E+00 -0.14687925613E+04  0.14687925613E+04  0.00000000000E+00 0. -1.
         25    2    1    2    0    0 -0.57309947830E+02  0.70099683003E+02  0.20386613640E+03  0.25570502410E+03  0.12500104841E+03 0.  0.
          2    1    1    2  501    0  0.90301833991E+02 -0.38148100003E+02 -0.14406457822E+04  0.14439771358E+04  0.00000000000E+00 0. -1.
          1    1    1    2  502    0 -0.32991886160E+02 -0.31951583000E+02  0.93833999268E+03  0.93946330959E+03  0.00000000000E+00 0. -1.
         22    1    3    3    0    0 -0.69169275047E+02  0.25438751799E+02  0.19525501111E+03  0.20870083390E+03  0.00000000000E+00 0.  1.
         22    1    3    3    0    0  0.11859327217E+02  0.44660931204E+02  0.86111252815E+01  0.47004190203E+02  0.00000000000E+00 0.  1.
</event>
<event>
 7    1  0.6597701E-006  0.3680849E+02  0.7818608E-02  0.1556147E+00
          2   -1    0    0  502    0  0.00000000000E+00  0.00000000000E+00  0.16219201372E+03  0.16219201372E+03  0.00000000000E+00 0. -1.
          1   -1    0    0  501    0 -0.00000000000E+00 -0.00000000000E+00 -0.13319391662E+04  0.13319391662E+04  0.00000000000E+00 0. -1.
         25    2    1    2    0    0 -0.27815075811E+02  0.62317257231E+02 -0.29337214345E+03  0.32611371040E+03  0.12500327423E+03 0.  0.
          2    1    1    2  501    0  0.11811569566E+02 -0.29428609094E+02 -0.10196523521E+04  0.10201453207E+04  0.00000000000E+00 0. -1.
          1    1    1    2  502    0  0.16003506245E+02 -0.32888648137E+02  0.14327734302E+03  0.14787214887E+03  0.00000000000E+00 0. -1.
         22    1    3    3    0    0 -0.74385275183E+02  0.58311915633E+02 -0.17593385677E+03  0.19971522382E+03  0.00000000000E+00 0. -1.
         22    1    3    3    0    0  0.46570199372E+02  0.40053415979E+01 -0.11743828668E+03  0.12639848658E+03  0.00000000000E+00 0. -1.
</event>
<event>
 7    1  0.6597701E-006  0.1617906E+03  0.7818608E-02  0.1335008E+00
          2   -1    0    0  502    0  0.00000000000E+00  0.00000000000E+00  0.65706467747E+03  0.65706467747E+03  0.00000000000E+00 0. -1.
          1   -1    0    0  501    0 -0.00000000000E+00 -0.00000000000E+00 -0.52928120179E+03  0.52928120179E+03  0.00000000000E+00 0. -1.
         25    2    1    2    0    0 -0.13809092486E+03 -0.10850104114E+03  0.44930300775E+03  0.49833724888E+03  0.12500096557E+03 0.  0.
          2    1    1    2  501    0  0.37463912380E+02  0.24515758546E+01 -0.47474642014E+03  0.47622864087E+03  0.00000000000E+00 0. -1.
          1    1    1    2  502    0  0.10062701248E+03  0.10604946529E+03  0.15322688806E+03  0.21177998951E+03  0.00000000000E+00 0. -1.
         22    1    3    3    0    0 -0.22669143282E+02  0.25576190151E+02  0.11680671901E+03  0.12170390777E+03  0.00000000000E+00 0.  1.
         22    1    3    3    0    0 -0.11542178158E+03 -0.13407723129E+03  0.33249628873E+03  0.37663334111E+03  0.00000000000E+00 0.  1.
</event>
<event>
 7    1  0.6597701E-006  0.1443555E+03  0.7818608E-02  0.1318918E+00
          2   -1    0    0  502    0  0.00000000000E+00  0.00000000000E+00  0.60574743399E+03  0.60574743399E+03  0.00000000000E+00 0. -1.
          1   -1    0    0  501    0 -0.00000000000E+00 -0.00000000000E+00 -0.66624862615E+03  0.66624862615E+03  0.00000000000E+00 0. -1.
         25    2    1    2    0    0 -0.97736161150E+02  0.57041992503E+02  0.10571286167E+03  0.19900888494E+03  0.12499272401E+03 0.  0.
          2    1    1    2  501    0 -0.47843624184E+02 -0.80063311757E+01 -0.60559080240E+03  0.60753052076E+03  0.00000000000E+00 0. -1.
          1    1    1    2  502    0  0.14557978533E+03 -0.49035661327E+02  0.43937674856E+03  0.46545665443E+03  0.00000000000E+00 0. -1.
         22    1    3    3    0    0 -0.11125187989E+03  0.36998407370E+02  0.12250978678E+03  0.16957155063E+03  0.00000000000E+00 0. -1.
         22    1    3    3    0    0  0.13515718743E+02  0.20043585133E+02 -0.16796925103E+02  0.29437334306E+02  0.00000000000E+00 0. -1.
</event>
<event>
 7    1  0.6597701E-006  0.4095087E+02  0.7818608E-02  0.1572992E+00
          2   -1    0    0  502    0  0.00000000000E+00  0.00000000000E+00  0.11514690777E+04  0.11514690777E+04  0.00000000000E+00 0. -1.
          1   -1    0    0  501    0 -0.00000000000E+00 -0.00000000000E+00 -0.15591188160E+03  0.15591188160E+03  0.00000000000E+00 0. -1.
         25    2    1    2    0    0 -0.86306715185E+01  0.13164814974E+02  0.17131050840E+03  0.21265053711E+03  0.12500063920E+03 0.  0.
          2    1    1    2  501    0  0.23521539657E+02 -0.34028711428E+02 -0.13190283102E+03  0.13823737867E+03  0.00000000000E+00 0. -1.
          1    1    1    2  502    0 -0.14890868139E+02  0.20863896454E+02  0.95614951873E+03  0.95649304352E+03  0.00000000000E+00 0. -1.
         22    1    3    3    0    0 -0.16304054927E+02 -0.21927221573E+02  0.17446435973E+03  0.17659116079E+03  0.00000000000E+00 0. -1.
         22    1    3    3    0    0  0.76733834085E+01  0.35092036547E+02 -0.31538513361E+01  0.36059376315E+02  0.00000000000E+00 0. -1.
</event>
<event>
 7    1  0.6597701E-006  0.4087343E+02  0.7818608E-02  0.1519394E+00
          2   -1    0    0  502    0  0.00000000000E+00  0.00000000000E+00  0.12059569432E+04  0.12059569432E+04  0.00000000000E+00 0. -1.
          1   -1    0    0  501    0 -0.00000000000E+00 -0.00000000000E+00 -0.90406157476E+02  0.90406157476E+02  0.00000000000E+00 0. -1.
         25    2    1    2    0    0 -0.68134048525E+02 -0.21817238731E+01  0.19047199421E+03  0.23780605876E+03  0.12500053007E+03 0.  0.
          2    1    1    2  501    0  0.36856335939E+02 -0.16245042397E+02 -0.60297315532E+02  0.72512462113E+02  0.00000000000E+00 0. -1.
          1    1    1    2  502    0  0.31277712585E+02  0.18426766270E+02  0.98537610708E+03  0.98604457983E+03  0.00000000000E+00 0. -1.
         22    1    3    3    0    0 -0.43244571679E+02 -0.61680977471E+02  0.79994854501E+02  0.10988090238E+03  0.00000000000E+00 0.  1.
         22    1    3    3    0    0 -0.24889476846E+02  0.59499253598E+02  0.11047713970E+03  0.12792515638E+03  0.00000000000E+00 0.  1.
</event>
<event>
 7    1  0.6597701E-006  0.9800127E+02  0.7818608E-02  0.1430460E+00
          2   -1    0    0  502    0  0.00000000000E+00  0.00000000000E+00  0.21529464528E+04  0.21529464528E+04  0.00000000000E+00 0. -1.
          1   -1    0    0  501    0 -0.00000000000E+00 -0.00000000000E+00 -0.22180808507E+03  0.22180808507E+03  0.00000000000E+00 0. -1.
         25    2    1    2    0    0  0.60123165931E+02 -0.88732637179E+02  0.68212427470E+03  0.70171712548E+03  0.12500048834E+03 0.  0.
          2    1    1    2  501    0  0.13232643444E+02  0.25264485126E+02 -0.20943406041E+03  0.21136703320E+03  0.00000000000E+00 0. -1.
          1    1    1    2  502    0 -0.73355809376E+02  0.63468152053E+02  0.14584481534E+04  0.14616703792E+04  0.00000000000E+00 0. -1.
         22    1    3    3    0    0 -0.64370849311E+01 -0.17405839410E+02  0.74044007454E+01  0.19980602053E+02  0.00000000000E+00 0.  1.
         22    1    3    3    0    0  0.66560250862E+02 -0.71326797769E+02  0.67471987395E+03  0.68173652343E+03  0.00000000000E+00 0.  1.
</event>
<event>
 7    1  0.6597701E-006  0.9330674E+02  0.7818608E-02  0.1372853E+00
          2   -1    0    0  502    0  0.00000000000E+00  0.00000000000E+00  0.17576820747E+03  0.17576820747E+03  0.00000000000E+00 0. -1.
          1   -1    0    0  501    0 -0.00000000000E+00 -0.00000000000E+00 -0.14898929107E+03  0.14898929107E+03  0.00000000000E+00 0. -1.
         25    2    1    2    0    0 -0.34180691721E+02 -0.12052711048E+03 -0.52508025808E+01  0.17704824765E+03  0.12499362793E+03 0.  0.
          2    1    1    2  501    0 -0.81842511579E+01  0.46509875115E+02 -0.15962368059E+02  0.49849249185E+02  0.00000000000E+00 0. -1.
          1    1    1    2  502    0  0.42364942879E+02  0.74017235365E+02  0.47992087035E+02  0.97860001707E+02  0.00000000000E+00 0. -1.
         22    1    3    3    0    0  0.45708491059E+02 -0.26808170378E+02 -0.94606117326E+01  0.53827941891E+02  0.00000000000E+00 0. -1.
         22    1    3    3    0    0 -0.79889182780E+02 -0.93718940102E+02  0.42098091518E+01  0.12322030576E+03  0.00000000000E+00 0. -1.
</event>
<event>
 7    1  0.6597701E-006  0.9190724E+02  0.7818608E-02  0.1448749E+00
          2   -1    0    0  502    0  0.00000000000E+00  0.00000000000E+00  0.10815435220E+04  0.10815435220E+04  0.00000000000E+00 0. -1.
          1   -1    0    0  501    0 -0.00000000000E+00 -0.00000000000E+00 -0.91027968290E+03  0.91027968290E+03  0.00000000000E+00 0. -1.
         25    2    1    2    0    0 -0.81054930967E+02  0.38566662450E+02 -0.16354312771E+03  0.22456185502E+03  0.12499753127E+03 0.  0.
          2    1    1    2  501    0  0.91367941411E+02 -0.14129400084E+02 -0.71307507194E+03  0.71904366967E+03  0.00000000000E+00 0. -1.
          1    1    1    2  502    0 -0.10313010444E+02 -0.24437262366E+02  0.10478820388E+04  0.10482176802E+04  0.00000000000E+00 0. -1.
         22    1    3    3    0    0 -0.54505172096E+02 -0.36172822541E+01 -0.16590096478E+03  0.17466261372E+03  0.00000000000E+00 0. -1.
         22    1    3    3    0    0 -0.26549758871E+02  0.42183944704E+02  0.23578370721E+01  0.49899241302E+02  0.00000000000E+00 0. -1.
</event>
<event>
 7    1  0.6597701E-006  0.5888830E+02  0.7818608E-02  0.1444880E+00
          2   -1    0    0  502    0  0.00000000000E+00  0.00000000000E+00  0.78651781414E+02  0.78651781414E+02  0.00000000000E+00 0. -1.
          1   -1    0    0  501    0 -0.00000000000E+00 -0.00000000000E+00 -0.22190845562E+03  0.22190845562E+03  0.00000000000E+00 0. -1.
         25    2    1    2    0    0  0.32334259296E+02 -0.44747421762E+02 -0.24448064355E+02  0.13881683638E+03  0.12499828052E+03 0.  0.
          2    1    1    2  501    0  0.69901808755E+01  0.61126121905E+02 -0.94305011707E+02  0.11259973642E+03  0.00000000000E+00 0. -1.
          1    1    1    2  502    0 -0.39324440172E+02 -0.16378700144E+02 -0.24503598145E+02  0.49143664244E+02  0.00000000000E+00 0. -1.
         22    1    3    3    0    0  0.46990523337E+02 -0.57755701395E+02  0.30513066382E+02  0.80466623809E+02  0.00000000000E+00 0.  1.
         22    1    3    3    0    0 -0.14656264040E+02  0.13008279634E+02 -0.54961130737E+02  0.58350212567E+02  0.00000000000E+00 0.  1.
</event>
<event>
 7    1  0.6597701E-006  0.1004485E+03  0.7818608E-02  0.1293197E+00
          2   -1    0    0  502    0  0.00000000000E+00  0.00000000000E+00  0.18267619833E+04  0.18267619833E+04  0.00000000000E+00 0. -1.
          1   -1    0    0  501    0 -0.00000000000E+00 -0.00000000000E+00 -0.27944126057E+02  0.27944126057E+02  0.00000000000E+00 0. -1.
         25    2    1    2    0    0 -0.33737832438E+02  0.23550098602E+02  0.57161918815E+03  0.58657196424E+03  0.12500129795E+03 0.  0.
          2    1    1    2  501    0 -0.69265835259E+02 -0.72747161822E+02  0.12649231677E+03  0.16152464731E+03  0.00000000000E+00 0. -1.
          1    1    1    2  502    0  0.10300366770E+03  0.49197063220E+02  0.11007063523E+04  0.11066094978E+04  0.00000000000E+00 0. -1.
         22    1    3    3    0    0 -0.79743288550E+02  0.90233218198E+01  0.41508759924E+03  0.42277432212E+03  0.00000000000E+00 0.  1.
         22    1    3    3    0    0  0.46005456112E+02  0.14526776782E+02  0.15653158891E+03  0.16379764211E+03  0.00000000000E+00 0.  1.
</event>
<event>
 7    1  0.6597701E-006  0.7214809E+02  0.7818608E-02  0.1390510E+00
          2   -1    0    0  502    0  0.00000000000E+00  0.00000000000E+00  0.70289176797E+03  0.70289176797E+03  0.00000000000E+00 0. -1.
          1   -1    0    0  501    0 -0.00000000000E+00 -0.00000000000E+00 -0.29168799927E+03  0.29168799927E+03  0.00000000000E+00 0. -1.
         25    2    1    2    0    0 -0.44334563481E+02  0.10612679626E+02  0.40041553680E+01  0.13311222794E+03  0.12499859791E+03 0.  0.
          2    1    1    2  501    0 -0.17809612031E+02 -0.49814095271E+02 -0.22188615270E+03  0.22810543862E+03  0.00000000000E+00 0. -1.
          1    1    1    2  502    0  0.62144175512E+02  0.39201415645E+02  0.62908576604E+03  0.63336210068E+03  0.00000000000E+00 0. -1.
         22    1    3    3    0    0  0.84978454710E+01  0.46123736116E+02 -0.34942265177E+02  0.58485676081E+02  0.00000000000E+00 0. -1.
         22    1    3    3    0    0 -0.52832408952E+02 -0.35511056489E+02  0.38946420545E+02  0.74626551857E+02  0.00000000000E+00 0. -1.
</event>
<event>
 7    1  0.6597701E-006  0.9173791E+02  0.7818608E-02  0.1366949E+00
          2   -1    0    0  502    0  0.00000000000E+00  0.00000000000E+00  0.22838179845E+04  0.22838179845E+04  0.00000000000E+00 0. -1.
          1   -1    0    0  501    0 -0.00000000000E+00 -0.00000000000E+00 -0.87026239329E+02  0.87026239329E+02  0.00000000000E+00 0. -1.
         25    2    1    2    0    0  0.12556186070E+03 -0.10923941784E+02  0.79235691435E+03  0.81199766363E+03  0.12500245058E+03 0.  0.
          2    1    1    2  501    0 -0.82706315921E+02  0.37521055971E+02 -0.49908238824E+02  0.10362913025E+03  0.00000000000E+00 0. -1.
          1    1    1    2  502    0 -0.42855544782E+02 -0.26597114188E+02  0.14543430696E+04  0.14552174299E+04  0.00000000000E+00 0. -1.
         22    1    3    3    0    0  0.27077237271E+02 -0.56401975384E+02  0.40235852237E+03  0.40719373783E+03  0.00000000000E+00 0. -1.
         22    1    3    3    0    0  0.98484623432E+02  0.45478033600E+02  0.38999839198E+03  0.40480392580E+03  0.00000000000E+00 0. -1.
</event>
<event>
 7    1  0.6597701E-006  0.8758028E+02  0.7818608E-02  0.1372670E+00
          2   -1    0    0  502    0  0.00000000000E+00  0.00000000000E+00  0.97653693294E+03  0.97653693294E+03  0.00000000000E+00 0. -1.
          1   -1    0    0  501    0 -0.00000000000E+00 -0.00000000000E+00 -0.41867433638E+03  0.41867433638E+03  0.00000000000E+00 0. -1.
         25    2    1    2    0    0 -0.20665384070E+02  0.58138376958E+02  0.21781388046E+02  0.14109135981E+03  0.12500085589E+03 0.  0.
          2    1    1    2  501    0 -0.50192104888E+02 -0.44396489976E+01 -0.35502834485E+03  0.35858622885E+03  0.00000000000E+00 0. -1.
          1    1    1    2  502    0  0.70857488958E+02 -0.53698727960E+02  0.89110955336E+03  0.89553368067E+03  0.00000000000E+00 0. -1.
         22    1    3    3    0    0  0.50397640052E+02  0.75055293652E+01  0.16960635904E+02  0.53702125322E+02  0.00000000000E+00 0.  1.
         22    1    3    3    0    0 -0.71063024122E+02  0.50632847592E+02  0.48207521419E+01  0.87389234485E+02  0.00000000000E+00 0.  1.
</event>
<event>
 7    1  0.6597701E-006  0.6332943E+02  0.7818608E-02  0.1418496E+00
          2   -1    0    0  502    0  0.00000000000E+00  0.00000000000E+00  0.75496017033E+03  0.75496017033E+03  0.00000000000E+00 0. -1.
          1   -1    0    0  501    0 -0.00000000000E+00 -0.00000000000E+00 -0.11310330826E+04  0.11310330826E+04  0.00000000000E+00 0. -1.
         25    2    1    2    0    0  0.82324943684E+02  0.64793056244E+02  0.13337758520E+03  0.21069045201E+03  0.12500139937E+03 0.  0.
          2    1    1    2  501    0 -0.46017189330E+02 -0.14867400468E+02 -0.10902047771E+04  0.10912768106E+04  0.00000000000E+00 0. -1.
          1    1    1    2  502    0 -0.36307754353E+02 -0.49925655775E+02  0.58075427961E+03  0.58402599036E+03  0.00000000000E+00 0. -1.
         22    1    3    3    0    0  0.20854154817E+02  0.55023989859E+02 -0.49031851494E+01  0.59047239205E+02  0.00000000000E+00 0. -1.
         22    1    3    3    0    0  0.61470788867E+02  0.97690663849E+01  0.13828077035E+03  0.15164321281E+03  0.00000000000E+00 0. -1.
</event>
<event>
 7    1  0.6597701E-006  0.1370132E+03  0.7818608E-02  0.1231361E+00
          2   -1    0    0  502    0  0.00000000000E+00  0.00000000000E+00  0.58492454028E+03  0.58492454028E+03  0.00000000000E+00 0. -1.
          1   -1    0    0  501    0 -0.00000000000E+00 -0.00000000000E+00 -0.22607106023E+03  0.22607106023E+03  0.00000000000E+00 0. -1.
         25    2    1    2    0    0 -0.15067111624E+03 -0.45836894076E+02 -0.21972034928E+02  0.20226249368E+03  0.12499815960E+03 0.  0.
          2    1    1    2  501    0  0.88443006215E+02 -0.78818115923E+02 -0.69499146912E+02  0.13734843344E+03  0.00000000000E+00 0. -1.
          1    1    1    2  502    0  0.62228110026E+02  0.12465501000E+03  0.45032466190E+03  0.47138467339E+03  0.00000000000E+00 0. -1.
         22    1    3    3    0    0 -0.16948143040E+03 -0.35961105983E+02 -0.22424349301E+01  0.17326911124E+03  0.00000000000E+00 0.  1.
         22    1    3    3    0    0  0.18810314164E+02 -0.98757880924E+01 -0.19729599998E+02  0.28993382443E+02  0.00000000000E+00 0.  1.
</event>
<event>
 7    1  0.6597701E-006  0.6615767E+02  0.7818608E-02  0.1414745E+00
          2   -1    0    0  502    0  0.00000000000E+00  0.00000000000E+00  0.47250531458E+03  0.47250531458E+03  0.00000000000E+00 0. -1.
          1   -1    0    0  501    0 -0.00000000000E+00 -0.00000000000E+00 -0.13459354861E+04  0.13459354861E+04  0.00000000000E+00 0. -1.
         25    2    1    2    0    0  0.49762424639E+02 -0.44931640408E+02 -0.27315868292E+03  0.30779179998E+03  0.12499989947E+03 0.  0.
          2    1    1    2  501    0 -0.42780843546E+02 -0.20991390039E+02 -0.10525046618E+04  0.10535828881E+04  0.00000000000E+00 0. -1.
          1    1    1    2  502    0 -0.69815810931E+01  0.65923030447E+02  0.45223317315E+03  0.45706611263E+03  0.00000000000E+00 0. -1.
         22    1    3    3    0    0  0.89087238410E+02 -0.46998804503E+02 -0.21660066635E+03  0.23887501405E+03  0.00000000000E+00 0. -1.
         22    1    3    3    0    0 -0.39324813771E+02  0.20671640951E+01 -0.56558016568E+02  0.68916785935E+02  0.00000000000E+00 0. -1.
</event>
<event>
 7    1  0.6597701E-006  0.1633266E+03  0.7818608E-02  0.1226986E+00
          2   -1    0    0  502    0  0.00000000000E+00  0.00000000000E+00  0.18359981819E+04  0.18359981819E+04  0.00000000000E+00 0. -1.
          1   -1    0    0  501    0 -0.00000000000E+00 -0.00000000000E+00 -0.16571548585E+03  0.16571548585E+03  0.00000000000E+00 0. -1.
         25    2    1    2    0    0  0.17295487394E+03  0.14386166280E+03  0.94597708711E+02  0.27419535273E+03  0.12499919410E+03 0.  0.
          2    1    1    2  501    0 -0.10395832211E+03  0.20977961047E+01 -0.34275638003E+02  0.10948311672E+03  0.00000000000E+00 0. -1.
          1    1    1    2  502    0 -0.68996551822E+02 -0.14595945890E+03  0.16099606254E+04  0.16180351983E+04  0.00000000000E+00 0. -1.
         22    1    3    3    0    0  0.10039441327E+03  0.15418785604E+03  0.70668353910E+02  0.19709629476E+03  0.00000000000E+00 0. -1.
         22    1    3    3    0    0  0.72560460662E+02 -0.10326193240E+02  0.23929354801E+02  0.77099057968E+02  0.00000000000E+00 0. -1.
</event>
<event>
 7    1  0.6597701E-006  0.7410162E+02  0.7818608E-02  0.1420409E+00
          2   -1    0    0  502    0  0.00000000000E+00  0.00000000000E+00  0.47807704221E+03  0.47807704221E+03  0.00000000000E+00 0. -1.
          1   -1    0    0  501    0 -0.00000000000E+00 -0.00000000000E+00 -0.64310351248E+03  0.64310351248E+03  0.00000000000E+00 0. -1.
         25    2    1    2    0    0  0.38429328351E+02  0.46238514370E+02  0.33047019778E+03  0.35840057766E+03  0.12500243579E+03 0.  0.
          2    1    1    2  501    0 -0.84239267488E+01 -0.73774102516E+02 -0.62378180533E+03  0.62818573798E+03  0.00000000000E+00 0. -1.
          1    1    1    2  502    0 -0.30005401602E+02  0.27535588146E+02  0.12828513728E+03  0.13459423905E+03  0.00000000000E+00 0. -1.
         22    1    3    3    0    0 -0.36750118863E+02  0.30734567684E+02  0.57500000290E+02  0.74842734587E+02  0.00000000000E+00 0.  1.
         22    1    3    3    0    0  0.75179447213E+02  0.15503946686E+02  0.27297019749E+03  0.28355784307E+03  0.00000000000E+00 0.  1.
</event>
<event>
 7    1  0.6597701E-006  0.2314045E+03  0.7818608E-02  0.1285035E+00
          2   -1    0    0  502    0  0.00000000000E+00  0.00000000000E+00  0.11611962361E+04  0.11611962361E+04  0.00000000000E+00 0. -1.
          1   -1    0    0  501    0 -0.00000000000E+00 -0.00000000000E+00 -0.50838851314E+03  0.50838851314E+03  0.00000000000E+00 0. -1.
         25    2    1    2    0    0 -0.11079776067E+03  0.17182870789E+03  0.31018854765E+03  0.39197276880E+03  0.12499787104E+03 0.  0.
          2    1    1    2  501    0  0.99487395406E+02 -0.21156736531E+03 -0.43768628010E+03  0.49621343361E+03  0.00000000000E+00 0. -1.
          1    1    1    2  502    0  0.11310365268E+02  0.39738657424E+02  0.78030545543E+03  0.78139854686E+03  0.00000000000E+00 0. -1.
         22    1    3    3    0    0 -0.30278242540E+02  0.11213538174E+03  0.80366409235E+02  0.14124402834E+03  0.00000000000E+00 0.  1.
         22    1    3    3    0    0 -0.80519518134E+02  0.59693326149E+02  0.22982213841E+03  0.25072874046E+03  0.00000000000E+00 0.  1.
</event>
<event>
 7    1  0.6597701E-006  0.2552289E+03  0.7818608E-02  0.1277910E+00
          2   -1    0    0  502    0  0.00000000000E+00  0.00000000000E+00  0.25430739844E+04  0.25430739844E+04  0.00000000000E+00 0. -1.
          1   -1    0    0  501    0 -0.00000000000E+00 -0.00000000000E+00 -0.34157010266E+03  0.34157010266E+03  0.00000000000E+00 0. -1.
         25    2    1    2    0    0  0.12971563379E+03 -0.22977258934E+03  0.74129194776E+03  0.79671846029E+03  0.12499985872E+03 0.  0.
          2    1    1    2  501    0 -0.15718561473E+03  0.20058469984E+03 -0.26185655739E+03  0.36539074419E+03  0.00000000000E+00 0. -1.
          1    1    1    2  502    0  0.27469980939E+02  0.29187889498E+02  0.17220684913E+04  0.17225348826E+04  0.00000000000E+00 0. -1.
         22    1    3    3    0    0  0.14479748503E+03 -0.20610297557E+03  0.71572251238E+03  0.75875125234E+03  0.00000000000E+00 0. -1.
         22    1    3    3    0    0 -0.15081851240E+02 -0.23669613773E+02  0.25569435386E+02  0.37967207942E+02  0.00000000000E+00 0. -1.
</event>
<event>
 7    1  0.6597701E-006  0.1145425E+03  0.7818608E-02  0.1448498E+00
          2   -1    0    0  502    0  0.00000000000E+00  0.00000000000E+00  0.94058093481E+03  0.94058093481E+03  0.00000000000E+00 0. -1.
          1   -1    0    0  501    0 -0.00000000000E+00 -0.00000000000E+00 -0.21821716673E+03  0.21821716673E+03  0.00000000000E+00 0. -1.
         25    2    1    2    0    0 -0.63197083531E+02 -0.11715333125E+03  0.19499625194E+02  0.18364694985E+03  0.12500876936E+03 0.  0.
          2    1    1    2  501    0  0.16504755973E+02  0.13499089708E+02 -0.13142929829E+03  0.13314763551E+03  0.00000000000E+00 0. -1.
          1    1    1    2  502    0  0.46692327558E+02  0.10365424154E+03  0.83429344119E+03  0.84200351617E+03  0.00000000000E+00 0. -1.
         22    1    3    3    0    0 -0.34768555668E+02 -0.11258764267E+03 -0.34215995049E+02  0.12270111680E+03  0.00000000000E+00 0. -1.
         22    1    3    3    0    0 -0.28428527863E+02 -0.45656885774E+01  0.53715620243E+02  0.60945833055E+02  0.00000000000E+00 0. -1.
</event>
<event>
 7    1  0.6597701E-006  0.7130086E+02  0.7818608E-02  0.1435486E+00
          2   -1    0    0  502    0  0.00000000000E+00  0.00000000000E+00  0.82366519792E+03  0.82366519792E+03  0.00000000000E+00 0. -1.
          1   -1    0    0  501    0 -0.00000000000E+00 -0.00000000000E+00 -0.41299387003E+04  0.41299387003E+04  0.00000000000E+00 0. -1.
         25    2    1    2    0    0  0.37569485620E+02  0.26584346553E+02 -0.12630844699E+03  0.18356473509E+03  0.12499597776E+03 0.  0.
          2    1    1    2  501    0 -0.71055841377E+02 -0.91767414141E+01 -0.39742311605E+04  0.39748769115E+04  0.00000000000E+00 0. -1.
          1    1    1    2  502    0  0.33486355757E+02 -0.17407605139E+02  0.79426610505E+03  0.79516225160E+03  0.00000000000E+00 0. -1.
         22    1    3    3    0    0  0.15765574461E+02 -0.48550536649E+02 -0.29007833185E+02  0.58712539828E+02  0.00000000000E+00 0. -1.
         22    1    3    3    0    0  0.21803911160E+02  0.75134883202E+02 -0.97300613803E+02  0.12485219526E+03  0.00000000000E+00 0. -1.
</event>
<event>
 7    1  0.6597701E-006  0.7345917E+02  0.7818608E-02  0.1493385E+00
          2   -1    0    0  502    0  0.00000000000E+00  0.00000000000E+00  0.82162493337E+02  0.82162493337E+02  0.00000000000E+00 0. -1.
          1   -1    0    0  501    0 -0.00000000000E+00 -0.00000000000E+00 -0.10863726275E+04  0.10863726275E+04  0.00000000000E+00 0. -1.
         25    2    1    2    0    0 -0.77970782182E+02  0.50672628288E+02 -0.19298071485E+03  0.24801984307E+03  0.12500051248E+03 0.  0.
          2    1    1    2  501    0  0.13407555846E+02 -0.20043175352E+02 -0.84226239269E+03  0.84260751810E+03  0.00000000000E+00 0. -1.
          1    1    1    2  502    0  0.64563226336E+02 -0.30629452936E+02  0.31032973363E+02  0.77907759676E+02  0.00000000000E+00 0. -1.
         22    1    3    3    0    0 -0.50740270126E+01  0.68923878434E+02 -0.13982879563E+03  0.15597544311E+03  0.00000000000E+00 0. -1.
         22    1    3    3    0    0 -0.72896755169E+02 -0.18251250146E+02 -0.53151919229E+02  0.92044399959E+02  0.00000000000E+00 0. -1.
</event>
<event>
 7    1  0.6597701E-006  0.1226748E+03  0.7818608E-02  0.1425671E+00
          2   -1    0    0  502    0  0.00000000000E+00  0.00000000000E+00  0.15461050675E+03  0.15461050675E+03  0.00000000000E+00 0. -1.
          1   -1    0    0  501    0 -0.00000000000E+00 -0.00000000000E+00 -0.27553559722E+03  0.27553559722E+03  0.00000000000E+00 0. -1.
         25    2    1    2    0    0 -0.90862379525E+02  0.10660797604E+03 -0.22201568195E+02  0.18904405085E+03  0.12499404371E+03 0.  0.
          2    1    1    2  501    0  0.83117591551E+02 -0.84284718995E+02 -0.14617408519E+03  0.18809388896E+03  0.00000000000E+00 0. -1.
          1    1    1    2  502    0  0.77447879744E+01 -0.22323257043E+02  0.47450562921E+02  0.53008164157E+02  0.00000000000E+00 0. -1.
         22    1    3    3    0    0  0.20786395445E+02 -0.11854364275E+01  0.19308634694E+02  0.28395472683E+02  0.00000000000E+00 0. -1.
         22    1    3    3    0    0 -0.11164877497E+03  0.10779341247E+03 -0.41510202889E+02  0.16064857817E+03  0.00000000000E+00 0. -1.
</event>
<event>
 7    1  0.6597701E-006  0.9684031E+02  0.7818608E-02  0.1379603E+00
          2   -1    0    0  502    0  0.00000000000E+00  0.00000000000E+00  0.14380859746E+04  0.14380859746E+04  0.00000000000E+00 0. -1.
          1   -1    0    0  501    0 -0.00000000000E+00 -0.00000000000E+00 -0.29102970904E+03  0.29102970904E+03  0.00000000000E+00 0. -1.
         25    2    1    2    0    0 -0.14044756720E+02 -0.68531934419E+02 -0.10681699701E+03  0.17869635415E+03  0.12501453880E+03 0.  0.
          2    1    1    2  501    0  0.20790859058E+02  0.11105106508E+03 -0.12636647082E+03  0.16950835915E+03  0.00000000000E+00 0. -1.
          1    1    1    2  502    0 -0.67461023375E+01 -0.42519130658E+02  0.13802397334E+04  0.13809109704E+04  0.00000000000E+00 0. -1.
         22    1    3    3    0    0  0.46245074388E+02 -0.27432134053E+01 -0.10708119303E+02  0.47547827962E+02  0.00000000000E+00 0.  1.
         22    1    3    3    0    0 -0.60289831108E+02 -0.65788721014E+02 -0.96108877705E+02  0.13114852619E+03  0.00000000000E+00 0.  1.
</event>
<event>
 7    1  0.6597701E-006  0.1147940E+03  0.7818608E-02  0.1340107E+00
          2   -1    0    0  502    0  0.00000000000E+00  0.00000000000E+00  0.14003677849E+04  0.14003677849E+04  0.00000000000E+00 0. -1.
          1   -1    0    0  501    0 -0.00000000000E+00 -0.00000000000E+00 -0.37735750359E+02  0.37735750359E+02  0.00000000000E+00 0. -1.
         25    2    1    2    0    0  0.89619877835E+01  0.10462436186E+03  0.56061052811E+03  0.58389736146E+03  0.12500156065E+03 0.  0.
          2    1    1    2  501    0 -0.49652712020E+02  0.98486089176E+01  0.83669691252E+01  0.51306852183E+02  0.00000000000E+00 0. -1.
          1    1    1    2  502    0  0.40690724237E+02 -0.11447297078E+03  0.79365453730E+03  0.80289932161E+03  0.00000000000E+00 0. -1.
         22    1    3    3    0    0  0.58891121684E+02  0.19207272741E+02  0.16942380838E+03  0.18039265613E+03  0.00000000000E+00 0. -1.
         22    1    3    3    0    0 -0.49929133900E+02  0.85417089117E+02  0.39118671973E+03  0.40350470533E+03  0.00000000000E+00 0. -1.
</event>
<event>
 7    1  0.6597701E-006  0.6734177E+02  0.7818608E-02  0.1520542E+00
          2   -1    0    0  502    0  0.00000000000E+00  0.00000000000E+00  0.50543007301E+02  0.50543007301E+02  0.00000000000E+00 0. -1.
          1   -1    0    0  501    0 -0.00000000000E+00 -0.00000000000E+00 -0.96737409092E+03  0.96737409092E+03  0.00000000000E+00 0. -1.
         25    2    1    2    0    0 -0.77914593249E+01 -0.51292936015E+02 -0.23175767069E+03  0.26837968342E+03  0.12499745767E+03 0.  0.
          2    1    1    2  501    0 -0.16694069462E+02 -0.14120703907E+02 -0.67908291941E+03  0.67943483696E+03  0.00000000000E+00 0. -1.
          1    1    1    2  502    0  0.24485528786E+02  0.65413639922E+02 -0.59904935171E+01  0.70102577844E+02  0.00000000000E+00 0. -1.
         22    1    3    3    0    0  0.49185897497E+02 -0.32253650262E+02 -0.50826347894E+02  0.77735886874E+02  0.00000000000E+00 0. -1.
         22    1    3    3    0    0 -0.56977356822E+02 -0.19039285753E+02 -0.18093132279E+03  0.19064379654E+03  0.00000000000E+00 0. -1.
</event>
<event>
 7    1  0.6597701E-006  0.6912518E+02  0.7818608E-02  0.1432293E+00
          2   -1    0    0  502    0  0.00000000000E+00  0.00000000000E+00  0.40910422521E+03  0.40910422521E+03  0.00000000000E+00 0. -1.
          1   -1    0    0  501    0 -0.00000000000E+00 -0.00000000000E+00 -0.29493413062E+03  0.29493413062E+03  0.00000000000E+00 0. -1.
         25    2    1    2    0    0 -0.84708175508E+01 -0.43059208812E+02  0.56731729503E+01  0.13260171046E+03  0.12500071404E+03 0.  0.
          2    1    1    2  501    0 -0.22727404277E+02  0.67895772778E+02 -0.22471569124E+03  0.23584637533E+03  0.00000000000E+00 0. -1.
          1    1    1    2  502    0  0.31198221827E+02 -0.24836563966E+02  0.33321261289E+03  0.33559027004E+03  0.00000000000E+00 0. -1.
         22    1    3    3    0    0  0.22938306912E+02 -0.77001562951E+02 -0.15355799007E+02  0.81799799413E+02  0.00000000000E+00 0.  1.
         22    1    3    3    0    0 -0.31409124463E+02  0.33942354139E+02  0.21028971957E+02  0.50801911043E+02  0.00000000000E+00 0.  1.
</event>
<event>
 7    1  0.6597701E-006  0.9528463E+02  0.7818608E-02  0.1361328E+00
          2   -1    0    0  502    0  0.00000000000E+00  0.00000000000E+00  0.27747789850E+03  0.27747789850E+03  0.00000000000E+00 0. -1.
          1   -1    0    0  501    0 -0.00000000000E+00 -0.00000000000E+00 -0.13536789613E+04  0.13536789613E+04  0.00000000000E+00 0. -1.
         25    2    1    2    0    0 -0.57892124126E+02  0.37686319595E+01 -0.48920738385E+03  0.50824546952E+03  0.12499556893E+03 0.  0.
          2    1    1    2  501    0  0.10873941588E+03 -0.59617475696E+01 -0.84902616875E+03  0.85598203149E+03  0.00000000000E+00 0. -1.
          1    1    1    2  502    0 -0.50847291758E+02  0.21931156101E+01  0.26203248984E+03  0.26692935876E+03  0.00000000000E+00 0. -1.
         22    1    3    3    0    0 -0.34915322220E+02  0.62861431252E+02 -0.21139944541E+03  0.22329434562E+03  0.00000000000E+00 0. -1.
         22    1    3    3    0    0 -0.22976801906E+02 -0.59092799292E+02 -0.27780793844E+03  0.28495112391E+03  0.00000000000E+00 0. -1.
</event>
<event>
 7    1  0.6597701E-006  0.5771626E+02  0.7818608E-02  0.1408355E+00
          2   -1    0    0  502    0  0.00000000000E+00  0.00000000000E+00  0.14395309219E+02  0.14395309219E+02  0.00000000000E+00 0. -1.
          1   -1    0    0  501    0 -0.00000000000E+00 -0.00000000000E+00 -0.12127054924E+04  0.12127054924E+04  0.00000000000E+00 0. -1.
         25    2    1    2    0    0  0.37729017878E+00 -0.12348378578E+02 -0.73544247358E+03  0.74609143456E+03  0.12499668789E+03 0.  0.
          2    1    1    2  501    0  0.99243331544E+01 -0.56856611139E+02 -0.26270162836E+03  0.26896712097E+03  0.00000000000E+00 0. -1.
          1    1    1    2  502    0 -0.10301623333E+02  0.69204989717E+02 -0.20016608121E+03  0.21204224605E+03  0.00000000000E+00 0. -1.
         22    1    3    3    0    0 -0.19329549729E+02 -0.81674843562E+01 -0.72099651066E+03  0.72130181455E+03  0.00000000000E+00 0. -1.
         22    1    3    3    0    0  0.19706839908E+02 -0.41808942213E+01 -0.14445962921E+02  0.24789620012E+02  0.00000000000E+00 0. -1.
</event>
<event>
 7    1  0.6597701E-006  0.4965559E+02  0.7818608E-02  0.1463231E+00
          2   -1    0    0  502    0  0.00000000000E+00  0.00000000000E+00  0.10104253333E+04  0.10104253333E+04  0.00000000000E+00 0. -1.
          1   -1    0    0  501    0 -0.00000000000E+00 -0.00000000000E+00 -0.22673726626E+03  0.22673726626E+03  0.00000000000E+00 0. -1.
         25    2    1    2    0    0  0.86773537621E+02  0.12416449386E+02  0.57508888290E+03  0.59500918549E+03  0.12499957013E+03 0.  0.
          2    1    1    2  501    0 -0.41624804408E+02 -0.14762173203E+02 -0.21330737068E+03  0.21783154153E+03  0.00000000000E+00 0. -1.
          1    1    1    2  502    0 -0.45148733212E+02  0.23457238163E+01  0.42190655476E+03  0.42432187250E+03  0.00000000000E+00 0. -1.
         22    1    3    3    0    0  0.33136651787E+02 -0.17797690017E+02  0.34858892816E+02  0.51282919866E+02  0.00000000000E+00 0. -1.
         22    1    3    3    0    0  0.53636885834E+02  0.30214139403E+02  0.54022999009E+03  0.54372626563E+03  0.00000000000E+00 0. -1.
</event>
<event>
 7    1  0.6597701E-006  0.8048164E+02  0.7818608E-02  0.1420102E+00
          2   -1    0    0  502    0  0.00000000000E+00  0.00000000000E+00  0.27898574797E+03  0.27898574797E+03  0.00000000000E+00 0. -1.
          1   -1    0    0  501    0 -0.00000000000E+00 -0.00000000000E+00 -0.79568221562E+02  0.79568221562E+02  0.00000000000E+00 0. -1.
         25    2    1    2    0    0 -0.33765355235E+02  0.50997297863E+02  0.77279445162E+02  0.15917918040E+03  0.12500030090E+03 0.  0.
          2    1    1    2  501    0  0.70780922795E+02 -0.57517151688E+02  0.24034294969E+02  0.94317597004E+02  0.00000000000E+00 0. -1.
          1    1    1    2  502    0 -0.37015567560E+02  0.65198538249E+01  0.98103786275E+02  0.10505719212E+03  0.00000000000E+00 0. -1.
         22    1    3    3    0    0  0.32367533036E+02  0.60652504088E+02  0.57089529856E+02  0.89362172457E+02  0.00000000000E+00 0. -1.
         22    1    3    3    0    0 -0.66132888271E+02 -0.96552062253E+01  0.20189915305E+02  0.69817007945E+02  0.00000000000E+00 0. -1.
</event>
<event>
 7    1  0.6597701E-006  0.1200652E+03  0.7818608E-02  0.1325488E+00
          2   -1    0    0  502    0  0.00000000000E+00  0.00000000000E+00  0.31054657963E+04  0.31054657963E+04  0.00000000000E+00 0. -1.
          1   -1    0    0  501    0 -0.00000000000E+00 -0.00000000000E+00 -0.12527731804E+04  0.12527731804E+04  0.00000000000E+00 0. -1.
         25    2    1    2    0    0 -0.14943483941E+03 -0.64566617337E+02  0.10552461312E+03  0.23078061533E+03  0.12499851653E+03 0.  0.
          2    1    1    2  501    0  0.31732942212E+02  0.44933145045E+02 -0.11882967140E+04  0.11895692698E+04  0.00000000000E+00 0. -1.
          1    1    1    2  502    0  0.11770189720E+03  0.19633472292E+02  0.29354647169E+04  0.29378890915E+04  0.00000000000E+00 0. -1.
         22    1    3    3    0    0 -0.10822962288E+03  0.22083861269E+01  0.12328844071E+02  0.10895195563E+03  0.00000000000E+00 0.  1.
         22    1    3    3    0    0 -0.41205216529E+02 -0.66775003464E+02  0.93195769052E+02  0.12182865971E+03  0.00000000000E+00 0.  1.
</event>
<event>
 7    1  0.6597701E-006  0.6025507E+02  0.7818608E-02  0.1466964E+00
          2   -1    0    0  502    0  0.00000000000E+00  0.00000000000E+00  0.86662041159E+03  0.86662041159E+03  0.00000000000E+00 0. -1.
          1   -1    0    0  501    0 -0.00000000000E+00 -0.00000000000E+00 -0.40557260013E+02  0.40557260013E+02  0.00000000000E+00 0. -1.
         25    2    1    2    0    0  0.32747436147E+02 -0.47171200358E+02  0.11168629513E+03  0.17719079866E+03  0.12500093556E+03 0.  0.
          2    1    1    2  501    0 -0.32708321101E+02 -0.13616020492E+02  0.42346097517E+02  0.55212519035E+02  0.00000000000E+00 0. -1.
          1    1    1    2  502    0 -0.39115045865E-01  0.60787220850E+02  0.67203075893E+03  0.67477435391E+03  0.00000000000E+00 0. -1.
         22    1    3    3    0    0  0.17341216774E+02  0.26663852047E+02 -0.10589480651E+02  0.33523363579E+02  0.00000000000E+00 0.  1.
         22    1    3    3    0    0  0.15406219373E+02 -0.73835052406E+02  0.12227577578E+03  0.14366743508E+03  0.00000000000E+00 0.  1.
</event>
<event>
 7    1  0.6597701E-006  0.1239596E+03  0.7818608E-02  0.1237251E+00
          2   -1    0    0  502    0  0.00000000000E+00  0.00000000000E+00  0.10400105934E+04  0.10400105934E+04  0.00000000000E+00 0. -1.
          1   -1    0    0  501    0 -0.00000000000E+00 -0.00000000000E+00 -0.28460924877E+04  0.28460924877E+04  0.00000000000E+00 0. -1.
         25    2    1    2    0    0 -0.72418878808E+02  0.78695993969E+02 -0.11928741717E+03  0.20320572399E+03  0.12500209955E+03 0.  0.
          2    1    1    2  501    0  0.11805852328E+03  0.37791140915E+02 -0.26794866805E+04  0.26823524854E+04  0.00000000000E+00 0. -1.
          1    1    1    2  502    0 -0.45639644469E+02 -0.11648713488E+03  0.99269220329E+03  0.10005448717E+04  0.00000000000E+00 0. -1.
         22    1    3    3    0    0  0.36652302114E+01 -0.26983526892E+02 -0.46865942515E+02  0.54202963054E+02  0.00000000000E+00 0.  1.
         22    1    3    3    0    0 -0.76084109019E+02  0.10567952086E+03 -0.72421474651E+02  0.14900276093E+03  0.00000000000E+00 0.  1.
</event>
<event>
 7    1  0.6597701E-006  0.5141320E+02  0.7818608E-02  0.1549595E+00
          2   -1    0    0  502    0  0.00000000000E+00  0.00000000000E+00  0.13334707047E+04  0.13334707047E+04  0.00000000000E+00 0. -1.
          1   -1    0    0  501    0 -0.00000000000E+00 -0.00000000000E+00 -0.50313681623E+03  0.50313681623E+03  0.00000000000E+00 0. -1.
         25    2    1    2    0    0 -0.28435906950E+02 -0.16882883882E+02  0.69685322845E+02  0.14688400955E+03  0.12500094187E+03 0.  0.
          2    1    1    2  501    0  0.32469759105E+02  0.40211386504E+02 -0.46298503457E+03  0.46586090531E+03  0.00000000000E+00 0. -1.
          1    1    1    2  502    0 -0.40338521549E+01 -0.23328502622E+02  0.12236336002E+04  0.12238626061E+04  0.00000000000E+00 0. -1.
         22    1    3    3    0    0 -0.31610056518E+02  0.49316014870E+02  0.51906323130E+02  0.78265773979E+02  0.00000000000E+00 0.  1.
         22    1    3    3    0    0  0.31741495680E+01 -0.66198898752E+02  0.17778999715E+02  0.68618235567E+02  0.00000000000E+00 0.  1.
</event>
<event>
 7    1  0.6597701E-006  0.1601731E+03  0.7818608E-02  0.1200724E+00
          2   -1    0    0  502    0  0.00000000000E+00  0.00000000000E+00  0.10148342048E+04  0.10148342048E+04  0.00000000000E+00 0. -1.
          1   -1    0    0  501    0 -0.00000000000E+00 -0.00000000000E+00 -0.89368452414E+03  0.89368452414E+03  0.00000000000E+00 0. -1.
         25    2    1    2    0    0  0.15558734252E+02 -0.18554463175E+02 -0.23293649604E+03  0.26546231915E+03  0.12499795753E+03 0.  0.
          2    1    1    2  501    0  0.10982859772E+03 -0.86966215616E+02 -0.63001542593E+03  0.64540288227E+03  0.00000000000E+00 0. -1.
          1    1    1    2  502    0 -0.12538733197E+03  0.10552067879E+03  0.98410160265E+03  0.99765352754E+03  0.00000000000E+00 0. -1.
         22    1    3    3    0    0 -0.22096177501E+02  0.60025346311E+01 -0.21632985702E+03  0.21753822313E+03  0.00000000000E+00 0.  1.
         22    1    3    3    0    0  0.37654911753E+02 -0.24556997806E+02 -0.16606639016E+02  0.47924096025E+02  0.00000000000E+00 0.  1.
</event>
<event>
 7    1  0.6597701E-006  0.1962052E+03  0.7818608E-02  0.1197529E+00
          2   -1    0    0  502    0  0.00000000000E+00  0.00000000000E+00  0.22898223357E+04  0.22898223357E+04  0.00000000000E+00 0. -1.
          1   -1    0    0  501    0 -0.00000000000E+00 -0.00000000000E+00 -0.59901334053E+03  0.59901334053E+03  0.00000000000E+00 0. -1.
         25    2    1    2    0    0 -0.28127764861E+03 -0.12311420650E+03  0.19656007356E+03  0.38540183377E+03  0.12499794999E+03 0.  0.
          2    1    1    2  501    0  0.11446821742E+03  0.30287125209E+02 -0.49300861551E+03  0.50702837960E+03  0.00000000000E+00 0. -1.
          1    1    1    2  502    0  0.16680943119E+03  0.92827081289E+02  0.19872575372E+04  0.19964054629E+04  0.00000000000E+00 0. -1.
         22    1    3    3    0    0 -0.96686116246E+02 -0.89575118212E+02  0.31500048930E+02  0.13551442713E+03  0.00000000000E+00 0.  1.
         22    1    3    3    0    0 -0.18459153237E+03 -0.33539088287E+02  0.16506002463E+03  0.24988740664E+03  0.00000000000E+00 0.  1.
</event>
<event>
 7    1  0.6597701E-006  0.3958462E+03  0.7818608E-02  0.1172538E+00
          2   -1    0    0  502    0  0.00000000000E+00  0.00000000000E+00  0.66481885028E+03  0.66481885028E+03  0.00000000000E+00 0. -1.
          1   -1    0    0  501    0 -0.00000000000E+00 -0.00000000000E+00 -0.85676288743E+03  0.85676288743E+03  0.00000000000E+00 0. -1.
         25    2    1    2    0    0 -0.34076406728E+03  0.30541455220E+03  0.32521720564E+02  0.47548012740E+03  0.12500196400E+03 0.  0.
          2    1    1    2  501    0  0.27401148894E+03 -0.26596747299E+03 -0.57325512503E+03  0.68879781587E+03  0.00000000000E+00 0. -1.
          1    1    1    2  502    0  0.66752578339E+02 -0.39447079203E+02  0.34878936732E+03  0.35730379445E+03  0.00000000000E+00 0. -1.
         22    1    3    3    0    0 -0.32584714315E+03  0.31662323961E+03  0.38283418248E+02  0.45595203330E+03  0.00000000000E+00 0.  1.
         22    1    3    3    0    0 -0.14916924127E+02 -0.11208687412E+02 -0.57616976839E+01  0.19528094098E+02  0.00000000000E+00 0.  1.
</event>
<event>
 7    1  0.6597701E-006  0.2588953E+03  0.7818608E-02  0.1233632E+00
          2   -1    0    0  502    0  0.00000000000E+00  0.00000000000E+00  0.12035182884E+04  0.12035182884E+04  0.00000000000E+00 0. -1.
          1   -1    0    0  501    0 -0.00000000000E+00 -0.00000000000E+00 -0.16692195482E+04  0.16692195482E+04  0.00000000000E+00 0. -1.
         25    2    1    2    0    0 -0.14082522095E+03 -0.14170872599E+03 -0.83061296959E+03  0.86339798219E+03  0.12500025804E+03 0.  0.
          2    1    1    2  501    0 -0.51629435195E+02 -0.32950279128E+02 -0.80681504489E+03  0.80913647560E+03  0.00000000000E+00 0. -1.
          1    1    1    2  502    0  0.19245465615E+03  0.17465900512E+03  0.11717267547E+04  0.12002033788E+04  0.00000000000E+00 0. -1.
         22    1    3    3    0    0 -0.45024383249E+02 -0.13082346153E+03 -0.52588988233E+03  0.54378501406E+03  0.00000000000E+00 0. -1.
         22    1    3    3    0    0 -0.95800837704E+02 -0.10885264460E+02 -0.30472308726E+03  0.31961296813E+03  0.00000000000E+00 0. -1.
</event>
<event>
 7    1  0.6597701E-006  0.1579857E+03  0.7818608E-02  0.1369554E+00
          2   -1    0    0  502    0  0.00000000000E+00  0.00000000000E+00  0.65438376946E+03  0.65438376946E+03  0.00000000000E+00 0. -1.
          1   -1    0    0  501    0 -0.00000000000E+00 -0.00000000000E+00 -0.26305508115E+03  0.26305508115E+03  0.00000000000E+00 0. -1.
         25    2    1    2    0    0  0.29144147847E+02  0.16343741792E+03  0.57337332114E+02  0.21557823832E+03  0.12500094501E+03 0.  0.
          2    1    1    2  501    0 -0.13421021826E+01 -0.15647065724E+03 -0.15015463730E+03  0.21686697056E+03  0.00000000000E+00 0. -1.
          1    1    1    2  502    0 -0.27802045664E+02 -0.69667606783E+01  0.48414599350E+03  0.48499364173E+03  0.00000000000E+00 0. -1.
         22    1    3    3    0    0  0.48686226333E+02  0.99755855628E+01 -0.23716856946E+01  0.49754254441E+02  0.00000000000E+00 0. -1.
         22    1    3    3    0    0 -0.19542078487E+02  0.15346183236E+03  0.59709017809E+02  0.16582398388E+03  0.00000000000E+00 0. -1.
</event>
<event>
 7    1  0.6597701E-006  0.9933551E+02  0.7818608E-02  0.1467943E+00
          2   -1    0    0  502    0  0.00000000000E+00  0.00000000000E+00  0.16208067689E+04  0.16208067689E+04  0.00000000000E+00 0. -1.
          1   -1    0    0  501    0 -0.00000000000E+00 -0.00000000000E+00 -0.21380929280E+03  0.21380929280E+03  0.00000000000E+00 0. -1.
         25    2    1    2    0    0 -0.98733011398E+01 -0.93532719213E+02  0.80499306899E+03  0.82005166964E+03  0.12500019248E+03 0.  0.
          2    1    1    2  501    0  0.19708449058E+02 -0.81834864329E+01 -0.20248709067E+03  0.20360848289E+03  0.00000000000E+00 0. -1.
          1    1    1    2  502    0 -0.98351479180E+01  0.10171620565E+03  0.80449149777E+03  0.81095590917E+03  0.00000000000E+00 0. -1.
         22    1    3    3    0    0 -0.35108894916E+02 -0.11632159488E+03  0.66320943986E+03  0.67424780982E+03  0.00000000000E+00 0. -1.
         22    1    3    3    0    0  0.25235593776E+02  0.22788875666E+02  0.14178362913E+03  0.14580385982E+03  0.00000000000E+00 0. -1.
</event>
<event>
 7    1  0.6597701E-006  0.2003903E+03  0.7818608E-02  0.1294923E+00
          2   -1    0    0  502    0  0.00000000000E+00  0.00000000000E+00  0.25408257093E+03  0.25408257093E+03  0.00000000000E+00 0. -1.
          1   -1    0    0  501    0 -0.00000000000E+00 -0.00000000000E+00 -0.10920453381E+04  0.10920453381E+04  0.00000000000E+00 0. -1.
         25    2    1    2    0    0  0.34827694860E+02  0.23363232784E+03 -0.22031923936E+03  0.34635954445E+03  0.12500933508E+03 0.  0.
          2    1    1    2  501    0 -0.16239679003E+02 -0.40345715068E+02 -0.75858546135E+03  0.75983116945E+03  0.00000000000E+00 0. -1.
          1    1    1    2  502    0 -0.18588015857E+02 -0.19328661277E+03  0.14094193350E+03  0.23993719518E+03  0.00000000000E+00 0. -1.
         22    1    3    3    0    0  0.72135009650E+02  0.18794317879E+03 -0.20052381974E+03  0.28414063482E+03  0.00000000000E+00 0.  1.
         22    1    3    3    0    0 -0.37307314790E+02  0.45689149050E+02 -0.19795419617E+02  0.62218909630E+02  0.00000000000E+00 0.  1.
</event>
<event>
 7    1  0.6597701E-006  0.9124521E+02  0.7818608E-02  0.1433973E+00
          2   -1    0    0  502    0  0.00000000000E+00  0.00000000000E+00  0.36034842586E+04  0.36034842586E+04  0.00000000000E+00 0. -1.
          1   -1    0    0  501    0 -0.00000000000E+00 -0.00000000000E+00 -0.59993704708E+03  0.59993704708E+03  0.00000000000E+00 0. -1.
         25    2    1    2    0    0  0.22117231677E+02  0.83091105832E+02  0.36976308946E+03  0.39968024235E+03  0.12500499987E+03 0.  0.
          2    1    1    2  501    0 -0.28637432872E+02  0.83477819736E+01 -0.58394500038E+03  0.58470638059E+03  0.00000000000E+00 0. -1.
          1    1    1    2  502    0  0.65202011951E+01 -0.91438887805E+02  0.32177291224E+04  0.32190346827E+04  0.00000000000E+00 0. -1.
         22    1    3    3    0    0  0.14965720340E+02 -0.30701887539E+02  0.12637874196E+03  0.13091281489E+03  0.00000000000E+00 0. -1.
         22    1    3    3    0    0  0.71515113369E+01  0.11379299337E+03  0.24338434751E+03  0.26876742746E+03  0.00000000000E+00 0. -1.
</event>
<event>
 7    1  0.6597701E-006  0.4925072E+02  0.7818608E-02  0.1573453E+00
          2   -1    0    0  502    0  0.00000000000E+00  0.00000000000E+00  0.20837997914E+04  0.20837997914E+04  0.00000000000E+00 0. -1.
          1   -1    0    0  501    0 -0.00000000000E+00 -0.00000000000E+00 -0.21262148040E+04  0.21262148040E+04  0.00000000000E+00 0. -1.
         25    2    1    2    0    0  0.11316164156E+02  0.38591178880E+02 -0.13586677930E+04  0.13649985525E+04  0.12500216762E+03 0.  0.
          2    1    1    2  501    0 -0.18695070071E+02  0.10106405182E+02 -0.76394235238E+03  0.76423789675E+03  0.00000000000E+00 0. -1.
          1    1    1    2  502    0  0.73789059143E+01 -0.48697584062E+02  0.20801951328E+04  0.20807781461E+04  0.00000000000E+00 0. -1.
         22    1    3    3    0    0 -0.32521655691E+02 -0.32579879886E+02 -0.59212212233E+03  0.59390884352E+03  0.00000000000E+00 0. -1.
         22    1    3    3    0    0  0.43837819847E+02  0.71171058765E+02 -0.76654567069E+03  0.77108970899E+03  0.00000000000E+00 0. -1.
</event>
<event>
 7    1  0.6597701E-006  0.3638574E+02  0.7818608E-02  0.1609745E+00
          2   -1    0    0  502    0  0.00000000000E+00  0.00000000000E+00  0.54999327531E+03  0.54999327531E+03  0.00000000000E+00 0. -1.
          1   -1    0    0  501    0 -0.00000000000E+00 -0.00000000000E+00 -0.70819478900E+02  0.70819478900E+02  0.00000000000E+00 0. -1.
         25    2    1    2    0    0 -0.49328448964E+01  0.16438029524E+02  0.47500431063E+02  0.13481943532E+03  0.12500178965E+03 0.  0.
          2    1    1    2  501    0 -0.20956588660E+02  0.96409750011E+01 -0.21380024033E+02  0.31452065669E+02  0.00000000000E+00 0. -1.
          1    1    1    2  502    0  0.25889433556E+02 -0.26079004525E+02  0.45305338938E+03  0.45454125322E+03  0.00000000000E+00 0. -1.
         22    1    3    3    0    0 -0.17194938488E+02 -0.11742224685E+02 -0.38347849657E+02  0.43636032398E+02  0.00000000000E+00 0.  1.
         22    1    3    3    0    0  0.12262093592E+02  0.28180254208E+02  0.85848280720E+02  0.91183402925E+02  0.00000000000E+00 0.  1.
</event>
<event>
 7    1  0.6597701E-006  0.3614309E+02  0.7818608E-02  0.1577829E+00
          2   -1    0    0  502    0  0.00000000000E+00  0.00000000000E+00  0.86829697761E+03  0.86829697761E+03  0.00000000000E+00 0. -1.
          1   -1    0    0  501    0 -0.00000000000E+00 -0.00000000000E+00 -0.50430318977E+03  0.50430318977E+03  0.00000000000E+00 0. -1.
         25    2    1    2    0    0  0.25207517359E+02 -0.39665405238E+02  0.45757098300E+02  0.14116450764E+03  0.12499977147E+03 0.  0.
          2    1    1    2  501    0  0.85714375379E+01  0.26847908324E+02 -0.45574280251E+03  0.45661338325E+03  0.00000000000E+00 0. -1.
          1    1    1    2  502    0 -0.33778954897E+02  0.12817496914E+02  0.77397949206E+03  0.77482227649E+03  0.00000000000E+00 0. -1.
         22    1    3    3    0    0  0.71271406455E+01  0.30502120619E+02 -0.24856769428E+02  0.39987929209E+02  0.00000000000E+00 0. -1.
         22    1    3    3    0    0  0.18080376714E+02 -0.70167525857E+02  0.70613867727E+02  0.10117657843E+03  0.00000000000E+00 0. -1.
</event>
<event>
 7    1  0.6597701E-006  0.8610635E+02  0.7818608E-02  0.1383950E+00
          2   -1    0    0  502    0  0.00000000000E+00  0.00000000000E+00  0.20368669529E+04  0.20368669529E+04  0.00000000000E+00 0. -1.
          1   -1    0    0  501    0 -0.00000000000E+00 -0.00000000000E+00 -0.17463096101E+03  0.17463096101E+03  0.00000000000E+00 0. -1.
         25    2    1    2    0    0  0.71881944067E+02  0.27742774594E+02  0.38946707753E+03  0.41622957921E+03  0.12500313077E+03 0.  0.
          2    1    1    2  501    0 -0.19213164205E+02  0.42603516148E+02 -0.15665428339E+03  0.16347712308E+03  0.00000000000E+00 0. -1.
          1    1    1    2  502    0 -0.52668779863E+02 -0.70346290742E+02  0.16294231977E+04  0.16317912116E+04  0.00000000000E+00 0. -1.
         22    1    3    3    0    0  0.18252766701E+02 -0.38458353696E+01 -0.29690732999E+01  0.18888338683E+02  0.00000000000E+00 0. -1.
         22    1    3    3    0    0  0.53629177366E+02  0.31588609963E+02  0.39243615083E+03  0.39734124053E+03  0.00000000000E+00 0. -1.
</event>
<event>
 7    1  0.6597701E-006  0.8477743E+02  0.7818608E-02  0.1339505E+00
          2   -1    0    0  502    0  0.00000000000E+00  0.00000000000E+00  0.12212244335E+03  0.12212244335E+03  0.00000000000E+00 0. -1.
          1   -1    0    0  501    0 -0.00000000000E+00 -0.00000000000E+00 -0.11560105855E+04  0.11560105855E+04  0.00000000000E+00 0. -1.
         25    2    1    2    0    0  0.24072813333E+02  0.66426450108E+02 -0.16053550682E+02  0.14448106823E+03  0.12500035589E+03 0.  0.
          2    1    1    2  501    0 -0.81202236016E+02 -0.27909578078E+02 -0.10528628747E+04  0.10563583581E+04  0.00000000000E+00 0. -1.
          1    1    1    2  502    0  0.57129422682E+02 -0.38516872030E+02  0.35028283255E+02  0.77293602548E+02  0.00000000000E+00 0. -1.
         22    1    3    3    0    0 -0.16697566506E+02  0.93272715020E+02 -0.95894721234E+01  0.95239519476E+02  0.00000000000E+00 0.  1.
         22    1    3    3    0    0  0.40770379839E+02 -0.26846264912E+02 -0.64640785582E+01  0.49241548753E+02  0.00000000000E+00 0.  1.
</event>
<event>
 7    1  0.6597701E-006  0.4528218E+02  0.7818608E-02  0.1477207E+00
          2   -1    0    0  502    0  0.00000000000E+00  0.00000000000E+00  0.89009071374E+03  0.89009071374E+03  0.00000000000E+00 0. -1.
          1   -1    0    0  501    0 -0.00000000000E+00 -0.00000000000E+00 -0.18543242395E+03  0.18543242395E+03  0.00000000000E+00 0. -1.
         25    2    1    2    0    0 -0.65340900212E+01 -0.81279637834E+02  0.21971824923E+03  0.26561068649E+03  0.12499541541E+03 0.  0.
          2    1    1    2  501    0 -0.14102516531E+02  0.42625004212E+02 -0.15862546680E+03  0.16485694003E+03  0.00000000000E+00 0. -1.
          1    1    1    2  502    0  0.20636606552E+02  0.38654633622E+02  0.64356550735E+03  0.64505551117E+03  0.00000000000E+00 0. -1.
         22    1    3    3    0    0 -0.11786093091E+02  0.31820588554E+02  0.33563631403E+02  0.47728180347E+02  0.00000000000E+00 0.  1.
         22    1    3    3    0    0  0.52520030695E+01 -0.11310022639E+03  0.18615461783E+03  0.21788250615E+03  0.00000000000E+00 0.  1.
</event>
<event>
 7    1  0.6597701E-006  0.6728043E+02  0.7818608E-02  0.1385082E+00
          2   -1    0    0  502    0  0.00000000000E+00  0.00000000000E+00  0.18403325688E+03  0.18403325688E+03  0.00000000000E+00 0. -1.
          1   -1    0    0  501    0 -0.00000000000E+00 -0.00000000000E+00 -0.32423003026E+03  0.32423003026E+03  0.00000000000E+00 0. -1.
         25    2    1    2    0    0 -0.35698157594E+02  0.91068031523E+02 -0.34193817544E+02  0.16236239429E+03  0.12499834039E+03 0.  0.
          2    1    1    2  501    0 -0.20033826160E+02 -0.55778319750E+02 -0.21251043108E+03  0.22062016785E+03  0.00000000000E+00 0. -1.
          1    1    1    2  502    0  0.55731983755E+02 -0.35289711773E+02  0.10650747525E+03  0.12528072499E+03  0.00000000000E+00 0. -1.
         22    1    3    3    0    0 -0.68675423841E+02  0.65099943676E+02  0.17019626124E+02  0.96145640462E+02  0.00000000000E+00 0. -1.
         22    1    3    3    0    0  0.32977266247E+02  0.25968087847E+02 -0.51213443668E+02  0.66216753831E+02  0.00000000000E+00 0. -1.
</event>
<event>
 7    1  0.6597701E-006  0.5090173E+02  0.7818608E-02  0.1511161E+00
          2   -1    0    0  502    0  0.00000000000E+00  0.00000000000E+00  0.24990498258E+04  0.24990498258E+04  0.00000000000E+00 0. -1.
          1   -1    0    0  501    0 -0.00000000000E+00 -0.00000000000E+00 -0.47005963568E+02  0.47005963568E+02  0.00000000000E+00 0. -1.
         25    2    1    2    0    0 -0.42918759264E+02  0.33009242077E+02  0.73486802303E+03  0.74738738720E+03  0.12500106125E+03 0.  0.
          2    1    1    2  501    0  0.16216654636E+02 -0.48381146387E+02 -0.24581269554E+02  0.56638803184E+02  0.00000000000E+00 0. -1.
          1    1    1    2  502    0  0.26702104628E+02  0.15371904309E+02  0.17417571088E+04  0.17420295990E+04  0.00000000000E+00 0. -1.
         22    1    3    3    0    0 -0.70259124042E+02  0.27261535247E+02  0.23606963857E+03  0.24780720343E+03  0.00000000000E+00 0.  1.
         22    1    3    3    0    0  0.27340364778E+02  0.57477068308E+01  0.49879838446E+03  0.49958018377E+03  0.00000000000E+00 0.  1.
</event>
<event>
 7    1  0.6597701E-006  0.4509156E+02  0.7818608E-02  0.1488596E+00
          2   -1    0    0  502    0  0.00000000000E+00  0.00000000000E+00  0.56413061437E+03  0.56413061437E+03  0.00000000000E+00 0. -1.
          1   -1    0    0  501    0 -0.00000000000E+00 -0.00000000000E+00 -0.76687236265E+03  0.76687236265E+03  0.00000000000E+00 0. -1.
         25    2    1    2    0    0 -0.52268196868E+01  0.29601043866E+02  0.25141428179E+03  0.28238043907E+03  0.12500411929E+03 0.  0.
          2    1    1    2  501    0 -0.39341993127E+02 -0.10090550138E+02 -0.74884438341E+03  0.74994501278E+03  0.00000000000E+00 0. -1.
          1    1    1    2  502    0  0.44568812814E+02 -0.19510493727E+02  0.29468835335E+03  0.29867752517E+03  0.00000000000E+00 0. -1.
         22    1    3    3    0    0 -0.27075849305E+02 -0.23585225651E+02  0.14729344792E+02  0.38811313848E+02  0.00000000000E+00 0. -1.
         22    1    3    3    0    0  0.21849029619E+02  0.53186269517E+02  0.23668493700E+03  0.24356912522E+03  0.00000000000E+00 0. -1.
</event>
<event>
 7    1  0.6597701E-006  0.8916364E+02  0.7818608E-02  0.1383355E+00
          2   -1    0    0  502    0  0.00000000000E+00  0.00000000000E+00  0.97710195992E+03  0.97710195992E+03  0.00000000000E+00 0. -1.
          1   -1    0    0  501    0 -0.00000000000E+00 -0.00000000000E+00 -0.54638826234E+02  0.54638826234E+02  0.00000000000E+00 0. -1.
         25    2    1    2    0    0 -0.27797469199E+02  0.46103103291E+02  0.36059726118E+03  0.38542874929E+03  0.12500696214E+03 0.  0.
          2    1    1    2  501    0  0.69323796981E+02 -0.64332208760E+02  0.12870532552E+02  0.95446699891E+02  0.00000000000E+00 0. -1.
          1    1    1    2  502    0 -0.41526327782E+02  0.18229105469E+02  0.54899533995E+03  0.55086533697E+03  0.00000000000E+00 0. -1.
         22    1    3    3    0    0 -0.67803540114E+02 -0.72018800679E+01  0.15601411109E+03  0.17026329607E+03  0.00000000000E+00 0. -1.
         22    1    3    3    0    0  0.40006070915E+02  0.53304983359E+02  0.20458315009E+03  0.21516545322E+03  0.00000000000E+00 0. -1.
</event>
<event>
 7    1  0.6597701E-006  0.9274263E+02  0.7818608E-02  0.1350200E+00
          2   -1    0    0  502    0  0.00000000000E+00  0.00000000000E+00  0.18162231751E+03  0.18162231751E+03  0.00000000000E+00 0. -1.
          1   -1    0    0  501    0 -0.00000000000E+00 -0.00000000000E+00 -0.41627105054E+03  0.41627105054E+03  0.00000000000E+00 0. -1.
         25    2    1    2    0    0 -0.57351148261E+02 -0.25209686710E+01 -0.13475689061E+03  0.19256320435E+03  0.12500263442E+03 0.  0.
          2    1    1    2  501    0 -0.26695398381E+02  0.50870559780E+02 -0.23337804157E+03  0.24034510278E+03  0.00000000000E+00 0. -1.
          1    1    1    2  502    0  0.84046546641E+02 -0.48349591109E+02  0.13348619914E+03  0.16498506091E+03  0.00000000000E+00 0. -1.
         22    1    3    3    0    0 -0.91492739239E+02 -0.19787639100E+01 -0.12864512324E+03  0.15787464829E+03  0.00000000000E+00 0. -1.
         22    1    3    3    0    0  0.34141590979E+02 -0.54220476102E+00 -0.61117673680E+01  0.34688556051E+02  0.00000000000E+00 0. -1.
</event>
<event>
 7    1  0.6597701E-006  0.6681014E+02  0.7818608E-02  0.1461649E+00
          2   -1    0    0  502    0  0.00000000000E+00  0.00000000000E+00  0.15003112076E+04  0.15003112076E+04  0.00000000000E+00 0. -1.
          1   -1    0    0  501    0 -0.00000000000E+00 -0.00000000000E+00 -0.35737494356E+02  0.35737494356E+02  0.00000000000E+00 0. -1.
         25    2    1    2    0    0  0.54752482939E+02  0.52350195613E+02  0.39283247747E+03  0.41914259002E+03  0.12499911218E+03 0.  0.
          2    1    1    2  501    0 -0.63374622692E+02 -0.20286298741E+02  0.27279813048E+02  0.71917069726E+02  0.00000000000E+00 0. -1.
          1    1    1    2  502    0  0.86221397536E+01 -0.32063896872E+02  0.10444614228E+04  0.10449890422E+04  0.00000000000E+00 0. -1.
         22    1    3    3    0    0  0.39305579200E+02  0.91368137261E+02  0.31981891930E+03  0.33492865838E+03  0.00000000000E+00 0. -1.
         22    1    3    3    0    0  0.15446903739E+02 -0.39017941648E+02  0.73013558173E+02  0.84213931642E+02  0.00000000000E+00 0. -1.
</event>
<event>
 7    1  0.6597701E-006  0.4629776E+02  0.7818608E-02  0.1470675E+00
          2   -1    0    0  502    0  0.00000000000E+00  0.00000000000E+00  0.49495142260E+02  0.49495142260E+02  0.00000000000E+00 0. -1.
          1   -1    0    0  501    0 -0.00000000000E+00 -0.00000000000E+00 -0.32977824559E+04  0.32977824559E+04  0.00000000000E+00 0. -1.
         25    2    1    2    0    0 -0.39547331030E+01  0.85462734237E+00 -0.77780000553E+03  0.78778938828E+03  0.12499160529E+03 0.  0.
          2    1    1    2  501    0  0.17780178301E+02  0.43330657212E+02 -0.25026671441E+04  0.25031053743E+04  0.00000000000E+00 0. -1.
          1    1    1    2  502    0 -0.13825445198E+02 -0.44185284555E+02  0.32179835985E+02  0.56382835598E+02  0.00000000000E+00 0. -1.
         22    1    3    3    0    0 -0.13464674581E+02 -0.59365879432E+02 -0.47738040240E+03  0.48124593889E+03  0.00000000000E+00 0. -1.
         22    1    3    3    0    0  0.95099414776E+01  0.60220506775E+02 -0.30041960313E+03  0.30654344939E+03  0.00000000000E+00 0. -1.
</event>
<event>
 7    1  0.6597701E-006  0.3452800E+02  0.7818608E-02  0.1637608E+00
          2   -1    0    0  502    0  0.00000000000E+00  0.00000000000E+00  0.13962199180E+04  0.13962199180E+04  0.00000000000E+00 0. -1.
          1   -1    0    0  501    0 -0.00000000000E+00 -0.00000000000E+00 -0.11988511238E+04  0.11988511238E+04  0.00000000000E+00 0. -1.
         25    2    1    2    0    0  0.33070744175E+02 -0.43395247810E+02  0.20126710514E+03  0.24312507299E+03  0.12499812739E+03 0.  0.
          2    1    1    2  501    0 -0.17643095407E+02  0.29653993486E+02 -0.11775785106E+04  0.11780839473E+04  0.00000000000E+00 0. -1.
          1    1    1    2  502    0 -0.15427648768E+02  0.13741254323E+02  0.11736801997E+04  0.11738620215E+04  0.00000000000E+00 0. -1.
         22    1    3    3    0    0  0.42780727102E+01  0.29809834468E+02  0.14058831390E+03  0.14377761350E+03  0.00000000000E+00 0. -1.
         22    1    3    3    0    0  0.28792671465E+02 -0.73205082278E+02  0.60678791237E+02  0.99347459491E+02  0.00000000000E+00 0. -1.
</event>
<event>
 7    1  0.6597701E-006  0.1131347E+03  0.7818608E-02  0.1373682E+00
          2   -1    0    0  502    0  0.00000000000E+00  0.00000000000E+00  0.80664311505E+03  0.80664311505E+03  0.00000000000E+00 0. -1.
          1   -1    0    0  501    0 -0.00000000000E+00 -0.00000000000E+00 -0.10485780952E+04  0.10485780952E+04  0.00000000000E+00 0. -1.
         25    2    1    2    0    0 -0.88090468777E+02 -0.40590651505E+01 -0.37147346758E+03  0.40173889134E+03  0.12500077199E+03 0.  0.
          2    1    1    2  501    0  0.12019444488E+03  0.25639238404E+02 -0.65578754846E+03  0.66720415455E+03  0.00000000000E+00 0. -1.
          1    1    1    2  502    0 -0.32103976103E+02 -0.21580173254E+02  0.78532603587E+03  0.78627816438E+03  0.00000000000E+00 0. -1.
         22    1    3    3    0    0 -0.19491327636E+02  0.57542330797E+02 -0.14412594895E+03  0.15640754728E+03  0.00000000000E+00 0. -1.
         22    1    3    3    0    0 -0.68599141141E+02 -0.61601395948E+02 -0.22734751863E+03  0.24533134406E+03  0.00000000000E+00 0. -1.
</event>
<event>
 7    1  0.6597701E-006  0.7034587E+02  0.7818608E-02  0.1438528E+00
          2   -1    0    0  502    0  0.00000000000E+00  0.00000000000E+00  0.82225566213E+02  0.82225566213E+02  0.00000000000E+00 0. -1.
          1   -1    0    0  501    0 -0.00000000000E+00 -0.00000000000E+00 -0.39502619843E+03  0.39502619843E+03  0.00000000000E+00 0. -1.
         25    2    1    2    0    0 -0.88780238300E+02  0.36539089078E+02 -0.11438201156E+03  0.19474555065E+03  0.12500219672E+03 0.  0.
          2    1    1    2  501    0  0.22764694768E+02 -0.29660959745E+02 -0.21156529767E+03  0.21484384804E+03  0.00000000000E+00 0. -1.
          1    1    1    2  502    0  0.66015543532E+02 -0.68781293328E+01  0.13146677014E+02  0.67662365961E+02  0.00000000000E+00 0. -1.
         22    1    3    3    0    0 -0.23226905280E+02 -0.49629929708E+01  0.25462321537E+02  0.34820256262E+02  0.00000000000E+00 0.  1.
         22    1    3    3    0    0 -0.65553333020E+02  0.41502082049E+02 -0.13984433310E+03  0.15992529438E+03  0.00000000000E+00 0.  1.
</event>
<event>
 7    1  0.6597701E-006  0.1000243E+03  0.7818608E-02  0.1356012E+00
          2   -1    0    0  502    0  0.00000000000E+00  0.00000000000E+00  0.36536182288E+04  0.36536182288E+04  0.00000000000E+00 0. -1.
          1   -1    0    0  501    0 -0.00000000000E+00 -0.00000000000E+00 -0.89489100273E+02  0.89489100273E+02  0.00000000000E+00 0. -1.
         25    2    1    2    0    0 -0.58634576043E+02 -0.28209848036E+02  0.11521724629E+04  0.11607586708E+04  0.12500199486E+03 0.  0.
          2    1    1    2  501    0  0.10109354722E+03  0.49750641361E+00 -0.54853388074E+02  0.11501759424E+03  0.00000000000E+00 0. -1.
          1    1    1    2  502    0 -0.42458971174E+02  0.27712341623E+02  0.24668100538E+04  0.24673310640E+04  0.00000000000E+00 0. -1.
         22    1    3    3    0    0 -0.14057991387E+02 -0.68519001193E+02  0.39018752877E+03  0.39640735141E+03  0.00000000000E+00 0.  1.
         22    1    3    3    0    0 -0.44576584657E+02  0.40309153157E+02  0.76198493410E+03  0.76435131944E+03  0.00000000000E+00 0.  1.
</event>
<event>
 7    1  0.6597701E-006  0.7305641E+02  0.7818608E-02  0.1456886E+00
          2   -1    0    0  502    0  0.00000000000E+00  0.00000000000E+00  0.14170118031E+04  0.14170118031E+04  0.00000000000E+00 0. -1.
          1   -1    0    0  501    0 -0.00000000000E+00 -0.00000000000E+00 -0.11012176589E+03  0.11012176589E+03  0.00000000000E+00 0. -1.
         25    2    1    2    0    0  0.49254666718E+02 -0.17325085523E+02  0.37811592918E+03  0.40164983565E+03  0.12499901519E+03 0.  0.
          2    1    1    2  501    0  0.26599075995E+02  0.16751287821E+02 -0.94402810350E+02  0.99498779336E+02  0.00000000000E+00 0. -1.
          1    1    1    2  502    0 -0.75853742713E+02  0.57379770180E+00  0.10231769183E+04  0.10259849540E+04  0.00000000000E+00 0. -1.
         22    1    3    3    0    0  0.73527141216E+02 -0.80496473938E+01  0.11170083941E+03  0.13397057454E+03  0.00000000000E+00 0. -1.
         22    1    3    3    0    0 -0.24272474498E+02 -0.92754381294E+01  0.26641508977E+03  0.26767926111E+03  0.00000000000E+00 0. -1.
</event>
<event>
 7    1  0.6597701E-006  0.5742929E+02  0.7818608E-02  0.1419623E+00
          2   -1    0    0  502    0  0.00000000000E+00  0.00000000000E+00  0.43128211982E+02  0.43128211982E+02  0.00000000000E+00 0. -1.
          1   -1    0    0  501    0 -0.00000000000E+00 -0.00000000000E+00 -0.17459770455E+04  0.17459770455E+04  0.00000000000E+00 0. -1.
         25    2    1    2    0    0 -0.10720709538E+02  0.68713201506E+02 -0.93633027222E+03  0.94719374644E+03  0.12500070779E+03 0.  0.
          2    1    1    2  501    0  0.47119580649E+02 -0.23971431812E+02 -0.78072275749E+03  0.78251064433E+03  0.00000000000E+00 0. -1.
          1    1    1    2  502    0 -0.36398871111E+02 -0.44741769693E+02  0.14204196214E+02  0.59400866690E+02  0.00000000000E+00 0. -1.
         22    1    3    3    0    0 -0.24498706453E+02  0.28080097926E+01 -0.32188093666E+02  0.40548056806E+02  0.00000000000E+00 0.  1.
         22    1    3    3    0    0  0.13777996915E+02  0.65905191713E+02 -0.90414217855E+03  0.90664568963E+03  0.00000000000E+00 0.  1.
</event>
<event>
 7    1  0.6597701E-006  0.1118132E+03  0.7818608E-02  0.1298998E+00
          2   -1    0    0  502    0  0.00000000000E+00  0.00000000000E+00  0.12197599542E+04  0.12197599542E+04  0.00000000000E+00 0. -1.
          1   -1    0    0  501    0 -0.00000000000E+00 -0.00000000000E+00 -0.39376736329E+03  0.39376736329E+03  0.00000000000E+00 0. -1.
         25    2    1    2    0    0 -0.39440484237E+02  0.39003970417E+02  0.23067476133E+03  0.26816436583E+03  0.12499768031E+03 0.  0.
          2    1    1    2  501    0  0.11222500007E+03 -0.20670317393E+02 -0.36484327559E+03  0.38227258390E+03  0.00000000000E+00 0. -1.
          1    1    1    2  502    0 -0.72784515836E+02 -0.18333653024E+02  0.96016110514E+03  0.96309036773E+03  0.00000000000E+00 0. -1.
         22    1    3    3    0    0  0.95511274753E+01 -0.33951357793E+02  0.21565581644E+02  0.41339969082E+02  0.00000000000E+00 0. -1.
         22    1    3    3    0    0 -0.48991611712E+02  0.72955328210E+02  0.20910917968E+03  0.22682439675E+03  0.00000000000E+00 0. -1.
</event>
<event>
 7    1  0.6597701E-006  0.5537127E+02  0.7818608E-02  0.1429224E+00
          2   -1    0    0  502    0  0.00000000000E+00  0.00000000000E+00  0.58381063797E+03  0.58381063797E+03  0.00000000000E+00 0. -1.
          1   -1    0    0  501    0 -0.00000000000E+00 -0.00000000000E+00 -0.10936595576E+04  0.10936595576E+04  0.00000000000E+00 0. -1.
         25    2    1    2    0    0  0.21510136205E+02 -0.31298531111E+02  0.35333560898E+03  0.37671498426E+03  0.12500337107E+03 0.  0.
          2    1    1    2  501    0 -0.37298749446E+02 -0.34713172565E+02 -0.10760884137E+04  0.10772940523E+04  0.00000000000E+00 0. -1.
          1    1    1    2  502    0  0.15788613241E+02  0.66011703676E+02  0.21290388504E+03  0.22346115903E+03  0.00000000000E+00 0. -1.
         22    1    3    3    0    0  0.42619849098E+02  0.38551290102E+02  0.16624648884E+03  0.17589925684E+03  0.00000000000E+00 0.  1.
         22    1    3    3    0    0 -0.21109712893E+02 -0.69849821214E+02  0.18708912014E+03  0.20081572742E+03  0.00000000000E+00 0.  1.
</event>
<event>
 7    1  0.6597701E-006  0.1158079E+03  0.7818608E-02  0.1343582E+00
          2   -1    0    0  502    0  0.00000000000E+00  0.00000000000E+00  0.10591231033E+04  0.10591231033E+04  0.00000000000E+00 0. -1.
          1   -1    0    0  501    0 -0.00000000000E+00 -0.00000000000E+00 -0.32630844618E+03  0.32630844618E+03  0.00000000000E+00 0. -1.
         25    2    1    2    0    0 -0.14107926154E+02 -0.10418976448E+03  0.26409728367E+03  0.31052946158E+03  0.12500652249E+03 0.  0.
          2    1    1    2  501    0 -0.34031466767E+02  0.11151144861E+03 -0.29107221710E+03  0.31355379039E+03  0.00000000000E+00 0. -1.
          1    1    1    2  502    0  0.48139392921E+02 -0.73216841370E+01  0.75978959055E+03  0.76134829750E+03  0.00000000000E+00 0. -1.
         22    1    3    3    0    0  0.17317517828E+02 -0.31801674210E+02  0.14034289323E+01  0.36238274228E+02  0.00000000000E+00 0.  1.
         22    1    3    3    0    0 -0.31425443982E+02 -0.72388090267E+02  0.26269385473E+03  0.27429118735E+03  0.00000000000E+00 0.  1.
</event>
<event>
 7    1  0.6597701E-006  0.1035985E+03  0.7818608E-02  0.1329605E+00
          2   -1    0    0  502    0  0.00000000000E+00  0.00000000000E+00  0.39754546705E+04  0.39754546705E+04  0.00000000000E+00 0. -1.
          1   -1    0    0  501    0 -0.00000000000E+00 -0.00000000000E+00 -0.45907427864E+02  0.45907427864E+02  0.00000000000E+00 0. -1.
         25    2    1    2    0    0  0.11179990685E+02 -0.63443348659E+02  0.65022228551E+03  0.66525090020E+03  0.12497875406E+03 0.  0.
          2    1    1    2  501    0 -0.68863933009E+02  0.84702342341E+02  0.40089300536E+02  0.11629221851E+03  0.00000000000E+00 0. -1.
          1    1    1    2  502    0  0.57683942324E+02 -0.21258993682E+02  0.32392356566E+04  0.32398189797E+04  0.00000000000E+00 0. -1.
         22    1    3    3    0    0  0.62735636697E+02 -0.61193398465E+02  0.36297224279E+03  0.37340225115E+03  0.00000000000E+00 0. -1.
         22    1    3    3    0    0 -0.51555646012E+02 -0.22499501935E+01  0.28725004271E+03  0.29184864905E+03  0.00000000000E+00 0. -1.
</event>
<event>
 7    1  0.6597701E-006  0.8941279E+02  0.7818608E-02  0.1458204E+00
          2   -1    0    0  502    0  0.00000000000E+00  0.00000000000E+00  0.11059436930E+04  0.11059436930E+04  0.00000000000E+00 0. -1.
          1   -1    0    0  501    0 -0.00000000000E+00 -0.00000000000E+00 -0.16486329297E+03  0.16486329297E+03  0.00000000000E+00 0. -1.
         25    2    1    2    0    0 -0.83915393283E+02 -0.34818381154E+02  0.13472079336E+03  0.20501055118E+03  0.12500208412E+03 0.  0.
          2    1    1    2  501    0  0.89033952265E+02  0.99002973351E+01 -0.11405539119E+03  0.14502997209E+03  0.00000000000E+00 0. -1.
          1    1    1    2  502    0 -0.51185589824E+01  0.24918083819E+02  0.92041499783E+03  0.92076646267E+03  0.00000000000E+00 0. -1.
         22    1    3    3    0    0 -0.47971898113E+02 -0.80345038586E+02  0.63177946781E+02  0.11290740097E+03  0.00000000000E+00 0. -1.
         22    1    3    3    0    0 -0.35943495170E+02  0.45526657432E+02  0.71542846577E+02  0.92103150208E+02  0.00000000000E+00 0. -1.
</event>
<event>
 7    1  0.6597701E-006  0.1143210E+03  0.7818608E-02  0.1327394E+00
          2   -1    0    0  502    0  0.00000000000E+00  0.00000000000E+00  0.67290026225E+02  0.67290026225E+02  0.00000000000E+00 0. -1.
          1   -1    0    0  501    0 -0.00000000000E+00 -0.00000000000E+00 -0.27117170989E+04  0.27117170989E+04  0.00000000000E+00 0. -1.
         25    2    1    2    0    0  0.31059413903E+02 -0.15902303453E+03 -0.12966967212E+03  0.24226382459E+03  0.12499809652E+03 0.  0.
          2    1    1    2  501    0 -0.45027820212E+02  0.10396015956E+03 -0.24410864257E+04  0.24437140088E+04  0.00000000000E+00 0. -1.
          1    1    1    2  502    0  0.13968406309E+02  0.55062874961E+02 -0.73670974858E+02  0.93029291679E+02  0.00000000000E+00 0. -1.
         22    1    3    3    0    0  0.57246582494E+01 -0.28170693463E+02 -0.10221871367E+03  0.10618392113E+03  0.00000000000E+00 0.  1.
         22    1    3    3    0    0  0.25334755653E+02 -0.13085234106E+03 -0.27450958454E+02  0.13607990346E+03  0.00000000000E+00 0.  1.
</event>
<event>
 7    1  0.6597701E-006  0.7708151E+02  0.7818608E-02  0.1488763E+00
          2   -1    0    0  502    0  0.00000000000E+00  0.00000000000E+00  0.54543019956E+02  0.54543019956E+02  0.00000000000E+00 0. -1.
          1   -1    0    0  501    0 -0.00000000000E+00 -0.00000000000E+00 -0.10670029606E+04  0.10670029606E+04  0.00000000000E+00 0. -1.
         25    2    1    2    0    0 -0.64733443067E+02  0.22537361219E+02 -0.24529845036E+03  0.28371685638E+03  0.12500229415E+03 0.  0.
          2    1    1    2  501    0  0.78152529983E+02 -0.29638590321E+01 -0.79636653648E+03  0.80019763986E+03  0.00000000000E+00 0. -1.
          1    1    1    2  502    0 -0.13419086916E+02 -0.19573502187E+02  0.29205046251E+02  0.37631484266E+02  0.00000000000E+00 0. -1.
         22    1    3    3    0    0 -0.97507693267E+02  0.22952792362E+01 -0.20966802992E+03  0.23124381359E+03  0.00000000000E+00 0.  1.
         22    1    3    3    0    0  0.32774250200E+02  0.20242081982E+02 -0.35630420446E+02  0.52473042796E+02  0.00000000000E+00 0.  1.
</event>
<event>
 7    1  0.6597701E-006  0.3693521E+03  0.7818608E-02  0.1229879E+00
          2   -1    0    0  502    0  0.00000000000E+00  0.00000000000E+00  0.20604855195E+04  0.20604855195E+04  0.00000000000E+00 0. -1.
          1   -1    0    0  501    0 -0.00000000000E+00 -0.00000000000E+00 -0.17730833805E+04  0.17730833805E+04  0.00000000000E+00 0. -1.
         25    2    1    2    0    0  0.14053091486E+03  0.29609144021E+03  0.48963193263E+03  0.60231482929E+03  0.12499858056E+03 0.  0.
          2    1    1    2  501    0 -0.14796762393E+03 -0.34009017713E+03 -0.16963734407E+04  0.17364442394E+04  0.00000000000E+00 0. -1.
          1    1    1    2  502    0  0.74367090771E+01  0.43998736920E+02  0.14941436471E+04  0.14948098312E+04  0.00000000000E+00 0. -1.
         22    1    3    3    0    0  0.51798814311E+02  0.37088365254E+02  0.38002549630E+02  0.74181249515E+02  0.00000000000E+00 0.  1.
         22    1    3    3    0    0  0.88732100547E+02  0.25900307495E+03  0.45162938300E+03  0.52813357978E+03  0.00000000000E+00 0.  1.
</event>
<event>
 7    1  0.6597701E-006  0.1904887E+03  0.7818608E-02  0.1272420E+00
          2   -1    0    0  502    0  0.00000000000E+00  0.00000000000E+00  0.19877008973E+04  0.19877008973E+04  0.00000000000E+00 0. -1.
          1   -1    0    0  501    0 -0.00000000000E+00 -0.00000000000E+00 -0.83876724656E+03  0.83876724656E+03  0.00000000000E+00 0. -1.
         25    2    1    2    0    0 -0.41534746425E+02 -0.23666761752E+03 -0.59608471738E+02  0.27734250687E+03  0.12501599846E+03 0.  0.
          2    1    1    2  501    0 -0.12079601351E+02  0.55302884828E+02 -0.66432574030E+03  0.66673309133E+03  0.00000000000E+00 0. -1.
          1    1    1    2  502    0  0.53614347776E+02  0.18136473269E+03  0.18728678627E+04  0.18823925456E+04  0.00000000000E+00 0. -1.
         22    1    3    3    0    0 -0.69129257619E+02 -0.67386088196E+02 -0.25075478345E+01  0.96571356713E+02  0.00000000000E+00 0.  1.
         22    1    3    3    0    0  0.27594511193E+02 -0.16928152932E+03 -0.57100923903E+02  0.18077115015E+03  0.00000000000E+00 0.  1.
</event>
<event>
 7    1  0.6597701E-006  0.1384645E+03  0.7818608E-02  0.1363221E+00
          2   -1    0    0  502    0  0.00000000000E+00  0.00000000000E+00  0.21076510877E+04  0.21076510877E+04  0.00000000000E+00 0. -1.
          1   -1    0    0  501    0 -0.00000000000E+00 -0.00000000000E+00 -0.33689277900E+03  0.33689277900E+03  0.00000000000E+00 0. -1.
         25    2    1    2    0    0  0.22231100968E+02  0.13626600253E+03  0.21211645519E+03  0.28227758665E+03  0.12499840025E+03 0.  0.
          2    1    1    2  501    0 -0.55482909098E+02 -0.12717389486E+03 -0.28569600028E+03  0.31760629294E+03  0.00000000000E+00 0. -1.
          1    1    1    2  502    0  0.33251808129E+02 -0.90921076619E+01  0.18443378538E+04  0.18446599871E+04  0.00000000000E+00 0. -1.
         22    1    3    3    0    0 -0.54802225674E+01  0.11998246810E+03  0.21866125363E+03  0.24947659075E+03  0.00000000000E+00 0.  1.
         22    1    3    3    0    0  0.27711323536E+02  0.16283534428E+02 -0.65447984378E+01  0.32800995902E+02  0.00000000000E+00 0.  1.
</event>
<event>
 7    1  0.6597701E-006  0.4988498E+02  0.7818608E-02  0.1538468E+00
          2   -1    0    0  502    0  0.00000000000E+00  0.00000000000E+00  0.12948446647E+04  0.12948446647E+04  0.00000000000E+00 0. -1.
          1   -1    0    0  501    0 -0.00000000000E+00 -0.00000000000E+00 -0.43441635018E+03  0.43441635018E+03  0.00000000000E+00 0. -1.
         25    2    1    2    0    0 -0.57896680414E+02 -0.58386826943E+01  0.43704040139E+02  0.14463478552E+03  0.12499224871E+03 0.  0.
          2    1    1    2  501    0  0.15818424701E+02 -0.20913985897E+02 -0.38298476998E+03  0.38388142884E+03  0.00000000000E+00 0. -1.
          1    1    1    2  502    0  0.42078255712E+02  0.26752668591E+02  0.11997090444E+04  0.12007448006E+04  0.00000000000E+00 0. -1.
         22    1    3    3    0    0 -0.56631708853E+02  0.47039354625E+01 -0.33991479578E+02  0.66217053244E+02  0.00000000000E+00 0. -1.
         22    1    3    3    0    0 -0.12649715604E+01 -0.10542618157E+02  0.77695519717E+02  0.78417732273E+02  0.00000000000E+00 0. -1.
</event>
<event>
 7    1  0.6597701E-006  0.1189433E+03  0.7818608E-02  0.1353673E+00
          2   -1    0    0  502    0  0.00000000000E+00  0.00000000000E+00  0.35967694829E+03  0.35967694829E+03  0.00000000000E+00 0. -1.
          1   -1    0    0  501    0 -0.00000000000E+00 -0.00000000000E+00 -0.83159671908E+03  0.83159671908E+03  0.00000000000E+00 0. -1.
         25    2    1    2    0    0 -0.79516473759E+02 -0.11449233371E+02 -0.74967592126E+02  0.16644142337E+03  0.12501461115E+03 0.  0.
          2    1    1    2  501    0  0.12110327817E+03  0.24176867903E+02 -0.70398500214E+03  0.71473450187E+03  0.00000000000E+00 0. -1.
          1    1    1    2  502    0 -0.41586804414E+02 -0.12727634532E+02  0.30703282347E+03  0.31009774212E+03  0.00000000000E+00 0. -1.
         22    1    3    3    0    0 -0.73924469487E+02  0.45557403615E+02 -0.24823180488E+02  0.90313312986E+02  0.00000000000E+00 0.  1.
         22    1    3    3    0    0 -0.55920042721E+01 -0.57006636986E+02 -0.50144411638E+02  0.76128110385E+02  0.00000000000E+00 0.  1.
</event>
<event>
 7    1  0.6597701E-006  0.1196360E+03  0.7818608E-02  0.1416392E+00
          2   -1    0    0  502    0  0.00000000000E+00  0.00000000000E+00  0.82865043308E+03  0.82865043308E+03  0.00000000000E+00 0. -1.
          1   -1    0    0  501    0 -0.00000000000E+00 -0.00000000000E+00 -0.55034218339E+03  0.55034218339E+03  0.00000000000E+00 0. -1.
         25    2    1    2    0    0 -0.56774231480E+02  0.75147311287E+02 -0.21750442987E+03  0.26796254831E+03  0.12500127411E+03 0.  0.
          2    1    1    2  501    0 -0.13623000325E+02  0.22166652857E+02 -0.30255839292E+03  0.30367503645E+03  0.00000000000E+00 0. -1.
          1    1    1    2  502    0  0.70397231805E+02 -0.97313964145E+02  0.79837107248E+03  0.80735503171E+03  0.00000000000E+00 0. -1.
         22    1    3    3    0    0 -0.57573893192E+02  0.57692995515E+02 -0.42187370393E+02  0.91776953150E+02  0.00000000000E+00 0. -1.
         22    1    3    3    0    0  0.79966171200E+00  0.17454315772E+02 -0.17531705948E+03  0.17618559516E+03  0.00000000000E+00 0. -1.
</event>
<event>
 7    1  0.6597701E-006  0.5974813E+02  0.7818608E-02  0.1527397E+00
          2   -1    0    0  502    0  0.00000000000E+00  0.00000000000E+00  0.42449359024E+02  0.42449359024E+02  0.00000000000E+00 0. -1.
          1   -1    0    0  501    0 -0.00000000000E+00 -0.00000000000E+00 -0.11961910274E+04  0.11961910274E+04  0.00000000000E+00 0. -1.
         25    2    1    2    0    0 -0.19314625952E+02 -0.36424304723E+02 -0.25187465328E+03  0.28419454156E+03  0.12500364689E+03 0.  0.
          2    1    1    2  501    0  0.41290355367E+02  0.44878675203E+02 -0.92166645885E+03  0.92368179061E+03  0.00000000000E+00 0. -1.
          1    1    1    2  502    0 -0.21975729415E+02 -0.84543704801E+01  0.19799443732E+02  0.30764054278E+02  0.00000000000E+00 0. -1.
         22    1    3    3    0    0  0.20680658946E+01 -0.50928293968E+00 -0.24099364111E+03  0.24100305251E+03  0.00000000000E+00 0. -1.
         22    1    3    3    0    0 -0.21382691846E+02 -0.35915021783E+02 -0.10881012174E+02  0.43191489048E+02  0.00000000000E+00 0. -1.
</event>
<event>
 7    1  0.6597701E-006  0.1845977E+03  0.7818608E-02  0.1207743E+00
          2   -1    0    0  502    0  0.00000000000E+00  0.00000000000E+00  0.19623126820E+04  0.19623126820E+04  0.00000000000E+00 0. -1.
          1   -1    0    0  501    0 -0.00000000000E+00 -0.00000000000E+00 -0.20272455684E+03  0.20272455684E+03  0.00000000000E+00 0. -1.
         25    2    1    2    0    0 -0.32597283326E+02 -0.17635834817E+03  0.58534596350E+03  0.62483569749E+03  0.12499960806E+03 0.  0.
          2    1    1    2  501    0 -0.79900469469E+02  0.16968273407E+03 -0.13184691927E+03  0.22925951536E+03  0.00000000000E+00 0. -1.
          1    1    1    2  502    0  0.11249775279E+03  0.66756141008E+01  0.13060890809E+04  0.13109420260E+04  0.00000000000E+00 0. -1.
         22    1    3    3    0    0 -0.43649681776E+02 -0.39060401864E+02  0.69377039264E+02  0.90797485042E+02  0.00000000000E+00 0.  1.
         22    1    3    3    0    0  0.11052398451E+02 -0.13729794631E+03  0.51596892424E+03  0.53403821245E+03  0.00000000000E+00 0.  1.
</event>
<event>
 7    1  0.6597701E-006  0.1982370E+03  0.7818608E-02  0.1240657E+00
          2   -1    0    0  502    0  0.00000000000E+00  0.00000000000E+00  0.10307660259E+04  0.10307660259E+04  0.00000000000E+00 0. -1.
          1   -1    0    0  501    0 -0.00000000000E+00 -0.00000000000E+00 -0.23585036013E+03  0.23585036013E+03  0.00000000000E+00 0. -1.
         25    2    1    2    0    0 -0.17620860896E+03  0.44364369788E+02 -0.18002923890E+02  0.22128527509E+03  0.12500158609E+03 0.  0.
          2    1    1    2  501    0 -0.22893430682E+02 -0.70850153488E+02 -0.92019793570E+02  0.11837016443E+03  0.00000000000E+00 0. -1.
          1    1    1    2  502    0  0.19910203964E+03  0.26485783699E+02  0.90493838323E+03  0.92696094652E+03  0.00000000000E+00 0. -1.
         22    1    3    3    0    0 -0.17235523575E+03 -0.33763137152E+01 -0.18573023300E+02  0.17338593940E+03  0.00000000000E+00 0. -1.
         22    1    3    3    0    0 -0.38533732047E+01  0.47740683503E+02  0.57009941009E+00  0.47899335692E+02  0.00000000000E+00 0. -1.
</event>
<event>
 7    1  0.6597701E-006  0.2145530E+03  0.7818608E-02  0.1197785E+00
          2   -1    0    0  502    0  0.00000000000E+00  0.00000000000E+00  0.13771820779E+04  0.13771820779E+04  0.00000000000E+00 0. -1.
          1   -1    0    0  501    0 -0.00000000000E+00 -0.00000000000E+00 -0.14131939374E+04  0.14131939374E+04  0.00000000000E+00 0. -1.
         25    2    1    2    0    0  0.40131622323E+02  0.28142103661E+03  0.47796083709E+02  0.31419377734E+03  0.12499966858E+03 0.  0.
          2    1    1    2  501    0  0.54480531252E+02 -0.93229063937E+02 -0.12684105836E+04  0.12729985056E+04  0.00000000000E+00 0. -1.
          1    1    1    2  502    0 -0.94612153575E+02 -0.18819197267E+03  0.11846026404E+04  0.12031837324E+04  0.00000000000E+00 0. -1.
         22    1    3    3    0    0  0.41401120867E+01  0.10486167171E+03 -0.41794768726E+02  0.11295978671E+03  0.00000000000E+00 0.  1.
         22    1    3    3    0    0  0.35991510236E+02  0.17655936490E+03  0.89590852435E+02  0.20123399062E+03  0.00000000000E+00 0.  1.
</event>
<event>
 7    1  0.6597701E-006  0.1045407E+03  0.7818608E-02  0.1357206E+00
          2   -1    0    0  502    0  0.00000000000E+00  0.00000000000E+00  0.89723306334E+03  0.89723306334E+03  0.00000000000E+00 0. -1.
          1   -1    0    0  501    0 -0.00000000000E+00 -0.00000000000E+00 -0.11488532827E+03  0.11488532827E+03  0.00000000000E+00 0. -1.
         25    2    1    2    0    0 -0.13956911604E+02  0.74100557994E+02  0.11514105175E+03  0.18592586504E+03  0.12500110967E+03 0.  0.
          2    1    1    2  501    0 -0.15142341336E+02 -0.11230595732E+03 -0.37869777364E+02  0.11948237773E+03  0.00000000000E+00 0. -1.
          1    1    1    2  502    0  0.29099252940E+02  0.38205399326E+02  0.70507646068E+03  0.70671014884E+03  0.00000000000E+00 0. -1.
         22    1    3    3    0    0 -0.59202358264E+02  0.75535670016E+02  0.54875882888E+02  0.11055278916E+03  0.00000000000E+00 0. -1.
         22    1    3    3    0    0  0.45245446661E+02 -0.14351120216E+01  0.60265168862E+02  0.75373075882E+02  0.00000000000E+00 0. -1.
</event>
<event>
 7    1  0.6597701E-006  0.8736156E+02  0.7818608E-02  0.1412498E+00
          2   -1    0    0  502    0  0.00000000000E+00  0.00000000000E+00  0.10772688972E+04  0.10772688972E+04  0.00000000000E+00 0. -1.
          1   -1    0    0  501    0 -0.00000000000E+00 -0.00000000000E+00 -0.30400896377E+04  0.30400896377E+04  0.00000000000E+00 0. -1.
         25    2    1    2    0    0  0.48797775839E+02  0.20176939890E+02 -0.13299697241E+03  0.19000376064E+03  0.12499961022E+03 0.  0.
          2    1    1    2  501    0 -0.75829826891E+02 -0.45032303133E+02 -0.28775920235E+04  0.28789431958E+04  0.00000000000E+00 0. -1.
          1    1    1    2  502    0  0.27032051052E+02  0.24855363243E+02  0.10477682554E+04  0.10484115785E+04  0.00000000000E+00 0. -1.
         22    1    3    3    0    0  0.34060552569E+02  0.72223124679E+02 -0.64022328100E+02  0.10234822654E+03  0.00000000000E+00 0. -1.
         22    1    3    3    0    0  0.14737223270E+02 -0.52046184789E+02 -0.68974644314E+02  0.87655534104E+02  0.00000000000E+00 0. -1.
</event>
<event>
 7    1  0.6597701E-006  0.9323859E+02  0.7818608E-02  0.1302612E+00
          2   -1    0    0  502    0  0.00000000000E+00  0.00000000000E+00  0.22748477156E+04  0.22748477156E+04  0.00000000000E+00 0. -1.
          1   -1    0    0  501    0 -0.00000000000E+00 -0.00000000000E+00 -0.22967291849E+03  0.22967291849E+03  0.00000000000E+00 0. -1.
         25    2    1    2    0    0 -0.68418316415E+02  0.86501084997E+02  0.16804853640E+04  0.16887331603E+04  0.12500049729E+03 0.  0.
          2    1    1    2  501    0  0.86777261909E+02  0.70735775496E+01 -0.21309064621E+03  0.23019112100E+03  0.00000000000E+00 0. -1.
          1    1    1    2  502    0 -0.18358945493E+02 -0.93574662547E+02  0.57778007928E+03  0.58559635275E+03  0.00000000000E+00 0. -1.
         22    1    3    3    0    0 -0.25769343683E+02  0.10225647014E+03  0.77941824323E+03  0.78651970264E+03  0.00000000000E+00 0.  1.
         22    1    3    3    0    0 -0.42648972732E+02 -0.15755385146E+02  0.90106712079E+03  0.90221345767E+03  0.00000000000E+00 0.  1.
</event>
<event>
 7    1  0.6597701E-006  0.1741741E+03  0.7818608E-02  0.1246043E+00
          2   -1    0    0  502    0  0.00000000000E+00  0.00000000000E+00  0.23041222905E+03  0.23041222905E+03  0.00000000000E+00 0. -1.
          1   -1    0    0  501    0 -0.00000000000E+00 -0.00000000000E+00 -0.12244692067E+04  0.12244692067E+04  0.00000000000E+00 0. -1.
         25    2    1    2    0    0 -0.16177855799E+03  0.12691745534E+02 -0.70937388806E+03  0.73835624507E+03  0.12500099736E+03 0.  0.
          2    1    1    2  501    0  0.12187300814E+02  0.79326533090E+02 -0.46083977398E+03  0.46777614992E+03  0.00000000000E+00 0. -1.
          1    1    1    2  502    0  0.14959125717E+03 -0.92018278623E+02  0.17615668439E+03  0.24874904076E+03  0.00000000000E+00 0. -1.
         22    1    3    3    0    0 -0.11353908836E+03 -0.48025695685E+02 -0.50319330249E+03  0.51807440749E+03  0.00000000000E+00 0.  1.
         22    1    3    3    0    0 -0.48239469627E+02  0.60717441219E+02 -0.20618058557E+03  0.22028183757E+03  0.00000000000E+00 0.  1.
</event>
<event>
 7    1  0.6597701E-006  0.9648508E+02  0.7818608E-02  0.1345138E+00
          2   -1    0    0  502    0  0.00000000000E+00  0.00000000000E+00  0.47067731980E+03  0.47067731980E+03  0.00000000000E+00 0. -1.
          1   -1    0    0  501    0 -0.00000000000E+00 -0.00000000000E+00 -0.19226370208E+04  0.19226370208E+04  0.00000000000E+00 0. -1.
         25    2    1    2    0    0 -0.71111373721E+02  0.90020672790E+02  0.11338947061E+03  0.20406612520E+03  0.12500104963E+03 0.  0.
          2    1    1    2  501    0 -0.17835144886E+02 -0.54839909405E+02 -0.18695113800E+04  0.18704005742E+04  0.00000000000E+00 0. -1.
          1    1    1    2  502    0  0.88946518607E+02 -0.35180763385E+02  0.30416220838E+03  0.31884764119E+03  0.00000000000E+00 0. -1.
         22    1    3    3    0    0 -0.13140495065E+02  0.92601968805E+02  0.22444004242E+02  0.96184877000E+02  0.00000000000E+00 0. -1.
         22    1    3    3    0    0 -0.57970878656E+02 -0.25812960145E+01  0.90945466366E+02  0.10788124820E+03  0.00000000000E+00 0. -1.
</event>
<event>
 7    1  0.6597701E-006  0.8607155E+02  0.7818608E-02  0.1343171E+00
          2   -1    0    0  502    0  0.00000000000E+00  0.00000000000E+00  0.28137271759E+03  0.28137271759E+03  0.00000000000E+00 0. -1.
          1   -1    0    0  501    0 -0.00000000000E+00 -0.00000000000E+00 -0.78395849371E+03  0.78395849371E+03  0.00000000000E+00 0. -1.
         25    2    1    2    0    0  0.58332470111E+02  0.19912744631E+00  0.90603025827E+02  0.16503311664E+03  0.12499721828E+03 0.  0.
          2    1    1    2  501    0  0.25575012792E+02 -0.60570201030E+02 -0.72769551143E+03  0.73065969363E+03  0.00000000000E+00 0. -1.
          1    1    1    2  502    0 -0.83907482903E+02  0.60371073584E+02  0.13450670948E+03  0.16963840104E+03  0.00000000000E+00 0. -1.
         22    1    3    3    0    0  0.18206558923E+02 -0.16088008545E+02  0.11348322773E+03  0.11605492571E+03  0.00000000000E+00 0.  1.
         22    1    3    3    0    0  0.40125911188E+02  0.16287135991E+02 -0.22880201899E+02  0.48978190926E+02  0.00000000000E+00 0.  1.
</event>
<event>
 7    1  0.6597701E-006  0.8238403E+02  0.7818608E-02  0.1427058E+00
          2   -1    0    0  502    0  0.00000000000E+00  0.00000000000E+00  0.40723796688E+03  0.40723796688E+03  0.00000000000E+00 0. -1.
          1   -1    0    0  501    0 -0.00000000000E+00 -0.00000000000E+00 -0.28480660446E+03  0.28480660446E+03  0.00000000000E+00 0. -1.
         25    2    1    2    0    0  0.66565712971E+02 -0.85582534396E+02  0.44404984779E+02  0.17132522369E+03  0.12500066105E+03 0.  0.
          2    1    1    2  501    0 -0.62641915942E+02  0.50989926543E+02 -0.21290543837E+03  0.22771189677E+03  0.00000000000E+00 0. -1.
          1    1    1    2  502    0 -0.39237970291E+01  0.34592607852E+02  0.29093181602E+03  0.29300745088E+03  0.00000000000E+00 0. -1.
         22    1    3    3    0    0  0.66844707667E+02  0.34849489563E+01  0.47705856390E+02  0.82196158950E+02  0.00000000000E+00 0.  1.
         22    1    3    3    0    0 -0.27899469591E+00 -0.89067483352E+02 -0.33008716104E+01  0.89129064744E+02  0.00000000000E+00 0.  1.
</event>
<event>
 7    1  0.6597701E-006  0.8823545E+02  0.7818608E-02  0.1356102E+00
          2   -1    0    0  502    0  0.00000000000E+00  0.00000000000E+00  0.45265496003E+03  0.45265496003E+03  0.00000000000E+00 0. -1.
          1   -1    0    0  501    0 -0.00000000000E+00 -0.00000000000E+00 -0.57426041643E+03  0.57426041643E+03  0.00000000000E+00 0. -1.
         25    2    1    2    0    0  0.10176100644E+03 -0.10151621737E+03 -0.18270632860E+03  0.26394538784E+03  0.12499888174E+03 0.  0.
          2    1    1    2  501    0 -0.35110702013E+02  0.45450825532E+02 -0.34392405694E+03  0.34868652953E+03  0.00000000000E+00 0. -1.
          1    1    1    2  502    0 -0.66650304424E+02  0.56065391838E+02  0.40502492914E+03  0.41428345908E+03  0.00000000000E+00 0. -1.
         22    1    3    3    0    0  0.34594284568E+02  0.28043922367E+02 -0.41163411717E+02  0.60643652353E+02  0.00000000000E+00 0.  1.
         22    1    3    3    0    0  0.67166721870E+02 -0.12956013974E+03 -0.14154291688E+03  0.20330173549E+03  0.00000000000E+00 0.  1.
</event>
<event>
 7    1  0.6597701E-006  0.8711782E+02  0.7818608E-02  0.1408931E+00
          2   -1    0    0  502    0  0.00000000000E+00  0.00000000000E+00  0.14629001925E+02  0.14629001925E+02  0.00000000000E+00 0. -1.
          1   -1    0    0  501    0 -0.00000000000E+00 -0.00000000000E+00 -0.27356271546E+04  0.27356271546E+04  0.00000000000E+00 0. -1.
         25    2    1    2    0    0  0.30388347686E+00 -0.57895086581E+02 -0.19333134880E+04  0.19382151826E+04  0.12500047179E+03 0.  0.
          2    1    1    2  501    0  0.25039442663E+02 -0.28401526681E+02 -0.62502861406E+03  0.62617440765E+03  0.00000000000E+00 0. -1.
          1    1    1    2  502    0 -0.25343326140E+02  0.86296613262E+02 -0.16265605062E+03  0.18586656624E+03  0.00000000000E+00 0. -1.
         22    1    3    3    0    0 -0.50124597869E+02  0.18126590541E+01 -0.43835683666E+03  0.44121704102E+03  0.00000000000E+00 0.  1.
         22    1    3    3    0    0  0.50428481346E+02 -0.59707745635E+02 -0.14949566513E+04  0.14969981416E+04  0.00000000000E+00 0.  1.
</event>
<event>
 7    1  0.6597701E-006  0.5128696E+02  0.7818608E-02  0.1548936E+00
          2   -1    0    0  502    0  0.00000000000E+00  0.00000000000E+00  0.76308898467E+03  0.76308898467E+03  0.00000000000E+00 0. -1.
          1   -1    0    0  501    0 -0.00000000000E+00 -0.00000000000E+00 -0.12229457972E+03  0.12229457972E+03  0.00000000000E+00 0. -1.
         25    2    1    2    0    0  0.53398893928E+02 -0.19484153344E+01  0.29854758610E+03  0.32804363040E+03  0.12500689617E+03 0.  0.
          2    1    1    2  501    0 -0.45218476484E+02  0.24334357006E+02 -0.10107855078E+03  0.11337435765E+03  0.00000000000E+00 0. -1.
          1    1    1    2  502    0 -0.81804174441E+01 -0.22385941672E+02  0.44332536963E+03  0.44396557634E+03  0.00000000000E+00 0. -1.
         22    1    3    3    0    0  0.46701220759E+02  0.18473789954E+02  0.29717825301E+02  0.58356097165E+02  0.00000000000E+00 0. -1.
         22    1    3    3    0    0  0.66976731682E+01 -0.20422205288E+02  0.26882976080E+03  0.26968753324E+03  0.00000000000E+00 0. -1.
</event>
<event>
 7    1  0.6597701E-006  0.6341444E+02  0.7818608E-02  0.1435761E+00
          2   -1    0    0  502    0  0.00000000000E+00  0.00000000000E+00  0.25222235608E+03  0.25222235608E+03  0.00000000000E+00 0. -1.
          1   -1    0    0  501    0 -0.00000000000E+00 -0.00000000000E+00 -0.96547688935E+03  0.96547688935E+03  0.00000000000E+00 0. -1.
         25    2    1    2    0    0 -0.13690103489E+02  0.19603047403E+02  0.76676745071E+02  0.14858465368E+03  0.12500551057E+03 0.  0.
          2    1    1    2  501    0  0.15467383170E+02 -0.61912408386E+02 -0.92518674699E+03  0.92738498104E+03  0.00000000000E+00 0. -1.
          1    1    1    2  502    0 -0.17772796809E+01  0.42309360983E+02  0.13525546866E+03  0.14172961071E+03  0.00000000000E+00 0. -1.
         22    1    3    3    0    0 -0.39460282004E+02  0.56960607518E+02  0.13179432682E+02  0.70535963242E+02  0.00000000000E+00 0.  1.
         22    1    3    3    0    0  0.25770178515E+02 -0.37357560115E+02  0.63497312389E+02  0.78048690438E+02  0.00000000000E+00 0.  1.
</event>
<event>
 7    1  0.6597701E-006  0.3258911E+02  0.7818608E-02  0.1572417E+00
          2   -1    0    0  502    0  0.00000000000E+00  0.00000000000E+00  0.30251124750E+03  0.30251124750E+03  0.00000000000E+00 0. -1.
          1   -1    0    0  501    0 -0.00000000000E+00 -0.00000000000E+00 -0.91278015482E+03  0.91278015482E+03  0.00000000000E+00 0. -1.
         25    2    1    2    0    0  0.13039603446E+02 -0.54224621319E+02  0.10289798290E+03  0.17123004661E+03  0.12498557181E+03 0.  0.
          2    1    1    2  501    0 -0.22667983119E+02  0.23366561443E+02 -0.87673018579E+03  0.87733440165E+03  0.00000000000E+00 0. -1.
          1    1    1    2  502    0  0.96283796725E+01  0.30858059877E+02  0.16356329557E+03  0.16672695406E+03  0.00000000000E+00 0. -1.
         22    1    3    3    0    0  0.20983900423E+02  0.31364094459E+02  0.69362524251E+02  0.78963220987E+02  0.00000000000E+00 0.  1.
         22    1    3    3    0    0 -0.79442969767E+01 -0.85588715778E+02  0.33535458648E+02  0.92266825618E+02  0.00000000000E+00 0.  1.
</event>
<event>
 7    1  0.6597701E-006  0.1207592E+03  0.7818608E-02  0.1345529E+00
          2   -1    0    0  502    0  0.00000000000E+00  0.00000000000E+00  0.27924292330E+03  0.27924292330E+03  0.00000000000E+00 0. -1.
          1   -1    0    0  501    0 -0.00000000000E+00 -0.00000000000E+00 -0.17153972471E+04  0.17153972471E+04  0.00000000000E+00 0. -1.
         25    2    1    2    0    0  0.64162558233E+02 -0.85730724016E+02 -0.49067282137E+03  0.51754471493E+03  0.12500449352E+03 0.  0.
          2    1    1    2  501    0 -0.33295566484E+02 -0.31624481237E+02 -0.11969758910E+04  0.11978564130E+04  0.00000000000E+00 0. -1.
          1    1    1    2  502    0 -0.30866991749E+02  0.11735520525E+03  0.25149438855E+03  0.27923904249E+03  0.00000000000E+00 0. -1.
         22    1    3    3    0    0  0.23678205383E+02 -0.11319412315E+03 -0.33996405654E+03  0.35909487140E+03  0.00000000000E+00 0.  1.
         22    1    3    3    0    0  0.40484352850E+02  0.27463399137E+02 -0.15070876483E+03  0.15844984353E+03  0.00000000000E+00 0.  1.
</event>
<event>
 7    1  0.6597701E-006  0.4621303E+02  0.7818608E-02  0.1550742E+00
          2   -1    0    0  502    0  0.00000000000E+00  0.00000000000E+00  0.11782764289E+03  0.11782764289E+03  0.00000000000E+00 0. -1.
          1   -1    0    0  501    0 -0.00000000000E+00 -0.00000000000E+00 -0.50102311157E+03  0.50102311157E+03  0.00000000000E+00 0. -1.
         25    2    1    2    0    0  0.58458490354E+02  0.35186454375E+02 -0.19045649000E+03  0.23781014919E+03  0.12499804322E+03 0.  0.
          2    1    1    2  501    0 -0.42185536883E+02 -0.14722405469E+02 -0.28328930579E+03  0.28679121242E+03  0.00000000000E+00 0. -1.
          1    1    1    2  502    0 -0.16272953471E+02 -0.20464048906E+02  0.90550327115E+02  0.94249392852E+02  0.00000000000E+00 0. -1.
         22    1    3    3    0    0  0.22633965697E+02 -0.46769960612E+02 -0.83941752881E+02  0.98721545245E+02  0.00000000000E+00 0. -1.
         22    1    3    3    0    0  0.35824524657E+02  0.81956414988E+02 -0.10651473712E+03  0.13908860395E+03  0.00000000000E+00 0. -1.
</event>
<event>
 7    1  0.7386349E-006  0.4643883E+02  0.7818608E-02  0.1466602E+00
          2   -1    0    0  502    0  0.00000000000E+00  0.00000000000E+00  0.91598149483E+03  0.91598149483E+03  0.00000000000E+00 0. -1.
          1   -1    0    0  501    0 -0.00000000000E+00 -0.00000000000E+00 -0.12764450372E+04  0.12764450372E+04  0.00000000000E+00 0. -1.
         25    2    1    2    0    0  0.74131894031E+02 -0.16786743664E+02 -0.26293612618E+03  0.30089613345E+03  0.12500297678E+03 0.  0.
          2    1    1    2  501    0 -0.42699157631E+02 -0.17350490037E+02 -0.99339408392E+03  0.99446270093E+03  0.00000000000E+00 0. -1.
          1    1    1    2  502    0 -0.31432736400E+02  0.34137233702E+02  0.89586666778E+03  0.89706769760E+03  0.00000000000E+00 0. -1.
         22    1    3    3    0    0  0.81246513800E+02 -0.60938707930E+02 -0.18049249800E+03  0.20710399312E+03  0.00000000000E+00 0.  1.
         22    1    3    3    0    0 -0.71146197691E+01  0.44151964266E+02 -0.82443628174E+02  0.93792140339E+02  0.00000000000E+00 0.  1.
</event>
<event>
 7    1  0.6597701E-006  0.4976615E+02  0.7818608E-02  0.1508715E+00
          2   -1    0    0  502    0  0.00000000000E+00  0.00000000000E+00  0.12195447695E+03  0.12195447695E+03  0.00000000000E+00 0. -1.
          1   -1    0    0  501    0 -0.00000000000E+00 -0.00000000000E+00 -0.25535311293E+03  0.25535311293E+03  0.00000000000E+00 0. -1.
         25    2    1    2    0    0  0.13973056926E+02  0.14240120148E+02 -0.77722445739E+02  0.14854033135E+03  0.12500169649E+03 0.  0.
          2    1    1    2  501    0  0.18953987159E+02  0.25832965703E+02 -0.13236427738E+03  0.13618699524E+03  0.00000000000E+00 0. -1.
          1    1    1    2  502    0 -0.32927044085E+02 -0.40073085852E+02  0.76688087137E+02  0.92580263289E+02  0.00000000000E+00 0. -1.
         22    1    3    3    0    0 -0.24222272651E+02 -0.47791861051E+02 -0.29310180595E+02  0.61072638404E+02  0.00000000000E+00 0. -1.
         22    1    3    3    0    0  0.38195329577E+02  0.62031981200E+02 -0.48412265144E+02  0.87467692946E+02  0.00000000000E+00 0. -1.
</event>
<event>
 7    1  0.6597701E-006  0.8633155E+02  0.7818608E-02  0.1474893E+00
          2   -1    0    0  502    0  0.00000000000E+00  0.00000000000E+00  0.53141479829E+03  0.53141479829E+03  0.00000000000E+00 0. -1.
          1   -1    0    0  501    0 -0.00000000000E+00 -0.00000000000E+00 -0.32340057785E+03  0.32340057785E+03  0.00000000000E+00 0. -1.
         25    2    1    2    0    0 -0.86550482662E+02 -0.33604768590E+02 -0.20816672295E+03  0.25995862335E+03  0.12499933915E+03 0.  0.
          2    1    1    2  501    0  0.16410582732E+02 -0.16630640952E+02 -0.84051845221E+02  0.87238742134E+02  0.00000000000E+00 0. -1.
          1    1    1    2  502    0  0.70139899929E+02  0.50235409542E+02  0.50023278862E+03  0.50761801066E+03  0.00000000000E+00 0. -1.
         22    1    3    3    0    0 -0.96553378035E+02 -0.46392450228E+02 -0.87808818625E+02  0.13851065979E+03  0.00000000000E+00 0. -1.
         22    1    3    3    0    0  0.10002895373E+02  0.12787681638E+02 -0.12035790433E+03  0.12144796355E+03  0.00000000000E+00 0. -1.
</event>
<event>
 7    1  0.6597701E-006  0.3941089E+03  0.7818608E-02  0.1265752E+00
          2   -1    0    0  502    0  0.00000000000E+00  0.00000000000E+00  0.76442726715E+03  0.76442726715E+03  0.00000000000E+00 0. -1.
          1   -1    0    0  501    0 -0.00000000000E+00 -0.00000000000E+00 -0.19027042580E+04  0.19027042580E+04  0.00000000000E+00 0. -1.
         25    2    1    2    0    0  0.32154121708E+03 -0.20151403811E+03  0.33507516914E+03  0.52143753664E+03  0.12500029525E+03 0.  0.
          2    1    1    2  501    0 -0.32049806235E+03  0.23068069573E+03 -0.17872948508E+04  0.18303976276E+04  0.00000000000E+00 0. -1.
          1    1    1    2  502    0 -0.10431547274E+01 -0.29166657622E+02  0.31394269082E+03  0.31529636092E+03  0.00000000000E+00 0. -1.
         22    1    3    3    0    0  0.24676535143E+02 -0.45341192391E+02  0.97719261587E+02  0.11051610380E+03  0.00000000000E+00 0.  1.
         22    1    3    3    0    0  0.29686468194E+03 -0.15617284572E+03  0.23735590755E+03  0.41092143284E+03  0.00000000000E+00 0.  1.
</event>
<event>
 7    1  0.6597701E-006  0.8469433E+02  0.7818608E-02  0.1354236E+00
          2   -1    0    0  502    0  0.00000000000E+00  0.00000000000E+00  0.13456261685E+04  0.13456261685E+04  0.00000000000E+00 0. -1.
          1   -1    0    0  501    0 -0.00000000000E+00 -0.00000000000E+00 -0.22315550144E+03  0.22315550144E+03  0.00000000000E+00 0. -1.
         25    2    1    2    0    0 -0.36788152519E+02  0.57230934280E+02  0.15547276723E+03  0.21077227397E+03  0.12499768845E+03 0.  0.
          2    1    1    2  501    0 -0.47733685779E+02 -0.37636413559E+02 -0.18911564442E+03  0.19864473652E+03  0.00000000000E+00 0. -1.
          1    1    1    2  502    0  0.84521838298E+02 -0.19594520721E+02  0.11561135442E+04  0.11593646594E+04  0.00000000000E+00 0. -1.
         22    1    3    3    0    0 -0.11198751803E+02  0.95524368224E+02  0.10182336779E+03  0.14006539614E+03  0.00000000000E+00 0. -1.
         22    1    3    3    0    0 -0.25589400716E+02 -0.38293433944E+02  0.53649399445E+02  0.70706877834E+02  0.00000000000E+00 0. -1.
</event>
<event>
 7    1  0.6597701E-006  0.8807803E+02  0.7818608E-02  0.1341259E+00
          2   -1    0    0  502    0  0.00000000000E+00  0.00000000000E+00  0.64752237846E+03  0.64752237846E+03  0.00000000000E+00 0. -1.
          1   -1    0    0  501    0 -0.00000000000E+00 -0.00000000000E+00 -0.29816576851E+04  0.29816576851E+04  0.00000000000E+00 0. -1.
         25    2    1    2    0    0  0.80146364496E+02  0.95224973345E+02 -0.20419906410E+02  0.17757723688E+03  0.12500186874E+03 0.  0.
          2    1    1    2  501    0  0.19471365445E+01 -0.65290355934E+02 -0.28789313835E+04  0.28796722960E+04  0.00000000000E+00 0. -1.
          1    1    1    2  502    0 -0.82093501040E+02 -0.29934617412E+02  0.56521598321E+03  0.57193053067E+03  0.00000000000E+00 0. -1.
         22    1    3    3    0    0  0.22351095664E+02  0.27333249308E+01 -0.58001931303E+02  0.62219503192E+02  0.00000000000E+00 0. -1.
         22    1    3    3    0    0  0.57795268832E+02  0.92491648415E+02  0.37582024893E+02  0.11535773368E+03  0.00000000000E+00 0. -1.
</event>
<event>
 7    1  0.6597701E-006  0.1735428E+03  0.7818608E-02  0.1315083E+00
          2   -1    0    0  502    0  0.00000000000E+00  0.00000000000E+00  0.78174860680E+03  0.78174860680E+03  0.00000000000E+00 0. -1.
          1   -1    0    0  501    0 -0.00000000000E+00 -0.00000000000E+00 -0.15027526682E+04  0.15027526682E+04  0.00000000000E+00 0. -1.
         25    2    1    2    0    0  0.13562903820E+03 -0.65710369902E+02 -0.38413724711E+03  0.43116106588E+03  0.12500140559E+03 0.  0.
          2    1    1    2  501    0 -0.14735768128E+03  0.10579313418E+03 -0.10870065035E+04  0.11020388433E+04  0.00000000000E+00 0. -1.
          1    1    1    2  502    0  0.11728643084E+02 -0.40082764273E+02  0.75013968918E+03  0.75130136586E+03  0.00000000000E+00 0. -1.
         22    1    3    3    0    0  0.69643318452E+02 -0.94748451005E+02 -0.18329303414E+03  0.21777005565E+03  0.00000000000E+00 0.  1.
         22    1    3    3    0    0  0.65985719745E+02  0.29038081103E+02 -0.20084421297E+03  0.21339101023E+03  0.00000000000E+00 0.  1.
</event>
<event>
 7    1  0.6597701E-006  0.4483522E+02  0.7818608E-02  0.1583389E+00
          2   -1    0    0  502    0  0.00000000000E+00  0.00000000000E+00  0.28465043687E+03  0.28465043687E+03  0.00000000000E+00 0. -1.
          1   -1    0    0  501    0 -0.00000000000E+00 -0.00000000000E+00 -0.88176564189E+03  0.88176564189E+03  0.00000000000E+00 0. -1.
         25    2    1    2    0    0  0.62673351612E+02 -0.22939121078E+02 -0.81259677446E+03  0.82485821722E+03  0.12499363337E+03 0.  0.
          2    1    1    2  501    0 -0.20649440291E+02  0.74523425765E+01 -0.59256982731E+02  0.63192774876E+02  0.00000000000E+00 0. -1.
          1    1    1    2  502    0 -0.42023911321E+02  0.15486778501E+02  0.27473855217E+03  0.27836508667E+03  0.00000000000E+00 0. -1.
         22    1    3    3    0    0  0.14610964134E+02  0.19689225430E+02 -0.64353312725E+03  0.64400002464E+03  0.00000000000E+00 0. -1.
         22    1    3    3    0    0  0.48062387478E+02 -0.42628346508E+02 -0.16906364721E+03  0.18085819258E+03  0.00000000000E+00 0. -1.
</event>
<event>
 7    1  0.6597701E-006  0.1221422E+03  0.7818608E-02  0.1358991E+00
          2   -1    0    0  502    0  0.00000000000E+00  0.00000000000E+00  0.19515591005E+04  0.19515591005E+04  0.00000000000E+00 0. -1.
          1   -1    0    0  501    0 -0.00000000000E+00 -0.00000000000E+00 -0.18114890495E+03  0.18114890495E+03  0.00000000000E+00 0. -1.
         25    2    1    2    0    0  0.31759734223E+02 -0.15784569329E+03  0.12300283267E+03  0.23807316425E+03  0.12500076433E+03 0.  0.
          2    1    1    2  501    0 -0.11636352345E+02  0.38782483248E+02 -0.11817954004E+03  0.12492353416E+03  0.00000000000E+00 0. -1.
          1    1    1    2  502    0 -0.20123381878E+02  0.11906321004E+03  0.17655869030E+04  0.17697113071E+04  0.00000000000E+00 0. -1.
         22    1    3    3    0    0 -0.90704017063E+01 -0.54060102023E+02 -0.18544073089E+02  0.57867516489E+02  0.00000000000E+00 0.  1.
         22    1    3    3    0    0  0.40830135930E+02 -0.10378559127E+03  0.14154690576E+03  0.18020564776E+03  0.00000000000E+00 0.  1.
</event>
<event>
 7    1  0.6597701E-006  0.9118203E+02  0.7818608E-02  0.1326176E+00
          2   -1    0    0  502    0  0.00000000000E+00  0.00000000000E+00  0.78915606321E+02  0.78915606321E+02  0.00000000000E+00 0. -1.
          1   -1    0    0  501    0 -0.00000000000E+00 -0.00000000000E+00 -0.35593627146E+03  0.35593627146E+03  0.00000000000E+00 0. -1.
         25    2    1    2    0    0  0.48848430569E+02 -0.10458099167E+02 -0.13363593258E+03  0.18968168702E+03  0.12500015563E+03 0.  0.
          2    1    1    2  501    0 -0.42097443914E+02 -0.80882435295E+02 -0.11987255218E+03  0.15061072966E+03  0.00000000000E+00 0. -1.
          1    1    1    2  502    0 -0.67509866555E+01  0.91340534462E+02 -0.23512180379E+02  0.94559461097E+02  0.00000000000E+00 0. -1.
         22    1    3    3    0    0 -0.11352971538E+02  0.35106370208E+02 -0.10081730358E+03  0.10735676920E+03  0.00000000000E+00 0.  1.
         22    1    3    3    0    0  0.60201402107E+02 -0.45564469375E+02 -0.32818629002E+02  0.82324917824E+02  0.00000000000E+00 0.  1.
</event>
<event>
 7    1  0.6597701E-006  0.1170968E+03  0.7818608E-02  0.1309141E+00
          2   -1    0    0  502    0  0.00000000000E+00  0.00000000000E+00  0.86090055321E+03  0.86090055321E+03  0.00000000000E+00 0. -1.
          1   -1    0    0  501    0 -0.00000000000E+00 -0.00000000000E+00 -0.15055580401E+04  0.15055580401E+04  0.00000000000E+00 0. -1.
         25    2    1    2    0    0 -0.65323055129E+00 -0.10311858498E+03 -0.22099856876E+03  0.27404381627E+03  0.12500310621E+03 0.  0.
          2    1    1    2  501    0  0.65139163214E+02  0.47562542541E+01 -0.12530372376E+04  0.12547382402E+04  0.00000000000E+00 0. -1.
          1    1    1    2  502    0 -0.64485932662E+02  0.98362330730E+02  0.82937831946E+03  0.83767653687E+03  0.00000000000E+00 0. -1.
         22    1    3    3    0    0 -0.22881251673E+02 -0.69449205579E+02 -0.22195305147E+03  0.23368761390E+03  0.00000000000E+00 0.  1.
         22    1    3    3    0    0  0.22228021121E+02 -0.33669379405E+02  0.95448270825E+00  0.40356202370E+02  0.00000000000E+00 0.  1.
</event>
<event>
 7    1  0.6597701E-006  0.8193492E+02  0.7818608E-02  0.1382779E+00
          2   -1    0    0  502    0  0.00000000000E+00  0.00000000000E+00  0.12642154637E+04  0.12642154637E+04  0.00000000000E+00 0. -1.
          1   -1    0    0  501    0 -0.00000000000E+00 -0.00000000000E+00 -0.14199472888E+04  0.14199472888E+04  0.00000000000E+00 0. -1.
         25    2    1    2    0    0 -0.21409611837E+02 -0.29054667443E+02  0.17120829616E+03  0.21503460147E+03  0.12500021590E+03 0.  0.
          2    1    1    2  501    0  0.67820752785E+02  0.46506742754E+02 -0.13962498518E+04  0.13986694321E+04  0.00000000000E+00 0. -1.
          1    1    1    2  502    0 -0.46411140948E+02 -0.17452075311E+02  0.10693097306E+04  0.10704587189E+04  0.00000000000E+00 0. -1.
         22    1    3    3    0    0 -0.49611676169E+02  0.22733002656E+02  0.13554974064E+03  0.14612268821E+03  0.00000000000E+00 0.  1.
         22    1    3    3    0    0  0.28202064332E+02 -0.51787670099E+02  0.35658555513E+02  0.68911913253E+02  0.00000000000E+00 0.  1.
</event>
<event>
 7    1  0.6597701E-006  0.1164878E+03  0.7818608E-02  0.1271074E+00
          2   -1    0    0  502    0  0.00000000000E+00  0.00000000000E+00  0.31089044283E+03  0.31089044283E+03  0.00000000000E+00 0. -1.
          1   -1    0    0  501    0 -0.00000000000E+00 -0.00000000000E+00 -0.53374890923E+03  0.53374890923E+03  0.00000000000E+00 0. -1.
         25    2    1    2    0    0 -0.24726522004E+02  0.87233898165E+01 -0.13791099891E+03  0.18796457488E+03  0.12499495738E+03 0.  0.
          2    1    1    2  501    0  0.10861102222E+03  0.72102294565E+02 -0.34657690543E+03  0.37028454789E+03  0.00000000000E+00 0. -1.
          1    1    1    2  502    0 -0.83884500217E+02 -0.80825684382E+02  0.26162943794E+03  0.28639022928E+03  0.00000000000E+00 0. -1.
         22    1    3    3    0    0 -0.15249240504E+02 -0.25642503058E+02 -0.14795095276E+03  0.15092899563E+03  0.00000000000E+00 0.  1.
         22    1    3    3    0    0 -0.94772815005E+01  0.34365892874E+02  0.10039953848E+02  0.37035579258E+02  0.00000000000E+00 0.  1.
</event>
<event>
 7    1  0.6597701E-006  0.1990971E+03  0.7818608E-02  0.1227027E+00
          2   -1    0    0  502    0  0.00000000000E+00  0.00000000000E+00  0.10079954036E+04  0.10079954036E+04  0.00000000000E+00 0. -1.
          1   -1    0    0  501    0 -0.00000000000E+00 -0.00000000000E+00 -0.10575444439E+04  0.10575444439E+04  0.00000000000E+00 0. -1.
         25    2    1    2    0    0 -0.12293003846E+03 -0.25330992367E+03 -0.23293780890E+03  0.38621567890E+03  0.12499926410E+03 0.  0.
          2    1    1    2  501    0  0.38971942853E+02  0.75832938906E+02 -0.73512933027E+03  0.74005714589E+03  0.00000000000E+00 0. -1.
          1    1    1    2  502    0  0.83958095605E+02  0.17747698477E+03  0.91851809893E+03  0.93926702273E+03  0.00000000000E+00 0. -1.
         22    1    3    3    0    0 -0.12103537813E+03 -0.17375509008E+03 -0.22042727284E+03  0.30566088514E+03  0.00000000000E+00 0.  1.
         22    1    3    3    0    0 -0.18946603244E+01 -0.79554833594E+02 -0.12510536056E+02  0.80554793764E+02  0.00000000000E+00 0.  1.
</event>
<event>
 7    1  0.6597701E-006  0.7120370E+02  0.7818608E-02  0.1377990E+00
          2   -1    0    0  502    0  0.00000000000E+00  0.00000000000E+00  0.19877311786E+02  0.19877311786E+02  0.00000000000E+00 0. -1.
          1   -1    0    0  501    0 -0.00000000000E+00 -0.00000000000E+00 -0.15556391537E+04  0.15556391537E+04  0.00000000000E+00 0. -1.
         25    2    1    2    0    0 -0.60028855204E+02  0.40113484250E+01 -0.10132914923E+04  0.10227433176E+04  0.12499876360E+03 0.  0.
          2    1    1    2  501    0  0.93037378787E+01 -0.58593873147E+02 -0.42973223852E+03  0.43380825065E+03  0.00000000000E+00 0. -1.
          1    1    1    2  502    0  0.50725117325E+02  0.54582524722E+02 -0.92738111124E+02  0.11896489729E+03  0.00000000000E+00 0. -1.
         22    1    3    3    0    0 -0.76334414748E+02  0.36300705492E+02 -0.42403377324E+03  0.43237636955E+03  0.00000000000E+00 0. -1.
         22    1    3    3    0    0  0.16305559545E+02 -0.32289357067E+02 -0.58925771905E+03  0.59036694802E+03  0.00000000000E+00 0. -1.
</event>
<event>
 7    1  0.6597701E-006  0.3294904E+02  0.7818608E-02  0.1598932E+00
          2   -1    0    0  502    0  0.00000000000E+00  0.00000000000E+00  0.78530188747E+02  0.78530188747E+02  0.00000000000E+00 0. -1.
          1   -1    0    0  501    0 -0.00000000000E+00 -0.00000000000E+00 -0.94144451512E+03  0.94144451512E+03  0.00000000000E+00 0. -1.
         25    2    1    2    0    0 -0.21061874111E+02  0.17439936370E+02 -0.43166884394E+03  0.45024389000E+03  0.12503525799E+03 0.  0.
          2    1    1    2  501    0 -0.11214778387E+02 -0.24754501033E+02 -0.49614040638E+03  0.49688415090E+03  0.00000000000E+00 0. -1.
          1    1    1    2  502    0  0.32276652498E+02  0.73145646630E+01  0.64894923936E+02  0.72846662967E+02  0.00000000000E+00 0. -1.
         22    1    3    3    0    0  0.89557115230E+00 -0.22005998052E+02 -0.38384893776E+03  0.38448026350E+03  0.00000000000E+00 0. -1.
         22    1    3    3    0    0 -0.21957445263E+02  0.39445934422E+02 -0.47819906176E+02  0.65763626509E+02  0.00000000000E+00 0. -1.
</event>
<event>
 7    1  0.6597701E-006  0.7848598E+02  0.7818608E-02  0.1390708E+00
          2   -1    0    0  502    0  0.00000000000E+00  0.00000000000E+00  0.11709316382E+04  0.11709316382E+04  0.00000000000E+00 0. -1.
          1   -1    0    0  501    0 -0.00000000000E+00 -0.00000000000E+00 -0.91293832182E+02  0.91293832182E+02  0.00000000000E+00 0. -1.
         25    2    1    2    0    0 -0.71610463200E+02  0.84284954936E+02  0.12565962820E+03  0.20892084090E+03  0.12500225412E+03 0.  0.
          2    1    1    2  501    0  0.27694228523E+01 -0.48473679210E+02 -0.35903752100E+02  0.60385815337E+02  0.00000000000E+00 0. -1.
          1    1    1    2  502    0  0.68841040347E+02 -0.35811275725E+02  0.98988192990E+03  0.99291881413E+03  0.00000000000E+00 0. -1.
         22    1    3    3    0    0 -0.74661327883E+02  0.97112081133E+02  0.14225369940E+03  0.18772635717E+03  0.00000000000E+00 0.  1.
         22    1    3    3    0    0  0.30508646833E+01 -0.12827126197E+02 -0.16594071196E+02  0.21194483732E+02  0.00000000000E+00 0.  1.
</event>
<event>
 7    1  0.6597701E-006  0.6823070E+02  0.7818608E-02  0.1382330E+00
          2   -1    0    0  502    0  0.00000000000E+00  0.00000000000E+00  0.53411606516E+03  0.53411606516E+03  0.00000000000E+00 0. -1.
          1   -1    0    0  501    0 -0.00000000000E+00 -0.00000000000E+00 -0.49868863359E+03  0.49868863359E+03  0.00000000000E+00 0. -1.
         25    2    1    2    0    0 -0.24952515717E+02 -0.57791279784E+02 -0.54871059455E+02  0.15032619082E+03  0.12499868168E+03 0.  0.
          2    1    1    2  501    0  0.68169388943E+02  0.16516179438E+02 -0.39112270890E+03  0.39736233238E+03  0.00000000000E+00 0. -1.
          1    1    1    2  502    0 -0.43216873226E+02  0.41275100346E+02  0.48142119993E+03  0.48511617555E+03  0.00000000000E+00 0. -1.
         22    1    3    3    0    0  0.30693436442E+02  0.25380072475E+02 -0.17562871379E+02  0.43528032009E+02  0.00000000000E+00 0.  1.
         22    1    3    3    0    0 -0.55645952160E+02 -0.83171352259E+02 -0.37308188076E+02  0.10679815881E+03  0.00000000000E+00 0.  1.
</event>
<event>
 7    1  0.6597701E-006  0.6372042E+02  0.7818608E-02  0.1443498E+00
          2   -1    0    0  502    0  0.00000000000E+00  0.00000000000E+00  0.25793188212E+03  0.25793188212E+03  0.00000000000E+00 0. -1.
          1   -1    0    0  501    0 -0.00000000000E+00 -0.00000000000E+00 -0.36811825742E+03  0.36811825742E+03  0.00000000000E+00 0. -1.
         25    2    1    2    0    0  0.48885276800E+01 -0.47038542468E+02  0.59496065692E+02  0.14629084895E+03  0.12499883388E+03 0.  0.
          2    1    1    2  501    0  0.39543627101E+02 -0.42814064583E+01 -0.31598353759E+03  0.31847703985E+03  0.00000000000E+00 0. -1.
          1    1    1    2  502    0 -0.44432154781E+02  0.51319948926E+02  0.14630109660E+03  0.16128225074E+03  0.00000000000E+00 0. -1.
         22    1    3    3    0    0 -0.14465393845E+01 -0.68637349436E+02  0.86952282569E+02  0.11078753386E+03  0.00000000000E+00 0. -1.
         22    1    3    3    0    0  0.63350670646E+01  0.21598806968E+02 -0.27456216877E+02  0.35503315090E+02  0.00000000000E+00 0. -1.
</event>
<event>
 7    1  0.7337841E-006  0.1542079E+03  0.7818608E-02  0.1295714E+00
          2   -1    0    0  502    0  0.00000000000E+00  0.00000000000E+00  0.37940872355E+04  0.37940872355E+04  0.00000000000E+00 0. -1.
          1   -1    0    0  501    0 -0.00000000000E+00 -0.00000000000E+00 -0.78684735526E+03  0.78684735526E+03  0.00000000000E+00 0. -1.
         25    2    1    2    0    0 -0.22531564404E+02 -0.18750128491E+03 -0.38285393250E+03  0.44483763848E+03  0.12505593844E+03 0.  0.
          2    1    1    2  501    0 -0.34413156634E+02  0.44309051542E+02 -0.36930449619E+03  0.37354165538E+03  0.00000000000E+00 0. -1.
          1    1    1    2  502    0  0.56944721037E+02  0.14319223337E+03  0.37593983090E+04  0.37625552969E+04  0.00000000000E+00 0. -1.
         22    1    3    3    0    0 -0.30220850588E+02 -0.14644353361E+03 -0.37309122682E+03  0.40194038349E+03  0.00000000000E+00 0.  1.
         22    1    3    3    0    0  0.76892861846E+01 -0.41057751298E+02 -0.97627056801E+01  0.42897254992E+02  0.00000000000E+00 0.  1.
</event>
<event>
 7    1  0.6597701E-006  0.1470222E+03  0.7818608E-02  0.1320021E+00
          2   -1    0    0  502    0  0.00000000000E+00  0.00000000000E+00  0.19212747945E+04  0.19212747945E+04  0.00000000000E+00 0. -1.
          1   -1    0    0  501    0 -0.00000000000E+00 -0.00000000000E+00 -0.16798798843E+03  0.16798798843E+03  0.00000000000E+00 0. -1.
         25    2    1    2    0    0  0.37897423730E+02  0.93764853080E+02  0.12481272394E+04  0.12584414300E+04  0.12500065863E+03 0.  0.
          2    1    1    2  501    0 -0.57460372333E+02 -0.13667773341E+03 -0.12802065166E+03  0.19588717275E+03  0.00000000000E+00 0. -1.
          1    1    1    2  502    0  0.19562948604E+02  0.42912880325E+02  0.63318021838E+03  0.63493418021E+03  0.00000000000E+00 0. -1.
         22    1    3    3    0    0  0.51540870887E+02  0.99625054542E+02  0.12295655815E+04  0.12346712647E+04  0.00000000000E+00 0. -1.
         22    1    3    3    0    0 -0.13643447157E+02 -0.58602014617E+01  0.18561657903E+02  0.23770165242E+02  0.00000000000E+00 0. -1.
</event>
<event>
 7    1  0.6597701E-006  0.1796407E+03  0.7818608E-02  0.1256734E+00
          2   -1    0    0  502    0  0.00000000000E+00  0.00000000000E+00  0.19151939684E+04  0.19151939684E+04  0.00000000000E+00 0. -1.
          1   -1    0    0  501    0 -0.00000000000E+00 -0.00000000000E+00 -0.10261251548E+03  0.10261251548E+03  0.00000000000E+00 0. -1.
         25    2    1    2    0    0  0.87636065341E+02 -0.12875554123E+03  0.18841211462E+03  0.27455819415E+03  0.12500003077E+03 0.  0.
          2    1    1    2  501    0  0.64807480073E+02  0.26325605318E+02 -0.32003054996E+02  0.76923614696E+02  0.00000000000E+00 0. -1.
          1    1    1    2  502    0 -0.15244354541E+03  0.10242993591E+03  0.16561723933E+04  0.16663246750E+04  0.00000000000E+00 0. -1.
         22    1    3    3    0    0  0.42554025002E+02 -0.12634863360E+03  0.76100868930E+02  0.15351275031E+03  0.00000000000E+00 0. -1.
         22    1    3    3    0    0  0.45082040339E+02 -0.24069076299E+01  0.11231124569E+03  0.12104544384E+03  0.00000000000E+00 0. -1.
</event>
<event>
 7    1  0.6597701E-006  0.2645498E+03  0.7818608E-02  0.1228355E+00
          2   -1    0    0  502    0  0.00000000000E+00  0.00000000000E+00  0.27273146936E+03  0.27273146936E+03  0.00000000000E+00 0. -1.
          1   -1    0    0  501    0 -0.00000000000E+00 -0.00000000000E+00 -0.61065474667E+03  0.61065474667E+03  0.00000000000E+00 0. -1.
         25    2    1    2    0    0 -0.17776752472E+03 -0.15399269284E+03 -0.27739089319E+03  0.38455882636E+03  0.12499896405E+03 0.  0.
          2    1    1    2  501    0  0.10789474853E+02 -0.62362967567E+02 -0.18719548221E+03  0.19760491151E+03  0.00000000000E+00 0. -1.
          1    1    1    2  502    0  0.16697804987E+03  0.21635566041E+03  0.12666309810E+03  0.30122247816E+03  0.00000000000E+00 0. -1.
         22    1    3    3    0    0 -0.57195819460E+02 -0.10685719401E+03 -0.19962974633E+03  0.23354198187E+03  0.00000000000E+00 0.  1.
         22    1    3    3    0    0 -0.12057170526E+03 -0.47135498836E+02 -0.77761146861E+02  0.15101684449E+03  0.00000000000E+00 0.  1.
</event>
<event>
 7    1  0.6597701E-006  0.1269506E+03  0.7818608E-02  0.1345047E+00
          2   -1    0    0  502    0  0.00000000000E+00  0.00000000000E+00  0.54232508833E+03  0.54232508833E+03  0.00000000000E+00 0. -1.
          1   -1    0    0  501    0 -0.00000000000E+00 -0.00000000000E+00 -0.69205597990E+03  0.69205597990E+03  0.00000000000E+00 0. -1.
         25    2    1    2    0    0 -0.10770922594E+03  0.64437108018E+02  0.31367401250E+03  0.36023589379E+03  0.12500037927E+03 0.  0.
          2    1    1    2  501    0 -0.21440308500E+02 -0.38265238921E+02 -0.64681741879E+03  0.64830292964E+03  0.00000000000E+00 0. -1.
          1    1    1    2  502    0  0.12914953444E+03 -0.26171869097E+02  0.18341251472E+03  0.22584224479E+03  0.00000000000E+00 0. -1.
         22    1    3    3    0    0 -0.11223368740E+03  0.24454776208E+01  0.23069164367E+03  0.25655606680E+03  0.00000000000E+00 0. -1.
         22    1    3    3    0    0  0.45244614616E+01  0.61991630397E+02  0.82982368823E+02  0.10367982700E+03  0.00000000000E+00 0. -1.
</event>
<event>
 7    1  0.6597701E-006  0.5117078E+02  0.7818608E-02  0.1571157E+00
          2   -1    0    0  502    0  0.00000000000E+00  0.00000000000E+00  0.11667971796E+04  0.11667971796E+04  0.00000000000E+00 0. -1.
          1   -1    0    0  501    0 -0.00000000000E+00 -0.00000000000E+00 -0.44498769985E+03  0.44498769985E+03  0.00000000000E+00 0. -1.
         25    2    1    2    0    0  0.32290909335E+02  0.21916464969E+01  0.79227923597E+03  0.80273739830E+03  0.12503374243E+03 0.  0.
          2    1    1    2  501    0 -0.49189818985E+02 -0.14232103569E+02 -0.43797427529E+03  0.44095765883E+03  0.00000000000E+00 0. -1.
          1    1    1    2  502    0  0.16898909650E+02  0.12040457072E+02  0.36750451909E+03  0.36808982233E+03  0.00000000000E+00 0. -1.
         22    1    3    3    0    0  0.57541969432E+02  0.47337635593E+02  0.54791322833E+03  0.55295645015E+03  0.00000000000E+00 0. -1.
         22    1    3    3    0    0 -0.25251060097E+02 -0.45145989096E+02  0.24436600764E+03  0.24978094815E+03  0.00000000000E+00 0. -1.
</event>
<event>
 7    1  0.6597701E-006  0.1081127E+03  0.7818608E-02  0.1274166E+00
          2   -1    0    0  502    0  0.00000000000E+00  0.00000000000E+00  0.58020482742E+03  0.58020482742E+03  0.00000000000E+00 0. -1.
          1   -1    0    0  501    0 -0.00000000000E+00 -0.00000000000E+00 -0.19665567879E+03  0.19665567879E+03  0.00000000000E+00 0. -1.
         25    2    1    2    0    0 -0.21295124763E+01 -0.37361036743E+01  0.12192084886E+03  0.17466823432E+03  0.12500322156E+03 0.  0.
          2    1    1    2  501    0  0.11007632115E+03 -0.22511464158E+01 -0.14464497139E+03  0.18178017463E+03  0.00000000000E+00 0. -1.
          1    1    1    2  502    0 -0.10794680868E+03  0.59872500901E+01  0.40627327116E+03  0.42041209727E+03  0.00000000000E+00 0. -1.
         22    1    3    3    0    0 -0.22286791036E+02 -0.58336498703E+02  0.39942944776E+02  0.74130202839E+02  0.00000000000E+00 0.  1.
         22    1    3    3    0    0  0.20157278560E+02  0.54600395028E+02  0.81977904081E+02  0.10053803148E+03  0.00000000000E+00 0.  1.
</event>
<event>
 7    1  0.6597701E-006  0.1292210E+03  0.7818608E-02  0.1356910E+00
          2   -1    0    0  502    0  0.00000000000E+00  0.00000000000E+00  0.15903332079E+04  0.15903332079E+04  0.00000000000E+00 0. -1.
          1   -1    0    0  501    0 -0.00000000000E+00 -0.00000000000E+00 -0.39682259433E+03  0.39682259433E+03  0.00000000000E+00 0. -1.
         25    2    1    2    0    0  0.12094730961E+03 -0.37540561438E+01  0.47614635889E+03  0.50693486058E+03  0.12500101259E+03 0.  0.
          2    1    1    2  501    0  0.45238305669E+01 -0.38686410221E+02 -0.37642810733E+03  0.37843787253E+03  0.00000000000E+00 0. -1.
          1    1    1    2  502    0 -0.12547114017E+03  0.42440466365E+02  0.10937923620E+04  0.11017830691E+04  0.00000000000E+00 0. -1.
         22    1    3    3    0    0  0.13477239825E+03 -0.28384302095E+02  0.44005648812E+03  0.46110625746E+03  0.00000000000E+00 0. -1.
         22    1    3    3    0    0 -0.13825088639E+02  0.24630245951E+02  0.36089870773E+02  0.45828603120E+02  0.00000000000E+00 0. -1.
</event>
<event>
 7    1  0.6597701E-006  0.3256076E+02  0.7818608E-02  0.1587333E+00
          2   -1    0    0  502    0  0.00000000000E+00  0.00000000000E+00  0.18426023472E+03  0.18426023472E+03  0.00000000000E+00 0. -1.
          1   -1    0    0  501    0 -0.00000000000E+00 -0.00000000000E+00 -0.24144589704E+04  0.24144589704E+04  0.00000000000E+00 0. -1.
         25    2    1    2    0    0  0.28915149234E+02 -0.40846087346E+02 -0.22067256602E+03  0.25850717405E+03  0.12500035573E+03 0.  0.
          2    1    1    2  501    0  0.15290688055E+01  0.29466810681E+02 -0.21731707871E+04  0.21733710914E+04  0.00000000000E+00 0. -1.
          1    1    1    2  502    0 -0.30444218040E+02  0.11379276666E+02  0.16364461742E+03  0.16684093970E+03  0.00000000000E+00 0. -1.
         22    1    3    3    0    0  0.20026866610E+02 -0.85742740953E+02 -0.15835676984E+03  0.18118984399E+03  0.00000000000E+00 0.  1.
         22    1    3    3    0    0  0.88882826245E+01  0.44896653607E+02 -0.62315796186E+02  0.77317330059E+02  0.00000000000E+00 0.  1.
</event>
<event>
 7    1  0.6597701E-006  0.6796979E+02  0.7818608E-02  0.1387298E+00
          2   -1    0    0  502    0  0.00000000000E+00  0.00000000000E+00  0.31699429590E+03  0.31699429590E+03  0.00000000000E+00 0. -1.
          1   -1    0    0  501    0 -0.00000000000E+00 -0.00000000000E+00 -0.30144343793E+03  0.30144343793E+03  0.00000000000E+00 0. -1.
         25    2    1    2    0    0 -0.44315420296E+02  0.11383030521E+03  0.20080309622E+03  0.26620977930E+03  0.12499827313E+03 0.  0.
          2    1    1    2  501    0  0.12420294417E+02 -0.65837614528E+02 -0.25390534424E+03  0.26259622814E+03  0.00000000000E+00 0. -1.
          1    1    1    2  502    0  0.31895125879E+02 -0.47992690685E+02  0.68653105989E+02  0.89631726391E+02  0.00000000000E+00 0. -1.
         22    1    3    3    0    0  0.60229870090E+01  0.22557713553E+02 -0.14161641561E+02  0.27307121873E+02  0.00000000000E+00 0. -1.
         22    1    3    3    0    0 -0.50338407305E+02  0.91272591660E+02  0.21496473778E+03  0.23890265743E+03  0.00000000000E+00 0. -1.
</event>
<event>
 7    1  0.6597701E-006  0.1538323E+03  0.7818608E-02  0.1381915E+00
          2   -1    0    0  502    0  0.00000000000E+00  0.00000000000E+00  0.42783514564E+03  0.42783514564E+03  0.00000000000E+00 0. -1.
          1   -1    0    0  501    0 -0.00000000000E+00 -0.00000000000E+00 -0.18280459542E+03  0.18280459542E+03  0.00000000000E+00 0. -1.
         25    2    1    2    0    0  0.10142090850E+03 -0.14332706920E+03  0.17469274315E+03  0.27743789844E+03  0.12500153412E+03 0.  0.
          2    1    1    2  501    0 -0.91079410000E+02  0.11882430870E+03 -0.87318371304E+02  0.17331812724E+03  0.00000000000E+00 0. -1.
          1    1    1    2  502    0 -0.10341498502E+02  0.24502760497E+02  0.15765617838E+03  0.15988371538E+03  0.00000000000E+00 0. -1.
         22    1    3    3    0    0  0.10441708671E+03 -0.14237854414E+03  0.10046719308E+03  0.20314584592E+03  0.00000000000E+00 0. -1.
         22    1    3    3    0    0 -0.29961782134E+01 -0.94852506152E+00  0.74225550073E+02  0.74292052518E+02  0.00000000000E+00 0. -1.
</event>
<event>
 7    1  0.6597701E-006  0.6607203E+02  0.7818608E-02  0.1513175E+00
          2   -1    0    0  502    0  0.00000000000E+00  0.00000000000E+00  0.52203558291E+03  0.52203558291E+03  0.00000000000E+00 0. -1.
          1   -1    0    0  501    0 -0.00000000000E+00 -0.00000000000E+00 -0.41456458962E+03  0.41456458962E+03  0.00000000000E+00 0. -1.
         25    2    1    2    0    0  0.46182130189E+02  0.70395104076E+02 -0.22096097173E+03  0.26746556480E+03  0.12500326996E+03 0.  0.
          2    1    1    2  501    0 -0.38558583117E+02 -0.48255345394E+02 -0.16446500665E+03  0.17568176088E+03  0.00000000000E+00 0. -1.
          1    1    1    2  502    0 -0.76235470722E+01 -0.22139758681E+02  0.49289697167E+03  0.49345284685E+03  0.00000000000E+00 0. -1.
         22    1    3    3    0    0 -0.19441031510E+02 -0.74893738962E+01 -0.12764569735E+03  0.12933471490E+03  0.00000000000E+00 0. -1.
         22    1    3    3    0    0  0.65623161699E+02  0.77884477972E+02 -0.93315274380E+02  0.13813084990E+03  0.00000000000E+00 0. -1.
</event>
<event>
 7    1  0.6597701E-006  0.1517529E+03  0.7818608E-02  0.1268781E+00
          2   -1    0    0  502    0  0.00000000000E+00  0.00000000000E+00  0.15739207478E+04  0.15739207478E+04  0.00000000000E+00 0. -1.
          1   -1    0    0  501    0 -0.00000000000E+00 -0.00000000000E+00 -0.27338470030E+04  0.27338470030E+04  0.00000000000E+00 0. -1.
         25    2    1    2    0    0  0.20553952433E+03  0.65591979355E+02 -0.17617454764E+03  0.30530567423E+03  0.12500111864E+03 0.  0.
          2    1    1    2  501    0 -0.13209297870E+03 -0.70315164313E+02 -0.24899620879E+04  0.24944546451E+04  0.00000000000E+00 0. -1.
          1    1    1    2  502    0 -0.73446545627E+02  0.47231849578E+01  0.15062103804E+04  0.15080074315E+04  0.00000000000E+00 0. -1.
         22    1    3    3    0    0  0.51683413257E+02  0.17926490053E+02  0.13622518080E+02  0.56374703994E+02  0.00000000000E+00 0.  1.
         22    1    3    3    0    0  0.15385611107E+03  0.47665489303E+02 -0.18979706572E+03  0.24893097023E+03  0.00000000000E+00 0.  1.
</event>
<event>
 7    1  0.6597701E-006  0.7236187E+02  0.7818608E-02  0.1367032E+00
          2   -1    0    0  502    0  0.00000000000E+00  0.00000000000E+00  0.78597406333E+03  0.78597406333E+03  0.00000000000E+00 0. -1.
          1   -1    0    0  501    0 -0.00000000000E+00 -0.00000000000E+00 -0.70235753586E+03  0.70235753586E+03  0.00000000000E+00 0. -1.
         25    2    1    2    0    0  0.27980666716E+02  0.87590209927E+02 -0.49439269140E+02  0.16285931924E+03  0.12499581572E+03 0.  0.
          2    1    1    2  501    0  0.31861389398E+02 -0.65183085266E+02 -0.59259174615E+03  0.59701671697E+03  0.00000000000E+00 0. -1.
          1    1    1    2  502    0 -0.59842056114E+02 -0.22407124661E+02  0.72564754275E+03  0.72845556297E+03  0.00000000000E+00 0. -1.
         22    1    3    3    0    0 -0.28092639039E+02  0.79136774155E+02  0.51683568773E+01  0.84134043673E+02  0.00000000000E+00 0.  1.
         22    1    3    3    0    0  0.56073305756E+02  0.84534357720E+01 -0.54607626017E+02  0.78725275572E+02  0.00000000000E+00 0.  1.
</event>
<event>
 7    1  0.6597701E-006  0.3390439E+02  0.7818608E-02  0.1592062E+00
          2   -1    0    0  502    0  0.00000000000E+00  0.00000000000E+00  0.87827073691E+03  0.87827073691E+03  0.00000000000E+00 0. -1.
          1   -1    0    0  501    0 -0.00000000000E+00 -0.00000000000E+00 -0.39831069840E+03  0.39831069840E+03  0.00000000000E+00 0. -1.
         25    2    1    2    0    0 -0.40561078800E+02  0.32265169488E+02 -0.24249167456E+03  0.27769528200E+03  0.12500486045E+03 0.  0.
          2    1    1    2  501    0  0.71505573539E+01 -0.26586887246E+02 -0.13650873784E+03  0.13925741829E+03  0.00000000000E+00 0. -1.
          1    1    1    2  502    0  0.33410521446E+02 -0.56782822421E+01  0.85896045092E+03  0.85962873502E+03  0.00000000000E+00 0. -1.
         22    1    3    3    0    0 -0.71495508028E+02  0.59472226313E+02 -0.18380761663E+03  0.20599464386E+03  0.00000000000E+00 0. -1.
         22    1    3    3    0    0  0.30934429228E+02 -0.27207056825E+02 -0.58684057937E+02  0.71700638133E+02  0.00000000000E+00 0. -1.
</event>
<event>
 7    1  0.6597701E-006  0.6360332E+02  0.7818608E-02  0.1384792E+00
          2   -1    0    0  502    0  0.00000000000E+00  0.00000000000E+00  0.20235652008E+04  0.20235652008E+04  0.00000000000E+00 0. -1.
          1   -1    0    0  501    0 -0.00000000000E+00 -0.00000000000E+00 -0.32756062864E+03  0.32756062864E+03  0.00000000000E+00 0. -1.
         25    2    1    2    0    0 -0.97373620047E+01 -0.54099150727E+02 -0.16734965993E+03  0.21599046406E+03  0.12499775022E+03 0.  0.
          2    1    1    2  501    0 -0.51392386505E+02  0.36162502654E+02 -0.12808900152E+03  0.14267339030E+03  0.00000000000E+00 0. -1.
          1    1    1    2  502    0  0.61129748510E+02  0.17936648074E+02  0.19914432336E+04  0.19924619750E+04  0.00000000000E+00 0. -1.
         22    1    3    3    0    0  0.62422093240E+01 -0.93544021072E+02 -0.10906309010E+03  0.14382004963E+03  0.00000000000E+00 0. -1.
         22    1    3    3    0    0 -0.15979571329E+02  0.39444870344E+02 -0.58286569830E+02  0.72170414429E+02  0.00000000000E+00 0. -1.
</event>
<event>
 7    1  0.6597701E-006  0.5645919E+02  0.7818608E-02  0.1512178E+00
          2   -1    0    0  502    0  0.00000000000E+00  0.00000000000E+00  0.42400613452E+03  0.42400613452E+03  0.00000000000E+00 0. -1.
          1   -1    0    0  501    0 -0.00000000000E+00 -0.00000000000E+00 -0.87247341806E+03  0.87247341806E+03  0.00000000000E+00 0. -1.
         25    2    1    2    0    0  0.61150197658E+02 -0.18273302013E+02  0.26211452116E+03  0.29732574221E+03  0.12500125814E+03 0.  0.
          2    1    1    2  501    0 -0.19921739549E+02 -0.19084023606E+02 -0.84927226154E+03  0.84972021859E+03  0.00000000000E+00 0. -1.
          1    1    1    2  502    0 -0.41228458109E+02  0.37357325619E+02  0.13869045684E+03  0.14943359178E+03  0.00000000000E+00 0. -1.
         22    1    3    3    0    0  0.63461449782E+02 -0.94444269950E+01  0.27452383736E+03  0.28192178009E+03  0.00000000000E+00 0.  1.
         22    1    3    3    0    0 -0.23112521238E+01 -0.88288750178E+01 -0.12409316200E+02  0.15403962120E+02  0.00000000000E+00 0.  1.
</event>
<event>
 7    1  0.6597701E-006  0.7323541E+02  0.7818608E-02  0.1377171E+00
          2   -1    0    0  502    0  0.00000000000E+00  0.00000000000E+00  0.94253739997E+03  0.94253739997E+03  0.00000000000E+00 0. -1.
          1   -1    0    0  501    0 -0.00000000000E+00 -0.00000000000E+00 -0.34014022578E+03  0.34014022578E+03  0.00000000000E+00 0. -1.
         25    2    1    2    0    0  0.90002537475E+02 -0.60451776593E+02 -0.14875738233E+03  0.22250592782E+03  0.12500102029E+03 0.  0.
          2    1    1    2  501    0 -0.57840284946E+02 -0.51583033601E+01 -0.14751669189E+03  0.15853479442E+03  0.00000000000E+00 0. -1.
          1    1    1    2  502    0 -0.32162252529E+02  0.65610079953E+02  0.89867124840E+03  0.90163690352E+03  0.00000000000E+00 0. -1.
         22    1    3    3    0    0  0.15263219361E+02  0.10666206528E+02  0.18333256673E+02  0.26131248099E+02  0.00000000000E+00 0. -1.
         22    1    3    3    0    0  0.74739318114E+02 -0.71117983121E+02 -0.16709063900E+03  0.19637467972E+03  0.00000000000E+00 0. -1.
</event>
<event>
 7    1  0.6597701E-006  0.5854701E+02  0.7818608E-02  0.1529907E+00
          2   -1    0    0  502    0  0.00000000000E+00  0.00000000000E+00  0.58667954603E+03  0.58667954603E+03  0.00000000000E+00 0. -1.
          1   -1    0    0  501    0 -0.00000000000E+00 -0.00000000000E+00 -0.10190532813E+04  0.10190532813E+04  0.00000000000E+00 0. -1.
         25    2    1    2    0    0 -0.60796571232E+02  0.41513333863E+02  0.15171948529E+03  0.20991443044E+03  0.12500274369E+03 0.  0.
          2    1    1    2  501    0  0.23505195110E+02  0.24596287013E+01 -0.98776609396E+03  0.98804878439E+03  0.00000000000E+00 0. -1.
          1    1    1    2  502    0  0.37291376123E+02 -0.43972962565E+02  0.40367287339E+03  0.40776961250E+03  0.00000000000E+00 0. -1.
         22    1    3    3    0    0 -0.19681985873E+02  0.10961839511E+02  0.15682741719E+03  0.15843731024E+03  0.00000000000E+00 0. -1.
         22    1    3    3    0    0 -0.41114585359E+02  0.30551494353E+02 -0.51079319008E+01  0.51477120206E+02  0.00000000000E+00 0. -1.
</event>
<event>
 7    1  0.6597701E-006  0.3518732E+03  0.7818608E-02  0.1221366E+00
          2   -1    0    0  502    0  0.00000000000E+00  0.00000000000E+00  0.70554474783E+03  0.70554474783E+03  0.00000000000E+00 0. -1.
          1   -1    0    0  501    0 -0.00000000000E+00 -0.00000000000E+00 -0.63493618557E+03  0.63493618557E+03  0.00000000000E+00 0. -1.
         25    2    1    2    0    0  0.35190300253E+03 -0.17285226634E+03  0.12383609437E+03  0.42973756745E+03  0.12500147776E+03 0.  0.
          2    1    1    2  501    0 -0.30160361979E+03  0.16342300512E+03 -0.41894244960E+03  0.54146523263E+03  0.00000000000E+00 0. -1.
          1    1    1    2  502    0 -0.50299382738E+02  0.94292612184E+01  0.36571491749E+03  0.36927813331E+03  0.00000000000E+00 0. -1.
         22    1    3    3    0    0  0.10150596174E+02  0.12464853546E+02 -0.95858745339E+01  0.18716200661E+02  0.00000000000E+00 0.  1.
         22    1    3    3    0    0  0.34175240636E+03 -0.18531711989E+03  0.13342196890E+03  0.41102136679E+03  0.00000000000E+00 0.  1.
</event>
<event>
 7    1  0.6597701E-006  0.1358327E+03  0.7818608E-02  0.1219406E+00
          2   -1    0    0  502    0  0.00000000000E+00  0.00000000000E+00  0.43532926531E+03  0.43532926531E+03  0.00000000000E+00 0. -1.
          1   -1    0    0  501    0 -0.00000000000E+00 -0.00000000000E+00 -0.34757259787E+03  0.34757259787E+03  0.00000000000E+00 0. -1.
         25    2    1    2    0    0 -0.95537178375E+02  0.12562769113E+03  0.17846463230E+03  0.26902307282E+03  0.12495647041E+03 0.  0.
          2    1    1    2  501    0 -0.50322045512E+02 -0.12616738116E+03 -0.25821736745E+03  0.29176484570E+03  0.00000000000E+00 0. -1.
          1    1    1    2  502    0  0.14585922389E+03  0.53969003295E+00  0.16750940259E+03  0.22211394466E+03  0.00000000000E+00 0. -1.
         22    1    3    3    0    0 -0.20809246203E+02  0.36232060306E+02  0.14034169498E+03  0.14642943103E+03  0.00000000000E+00 0. -1.
         22    1    3    3    0    0 -0.74727932173E+02  0.89395630825E+02  0.38122937317E+02  0.12259364179E+03  0.00000000000E+00 0. -1.
</event>
<event>
 7    1  0.6597701E-006  0.1537570E+03  0.7818608E-02  0.1249653E+00
          2   -1    0    0  502    0  0.00000000000E+00  0.00000000000E+00  0.18441942326E+04  0.18441942326E+04  0.00000000000E+00 0. -1.
          1   -1    0    0  501    0 -0.00000000000E+00 -0.00000000000E+00 -0.37088080213E+03  0.37088080213E+03  0.00000000000E+00 0. -1.
         25    2    1    2    0    0 -0.61282170678E+02  0.94633821496E+02 -0.71642620145E+02  0.18293529168E+03  0.12498636449E+03 0.  0.
          2    1    1    2  501    0  0.36742973174E+02 -0.17881286342E+03 -0.20814087092E+03  0.27685141926E+03  0.00000000000E+00 0. -1.
          1    1    1    2  502    0  0.24539197504E+02  0.84179041920E+02  0.17530969216E+04  0.17552883238E+04  0.00000000000E+00 0. -1.
         22    1    3    3    0    0 -0.13479879803E+02 -0.81405496779E+01 -0.67712827018E+02  0.69519800426E+02  0.00000000000E+00 0. -1.
         22    1    3    3    0    0 -0.47802290875E+02  0.10277437117E+03 -0.39297931270E+01  0.11341549126E+03  0.00000000000E+00 0. -1.
</event>
<event>
 7    1  0.6597701E-006  0.9220530E+02  0.7818608E-02  0.1386229E+00
          2   -1    0    0  502    0  0.00000000000E+00  0.00000000000E+00  0.48186710062E+03  0.48186710062E+03  0.00000000000E+00 0. -1.
          1   -1    0    0  501    0 -0.00000000000E+00 -0.00000000000E+00 -0.77519841285E+02  0.77519841285E+02  0.00000000000E+00 0. -1.
         25    2    1    2    0    0 -0.42867337154E+02 -0.10183261739E+03  0.35952956377E+03  0.39635084881E+03  0.12499999027E+03 0.  0.
          2    1    1    2  501    0  0.64109077834E+02  0.64622339016E+02 -0.12063135623E+02  0.91823416412E+02  0.00000000000E+00 0. -1.
          1    1    1    2  502    0 -0.21241740680E+02  0.37210278374E+02  0.56880831183E+02  0.71212676679E+02  0.00000000000E+00 0. -1.
         22    1    3    3    0    0  0.28019980904E+02 -0.86325658364E+02  0.15877464885E+03  0.18288419215E+03  0.00000000000E+00 0.  1.
         22    1    3    3    0    0 -0.70887318058E+02 -0.15506959026E+02  0.20075491492E+03  0.21346665666E+03  0.00000000000E+00 0.  1.
</event>
<event>
 7    1  0.6597701E-006  0.1280601E+03  0.7818608E-02  0.1356988E+00
          2   -1    0    0  502    0  0.00000000000E+00  0.00000000000E+00  0.69978214073E+03  0.69978214073E+03  0.00000000000E+00 0. -1.
          1   -1    0    0  501    0 -0.00000000000E+00 -0.00000000000E+00 -0.17135941904E+04  0.17135941904E+04  0.00000000000E+00 0. -1.
         25    2    1    2    0    0  0.15616671793E+03  0.28553754220E+02  0.25752759033E+03  0.32733610046E+03  0.12500040885E+03 0.  0.
          2    1    1    2  501    0 -0.36782403635E+02 -0.13774302722E+02 -0.16695727246E+04  0.16700346582E+04  0.00000000000E+00 0. -1.
          1    1    1    2  502    0 -0.11938431430E+03 -0.14779451498E+02  0.39823308462E+03  0.41600557252E+03  0.00000000000E+00 0. -1.
         22    1    3    3    0    0  0.45975826016E+02 -0.39395329108E+02  0.13982402778E+03  0.15236970590E+03  0.00000000000E+00 0.  1.
         22    1    3    3    0    0  0.11019089192E+03  0.67949083328E+02  0.11770356256E+03  0.17496639456E+03  0.00000000000E+00 0.  1.
</event>
<event>
 7    1  0.6597701E-006  0.1496017E+03  0.7818608E-02  0.1205987E+00
          2   -1    0    0  502    0  0.00000000000E+00  0.00000000000E+00  0.19494659327E+04  0.19494659327E+04  0.00000000000E+00 0. -1.
          1   -1    0    0  501    0 -0.00000000000E+00 -0.00000000000E+00 -0.28452696050E+03  0.28452696050E+03  0.00000000000E+00 0. -1.
         25    2    1    2    0    0 -0.16227317345E+03 -0.23575244092E+03  0.17002032594E+03  0.35558877174E+03  0.12499866852E+03 0.  0.
          2    1    1    2  501    0  0.73538577934E+02  0.12112805509E+03 -0.16195812036E+03  0.21519842222E+03  0.00000000000E+00 0. -1.
          1    1    1    2  502    0  0.88734595514E+02  0.11462438583E+03  0.16568767666E+04  0.16632056993E+04  0.00000000000E+00 0. -1.
         22    1    3    3    0    0 -0.17685840776E+02 -0.38028969182E+02 -0.19141243734E+02  0.46101829386E+02  0.00000000000E+00 0. -1.
         22    1    3    3    0    0 -0.14458733267E+03 -0.19772347174E+03  0.18916156967E+03  0.30948694235E+03  0.00000000000E+00 0. -1.
</event>
<event>
 7    1  0.6597701E-006  0.4387650E+02  0.7818608E-02  0.1509638E+00
          2   -1    0    0  502    0  0.00000000000E+00  0.00000000000E+00  0.24526889981E+03  0.24526889981E+03  0.00000000000E+00 0. -1.
          1   -1    0    0  501    0 -0.00000000000E+00 -0.00000000000E+00 -0.99878432039E+02  0.99878432039E+02  0.00000000000E+00 0. -1.
         25    2    1    2    0    0 -0.18756144088E+02 -0.11513082833E+02  0.13631834890E+03  0.18625528629E+03  0.12499598155E+03 0.  0.
          2    1    1    2  501    0  0.50925596448E+01  0.44943200307E+02 -0.63423053519E+02  0.77899352598E+02  0.00000000000E+00 0. -1.
          1    1    1    2  502    0  0.13663584443E+02 -0.33430117473E+02  0.72495172387E+02  0.80992692964E+02  0.00000000000E+00 0. -1.
         22    1    3    3    0    0  0.27763626174E+02  0.35611151621E+02  0.10227380196E+03  0.11179849563E+03  0.00000000000E+00 0. -1.
         22    1    3    3    0    0 -0.46519770262E+02 -0.47124234454E+02  0.34044546944E+02  0.74456790656E+02  0.00000000000E+00 0. -1.
</event>
<event>
 7    1  0.6597701E-006  0.8270528E+02  0.7818608E-02  0.1478031E+00
          2   -1    0    0  502    0  0.00000000000E+00  0.00000000000E+00  0.14277836656E+04  0.14277836656E+04  0.00000000000E+00 0. -1.
          1   -1    0    0  501    0 -0.00000000000E+00 -0.00000000000E+00 -0.84519549926E+03  0.84519549926E+03  0.00000000000E+00 0. -1.
         25    2    1    2    0    0 -0.65967131424E+02  0.60349201343E+02  0.40361974942E+02  0.15889785092E+03  0.12500299786E+03 0.  0.
          2    1    1    2  501    0  0.21866977544E+02  0.95249638538E+01 -0.78446103180E+03  0.78482354709E+03  0.00000000000E+00 0. -1.
          1    1    1    2  502    0  0.44100153880E+02 -0.69874165197E+02  0.13266872232E+04  0.13292577668E+04  0.00000000000E+00 0. -1.
         22    1    3    3    0    0  0.11989302221E+02  0.41681082838E+02  0.62188803200E+02  0.75818884704E+02  0.00000000000E+00 0.  1.
         22    1    3    3    0    0 -0.77956433645E+02  0.18668118505E+02 -0.21826828258E+02  0.83078966213E+02  0.00000000000E+00 0.  1.
</event>
<event>
 7    1  0.6597701E-006  0.5706247E+02  0.7818608E-02  0.1477884E+00
          2   -1    0    0  502    0  0.00000000000E+00  0.00000000000E+00  0.56710035330E+03  0.56710035330E+03  0.00000000000E+00 0. -1.
          1   -1    0    0  501    0 -0.00000000000E+00 -0.00000000000E+00 -0.14970607587E+04  0.14970607587E+04  0.00000000000E+00 0. -1.
         25    2    1    2    0    0  0.74340446106E+02 -0.71984832364E+01  0.13982747253E+03  0.20186869529E+03  0.12498371085E+03 0.  0.
          2    1    1    2  501    0 -0.48422150186E+02  0.30128980883E+02 -0.14647286101E+04  0.14658384499E+04  0.00000000000E+00 0. -1.
          1    1    1    2  502    0 -0.25918295920E+02 -0.22930497647E+02  0.39494073220E+03  0.39645396673E+03  0.00000000000E+00 0. -1.
         22    1    3    3    0    0 -0.14423382220E+02 -0.11050682393E+02  0.10480392872E+03  0.10636735877E+03  0.00000000000E+00 0. -1.
         22    1    3    3    0    0  0.88763828326E+02  0.38521991563E+01  0.35023543808E+02  0.95501336526E+02  0.00000000000E+00 0. -1.
</event>
<event>
 7    1  0.6597701E-006  0.1775329E+03  0.7818608E-02  0.1196497E+00
          2   -1    0    0  502    0  0.00000000000E+00  0.00000000000E+00  0.13514340766E+04  0.13514340766E+04  0.00000000000E+00 0. -1.
          1   -1    0    0  501    0 -0.00000000000E+00 -0.00000000000E+00 -0.15479012230E+03  0.15479012230E+03  0.00000000000E+00 0. -1.
         25    2    1    2    0    0  0.94428754705E+02  0.39562747699E+02  0.23350996413E+03  0.28396193060E+03  0.12500189583E+03 0.  0.
          2    1    1    2  501    0 -0.11837415021E+03 -0.16972246127E+03 -0.39728680971E+02  0.21070482052E+03  0.00000000000E+00 0. -1.
          1    1    1    2  502    0  0.23945395502E+02  0.13015971357E+03  0.10028626711E+04  0.10115574478E+04  0.00000000000E+00 0. -1.
         22    1    3    3    0    0  0.28107883853E+02  0.36806854988E+02  0.56796317816E+01  0.46658931899E+02  0.00000000000E+00 0. -1.
         22    1    3    3    0    0  0.66320870852E+02  0.27558927111E+01  0.22783033235E+03  0.23730299870E+03  0.00000000000E+00 0. -1.
</event>
<event>
 7    1  0.6597701E-006  0.4326744E+02  0.7818608E-02  0.1538202E+00
          2   -1    0    0  502    0  0.00000000000E+00  0.00000000000E+00  0.23714413805E+02  0.23714413805E+02  0.00000000000E+00 0. -1.
          1   -1    0    0  501    0 -0.00000000000E+00 -0.00000000000E+00 -0.12016014330E+04  0.12016014330E+04  0.00000000000E+00 0. -1.
         25    2    1    2    0    0  0.20482184897E+02  0.37734187420E+02 -0.23981792827E+03  0.27382812602E+03  0.12500326029E+03 0.  0.
          2    1    1    2  501    0  0.94158542788E+01 -0.42563876528E+02 -0.90718624578E+03  0.90823302430E+03  0.00000000000E+00 0. -1.
          1    1    1    2  502    0 -0.29898039176E+02  0.48296891085E+01 -0.30882845145E+02  0.43254696481E+02  0.00000000000E+00 0. -1.
         22    1    3    3    0    0  0.39049742387E+01 -0.18209563926E+02  0.72341811609E+01  0.19979249717E+02  0.00000000000E+00 0. -1.
         22    1    3    3    0    0  0.16577210658E+02  0.55943751346E+02 -0.24705210943E+03  0.25384887631E+03  0.00000000000E+00 0. -1.
</event>
<event>
 7    1  0.6597701E-006  0.3008957E+02  0.7818608E-02  0.1637792E+00
          2   -1    0    0  502    0  0.00000000000E+00  0.00000000000E+00  0.37540957515E+03  0.37540957515E+03  0.00000000000E+00 0. -1.
          1   -1    0    0  501    0 -0.00000000000E+00 -0.00000000000E+00 -0.78402352543E+02  0.78402352543E+02  0.00000000000E+00 0. -1.
         25    2    1    2    0    0  0.16972507770E+01 -0.39286929980E+02  0.36706013922E+02  0.13608172180E+03  0.12499824008E+03 0.  0.
          2    1    1    2  501    0 -0.18981046763E+02  0.23096404650E+02 -0.20297000920E+02  0.36134364396E+02  0.00000000000E+00 0. -1.
          1    1    1    2  502    0  0.17283795986E+02  0.16190525330E+02  0.28059820961E+03  0.28159584150E+03  0.00000000000E+00 0. -1.
         22    1    3    3    0    0  0.13148649237E+02 -0.64862241435E+02  0.67441277766E+02  0.94489805203E+02  0.00000000000E+00 0. -1.
         22    1    3    3    0    0 -0.11451398460E+02  0.25575311455E+02 -0.30735263844E+02  0.41591916597E+02  0.00000000000E+00 0. -1.
</event>
<event>
 7    1  0.6597701E-006  0.1999768E+03  0.7818608E-02  0.1201167E+00
          2   -1    0    0  502    0  0.00000000000E+00  0.00000000000E+00  0.73803830076E+03  0.73803830076E+03  0.00000000000E+00 0. -1.
          1   -1    0    0  501    0 -0.00000000000E+00 -0.00000000000E+00 -0.17371829730E+04  0.17371829730E+04  0.00000000000E+00 0. -1.
         25    2    1    2    0    0 -0.93980696121E+02  0.19546714833E+03 -0.67042836877E+03  0.71563891221E+03  0.12500031080E+03 0.  0.
          2    1    1    2  501    0  0.11159739443E+03  0.39955812208E+01 -0.10270523572E+04  0.10331052645E+04  0.00000000000E+00 0. -1.
          1    1    1    2  502    0 -0.17616698307E+02 -0.19946272955E+03  0.69833605375E+03  0.72647709702E+03  0.00000000000E+00 0. -1.
         22    1    3    3    0    0 -0.50524901349E+02  0.31426505311E+02 -0.32929433112E+03  0.33462687788E+03  0.00000000000E+00 0.  1.
         22    1    3    3    0    0 -0.43455794772E+02  0.16404064302E+03 -0.34113403765E+03  0.38101203433E+03  0.00000000000E+00 0.  1.
</event>
<event>
 7    1  0.6597701E-006  0.8494915E+02  0.7818608E-02  0.1380728E+00
          2   -1    0    0  502    0  0.00000000000E+00  0.00000000000E+00  0.14718068456E+03  0.14718068456E+03  0.00000000000E+00 0. -1.
          1   -1    0    0  501    0 -0.00000000000E+00 -0.00000000000E+00 -0.16066552752E+04  0.16066552752E+04  0.00000000000E+00 0. -1.
         25    2    1    2    0    0  0.47689258727E+02 -0.70473850427E+02 -0.39752565869E+03  0.42531487800E+03  0.12500106854E+03 0.  0.
          2    1    1    2  501    0 -0.17122878138E+01  0.86313542671E+02 -0.11891820194E+04  0.11923115510E+04  0.00000000000E+00 0. -1.
          1    1    1    2  502    0 -0.45976970913E+02 -0.15839692244E+02  0.12723308745E+03  0.13620953068E+03  0.00000000000E+00 0. -1.
         22    1    3    3    0    0  0.41273016659E+02 -0.78940980768E+02 -0.40343905094E+03  0.41315639675E+03  0.00000000000E+00 0.  1.
         22    1    3    3    0    0  0.64162420686E+01  0.84671303406E+01  0.59133922483E+01  0.12158481253E+02  0.00000000000E+00 0.  1.
</event>
<event>
 7    1  0.6597701E-006  0.8934435E+02  0.7818608E-02  0.1431192E+00
          2   -1    0    0  502    0  0.00000000000E+00  0.00000000000E+00  0.72701618760E+03  0.72701618760E+03  0.00000000000E+00 0. -1.
          1   -1    0    0  501    0 -0.00000000000E+00 -0.00000000000E+00 -0.31991158000E+03  0.31991158000E+03  0.00000000000E+00 0. -1.
         25    2    1    2    0    0 -0.53422540654E+02 -0.45633532170E+02  0.33865569388E+03  0.36776174387E+03  0.12499853660E+03 0.  0.
          2    1    1    2  501    0 -0.96014506932E+01 -0.29591832457E+02 -0.29809399450E+03  0.29971301934E+03  0.00000000000E+00 0. -1.
          1    1    1    2  502    0  0.63023991347E+02  0.75225364627E+02  0.36654290823E+03  0.37945300439E+03  0.00000000000E+00 0. -1.
         22    1    3    3    0    0 -0.36818514001E+02  0.32925478880E+02  0.21292741460E+03  0.21858127555E+03  0.00000000000E+00 0.  1.
         22    1    3    3    0    0 -0.16604026653E+02 -0.78559011050E+02  0.12572827927E+03  0.14918046832E+03  0.00000000000E+00 0.  1.
</event>
<event>
 7    1  0.8733890E-006  0.8483387E+02  0.7818608E-02  0.1379295E+00
          2   -1    0    0  502    0  0.00000000000E+00  0.00000000000E+00  0.29118760047E+04  0.29118760047E+04  0.00000000000E+00 0. -1.
          1   -1    0    0  501    0 -0.00000000000E+00 -0.00000000000E+00 -0.42427775928E+03  0.42427775928E+03  0.00000000000E+00 0. -1.
         25    2    1    2    0    0 -0.27362786838E+02 -0.11255910193E+03 -0.19508808942E+03  0.25904080475E+03  0.12499800943E+03 0.  0.
          2    1    1    2  501    0 -0.22360395661E+02  0.43900988301E+02 -0.19350205498E+03  0.19967556022E+03  0.00000000000E+00 0. -1.
          1    1    1    2  502    0  0.49723182499E+02  0.68658113624E+02  0.28761883898E+04  0.28774373990E+04  0.00000000000E+00 0. -1.
         22    1    3    3    0    0  0.40046565902E+01  0.87884275537E+01  0.12955766785E+02  0.16159381989E+02  0.00000000000E+00 0. -1.
         22    1    3    3    0    0 -0.31367443428E+02 -0.12134752948E+03 -0.20804385621E+03  0.24288142276E+03  0.00000000000E+00 0. -1.
</event>
<event>
 7    1  0.6597701E-006  0.1548025E+03  0.7818608E-02  0.1410302E+00
          2   -1    0    0  502    0  0.00000000000E+00  0.00000000000E+00  0.74775112026E+02  0.74775112026E+02  0.00000000000E+00 0. -1.
          1   -1    0    0  501    0 -0.00000000000E+00 -0.00000000000E+00 -0.93821388318E+03  0.93821388318E+03  0.00000000000E+00 0. -1.
         25    2    1    2    0    0 -0.43101952180E+02  0.14984718505E+03 -0.15677223670E+03  0.25399534417E+03  0.12499657401E+03 0.  0.
          2    1    1    2  501    0  0.62518316902E+02 -0.14163572699E+03 -0.71838217784E+03  0.73487561706E+03  0.00000000000E+00 0. -1.
          1    1    1    2  502    0 -0.19416364722E+02 -0.82114580540E+01  0.11715643391E+02  0.24118033968E+02  0.00000000000E+00 0. -1.
         22    1    3    3    0    0 -0.67374791629E+02  0.11626606835E+03 -0.57009441721E+02  0.14596998884E+03  0.00000000000E+00 0.  1.
         22    1    3    3    0    0  0.24272839449E+02  0.33581116698E+02 -0.99762794978E+02  0.10802535534E+03  0.00000000000E+00 0.  1.
</event>
<event>
 7    1  0.6597701E-006  0.7171934E+02  0.7818608E-02  0.1388927E+00
          2   -1    0    0  502    0  0.00000000000E+00  0.00000000000E+00  0.14796352232E+04  0.14796352232E+04  0.00000000000E+00 0. -1.
          1   -1    0    0  501    0 -0.00000000000E+00 -0.00000000000E+00 -0.49514244965E+02  0.49514244965E+02  0.00000000000E+00 0. -1.
         25    2    1    2    0    0  0.59655696013E+02 -0.64873542542E+02  0.96277041707E+03  0.97484350440E+03  0.12500241397E+03 0.  0.
          2    1    1    2  501    0 -0.61644860827E+01  0.71496517312E+02 -0.11286249220E+02  0.72643873092E+02  0.00000000000E+00 0. -1.
          1    1    1    2  502    0 -0.53491209930E+02 -0.66229747690E+01  0.47863681042E+03  0.48166209071E+03  0.00000000000E+00 0. -1.
         22    1    3    3    0    0  0.19350597103E+02 -0.82236816346E+02  0.33313418720E+03  0.34367968554E+03  0.00000000000E+00 0.  1.
         22    1    3    3    0    0  0.40305098910E+02  0.17363273803E+02  0.62963622986E+03  0.63116381885E+03  0.00000000000E+00 0.  1.
</event>
<event>
 7    1  0.6597701E-006  0.5643091E+02  0.7818608E-02  0.1442118E+00
          2   -1    0    0  502    0  0.00000000000E+00  0.00000000000E+00  0.11139343838E+04  0.11139343838E+04  0.00000000000E+00 0. -1.
          1   -1    0    0  501    0 -0.00000000000E+00 -0.00000000000E+00 -0.39813782268E+03  0.39813782268E+03  0.00000000000E+00 0. -1.
         25    2    1    2    0    0 -0.16317069443E+02  0.25054936620E+02 -0.78993682086E+02  0.15086078343E+03  0.12499991026E+03 0.  0.
          2    1    1    2  501    0  0.58856895637E+02 -0.92633571663E+01 -0.27959271972E+03  0.28587065759E+03  0.00000000000E+00 0. -1.
          1    1    1    2  502    0 -0.42539826193E+02 -0.15791579454E+02  0.10743829630E+04  0.10753407655E+04  0.00000000000E+00 0. -1.
         22    1    3    3    0    0  0.40014645103E+02  0.46854665168E+02 -0.16154377013E+02  0.63698472253E+02  0.00000000000E+00 0.  1.
         22    1    3    3    0    0 -0.56331714546E+02 -0.21799728547E+02 -0.62839305073E+02  0.87162311181E+02  0.00000000000E+00 0.  1.
</event>
<event>
 7    1  0.6597701E-006  0.1328931E+03  0.7818608E-02  0.1394630E+00
          2   -1    0    0  502    0  0.00000000000E+00  0.00000000000E+00  0.47977389231E+03  0.47977389231E+03  0.00000000000E+00 0. -1.
          1   -1    0    0  501    0 -0.00000000000E+00 -0.00000000000E+00 -0.22904016077E+04  0.22904016077E+04  0.00000000000E+00 0. -1.
         25    2    1    2    0    0 -0.14122016655E+03  0.34004879207E+02 -0.34803784630E+03  0.39730894773E+03  0.12499836095E+03 0.  0.
          2    1    1    2  501    0  0.13170620286E+03 -0.78954691338E+01 -0.19150319498E+04  0.19195718874E+04  0.00000000000E+00 0. -1.
          1    1    1    2  502    0  0.95139636929E+01 -0.26109410074E+02  0.45244208070E+03  0.45329466485E+03  0.00000000000E+00 0. -1.
         22    1    3    3    0    0 -0.13210377925E+03  0.64859056787E+02 -0.32774769295E+03  0.35927239802E+03  0.00000000000E+00 0.  1.
         22    1    3    3    0    0 -0.91163872993E+01 -0.30854177580E+02 -0.20290153346E+02  0.38036549716E+02  0.00000000000E+00 0.  1.
</event>
<event>
 7    1  0.6597701E-006  0.8685215E+02  0.7818608E-02  0.1417372E+00
          2   -1    0    0  502    0  0.00000000000E+00  0.00000000000E+00  0.46608936395E+03  0.46608936395E+03  0.00000000000E+00 0. -1.
          1   -1    0    0  501    0 -0.00000000000E+00 -0.00000000000E+00 -0.18631200943E+04  0.18631200943E+04  0.00000000000E+00 0. -1.
         25    2    1    2    0    0 -0.33812588914E+02  0.76044496481E+02 -0.48618644206E+03  0.50885047599E+03  0.12500197541E+03 0.  0.
          2    1    1    2  501    0  0.33858157156E+02  0.10897653632E+02 -0.13612117171E+04  0.13616763464E+04  0.00000000000E+00 0. -1.
          1    1    1    2  502    0 -0.45568242848E-01 -0.86942150112E+02  0.45036742878E+03  0.45868263587E+03  0.00000000000E+00 0. -1.
         22    1    3    3    0    0 -0.74419271215E+02  0.79589613167E+02 -0.33565896653E+03  0.35290179408E+03  0.00000000000E+00 0.  1.
         22    1    3    3    0    0  0.40606682302E+02 -0.35451166863E+01 -0.15052747553E+03  0.15594868191E+03  0.00000000000E+00 0.  1.
</event>
<event>
 7    1  0.6597701E-006  0.4593763E+02  0.7818608E-02  0.1531314E+00
          2   -1    0    0  502    0  0.00000000000E+00  0.00000000000E+00  0.96546310386E+03  0.96546310386E+03  0.00000000000E+00 0. -1.
          1   -1    0    0  501    0 -0.00000000000E+00 -0.00000000000E+00 -0.13868887063E+04  0.13868887063E+04  0.00000000000E+00 0. -1.
         25    2    1    2    0    0 -0.44759979805E+02  0.51150301949E+02  0.41025967250E+02  0.14808427914E+03  0.12500405817E+03 0.  0.
          2    1    1    2  501    0  0.44668861293E+01 -0.29506472122E+02 -0.13325918590E+04  0.13329259723E+04  0.00000000000E+00 0. -1.
          1    1    1    2  502    0  0.40293093675E+02 -0.21643829826E+02  0.87014028934E+03  0.87134155869E+03  0.00000000000E+00 0. -1.
         22    1    3    3    0    0  0.27526098040E+02  0.63251762547E+02  0.18849423285E+02  0.71510644639E+02  0.00000000000E+00 0.  1.
         22    1    3    3    0    0 -0.72286077845E+02 -0.12101460598E+02  0.22176543965E+02  0.76573634503E+02  0.00000000000E+00 0.  1.
</event>
<event>
 7    1  0.6597701E-006  0.1169389E+03  0.7818608E-02  0.1398131E+00
          2   -1    0    0  502    0  0.00000000000E+00  0.00000000000E+00  0.36956329456E+02  0.36956329456E+02  0.00000000000E+00 0. -1.
          1   -1    0    0  501    0 -0.00000000000E+00 -0.00000000000E+00 -0.12745642911E+04  0.12745642911E+04  0.00000000000E+00 0. -1.
         25    2    1    2    0    0 -0.47000241297E+01  0.96050951765E+02 -0.10713242497E+04  0.10828707529E+04  0.12500217588E+03 0.  0.
          2    1    1    2  501    0 -0.21945077143E+02  0.21486127709E+02 -0.12237256332E+02  0.33060407397E+02  0.00000000000E+00 0. -1.
          1    1    1    2  502    0  0.26645101273E+02 -0.11753707947E+03 -0.15404645565E+03  0.19558946028E+03  0.00000000000E+00 0. -1.
         22    1    3    3    0    0  0.43930902078E+02  0.20647780333E+02 -0.66444905009E+03  0.66621977992E+03  0.00000000000E+00 0.  1.
         22    1    3    3    0    0 -0.48630926207E+02  0.75403171431E+02 -0.40687519961E+03  0.41665097300E+03  0.00000000000E+00 0.  1.
</event>
<event>
 7    1  0.6597701E-006  0.1556223E+03  0.7818608E-02  0.1303287E+00
          2   -1    0    0  502    0  0.00000000000E+00  0.00000000000E+00  0.10828054246E+04  0.10828054246E+04  0.00000000000E+00 0. -1.
          1   -1    0    0  501    0 -0.00000000000E+00 -0.00000000000E+00 -0.12752080185E+04  0.12752080185E+04  0.00000000000E+00 0. -1.
         25    2    1    2    0    0 -0.72980216332E+02 -0.78465383229E+02  0.85667558018E+02  0.18558654920E+03  0.12498203233E+03 0.  0.
          2    1    1    2  501    0  0.95569440435E+02  0.12512674539E+03 -0.12194742054E+04  0.12295965021E+04  0.00000000000E+00 0. -1.
          1    1    1    2  502    0 -0.22589224103E+02 -0.46661362166E+02  0.94140405344E+03  0.94283039175E+03  0.00000000000E+00 0. -1.
         22    1    3    3    0    0 -0.47533089744E+02  0.25186440404E+02  0.98990838373E+01  0.54696830453E+02  0.00000000000E+00 0. -1.
         22    1    3    3    0    0 -0.25447126588E+02 -0.10365182363E+03  0.75768474181E+02  0.13088971875E+03  0.00000000000E+00 0. -1.
</event>
<event>
 7    1  0.6597701E-006  0.1349627E+03  0.7818608E-02  0.1398564E+00
          2   -1    0    0  502    0  0.00000000000E+00  0.00000000000E+00  0.45181961003E+03  0.45181961003E+03  0.00000000000E+00 0. -1.
          1   -1    0    0  501    0 -0.00000000000E+00 -0.00000000000E+00 -0.18847253839E+04  0.18847253839E+04  0.00000000000E+00 0. -1.
         25    2    1    2    0    0  0.13207836244E+03  0.51398465121E+02 -0.16291898668E+04  0.16401126444E+04  0.12499347306E+03 0.  0.
          2    1    1    2  501    0 -0.10559577686E+03 -0.52794630118E+02 -0.23571121594E+03  0.26362381983E+03  0.00000000000E+00 0. -1.
          1    1    1    2  502    0 -0.26482585583E+02  0.13961649970E+01  0.43199530879E+03  0.43280852975E+03  0.00000000000E+00 0. -1.
         22    1    3    3    0    0  0.83658465844E+02  0.86889098449E+02 -0.12921973457E+04  0.12978144839E+04  0.00000000000E+00 0.  1.
         22    1    3    3    0    0  0.48419896598E+02 -0.35490633328E+02 -0.33699252105E+03  0.34229816050E+03  0.00000000000E+00 0.  1.
</event>
<event>
 7    1  0.6597701E-006  0.7015260E+02  0.7818608E-02  0.1525414E+00
          2   -1    0    0  502    0  0.00000000000E+00  0.00000000000E+00  0.18663618669E+04  0.18663618669E+04  0.00000000000E+00 0. -1.
          1   -1    0    0  501    0 -0.00000000000E+00 -0.00000000000E+00 -0.23539942146E+02  0.23539942146E+02  0.00000000000E+00 0. -1.
         25    2    1    2    0    0  0.87000507717E+02 -0.20807749508E+02  0.29853129570E+03  0.33578046845E+03  0.12500215078E+03 0.  0.
          2    1    1    2  501    0 -0.19023138697E+02  0.71402749784E+01  0.20884389741E+02  0.29137966084E+02  0.00000000000E+00 0. -1.
          1    1    1    2  502    0 -0.67977369021E+02  0.13667474530E+02  0.15234062394E+04  0.15249833746E+04  0.00000000000E+00 0. -1.
         22    1    3    3    0    0  0.63484011717E+02  0.39838472770E+02  0.22720882517E+03  0.23925127772E+03  0.00000000000E+00 0.  1.
         22    1    3    3    0    0  0.23516496000E+02 -0.60646222278E+02  0.71322470536E+02  0.96529190736E+02  0.00000000000E+00 0.  1.
</event>
<event>
 7    1  0.6597701E-006  0.1380827E+03  0.7818608E-02  0.1344502E+00
          2   -1    0    0  502    0  0.00000000000E+00  0.00000000000E+00  0.16506252192E+04  0.16506252192E+04  0.00000000000E+00 0. -1.
          1   -1    0    0  501    0 -0.00000000000E+00 -0.00000000000E+00 -0.12944796887E+04  0.12944796887E+04  0.00000000000E+00 0. -1.
         25    2    1    2    0    0 -0.76084429374E+02 -0.13793213579E+03 -0.18401111655E+03  0.27257787967E+03  0.12499797997E+03 0.  0.
          2    1    1    2  501    0  0.36049564613E+02  0.13170881082E+03 -0.10615556543E+04  0.10703023821E+04  0.00000000000E+00 0. -1.
          1    1    1    2  502    0  0.40034864761E+02  0.62233249743E+01  0.16017123014E+04  0.16022246461E+04  0.00000000000E+00 0. -1.
         22    1    3    3    0    0 -0.26446113438E+02 -0.90303009071E+02 -0.22097138868E+02  0.96655646030E+02  0.00000000000E+00 0.  1.
         22    1    3    3    0    0 -0.49638315936E+02 -0.47629126722E+02 -0.16191397768E+03  0.17592223365E+03  0.00000000000E+00 0.  1.
</event>
<event>
 7    1  0.6597701E-006  0.1206710E+03  0.7818608E-02  0.1302779E+00
          2   -1    0    0  502    0  0.00000000000E+00  0.00000000000E+00  0.33473388177E+04  0.33473388177E+04  0.00000000000E+00 0. -1.
          1   -1    0    0  501    0 -0.00000000000E+00 -0.00000000000E+00 -0.18757293902E+03  0.18757293902E+03  0.00000000000E+00 0. -1.
         25    2    1    2    0    0 -0.15018106458E+03  0.40986387908E+02  0.88629475196E+03  0.90850308015E+03  0.12500089257E+03 0.  0.
          2    1    1    2  501    0  0.92956883172E+02 -0.76159233262E+02 -0.15549193532E+03  0.19651705496E+03  0.00000000000E+00 0. -1.
          1    1    1    2  502    0  0.57224181407E+02  0.35172845354E+02  0.24289630621E+04  0.24298916216E+04  0.00000000000E+00 0. -1.
         22    1    3    3    0    0 -0.13246568332E+03  0.50475873318E+00  0.42669809945E+03  0.44678706350E+03  0.00000000000E+00 0. -1.
         22    1    3    3    0    0 -0.17715381263E+02  0.40481629175E+02  0.45959665251E+03  0.46171601665E+03  0.00000000000E+00 0. -1.
</event>
<event>
 7    1  0.6597701E-006  0.7853095E+02  0.7818608E-02  0.1431054E+00
          2   -1    0    0  502    0  0.00000000000E+00  0.00000000000E+00  0.80715385931E+03  0.80715385931E+03  0.00000000000E+00 0. -1.
          1   -1    0    0  501    0 -0.00000000000E+00 -0.00000000000E+00 -0.41120793222E+03  0.41120793222E+03  0.00000000000E+00 0. -1.
         25    2    1    2    0    0  0.42168899911E+01 -0.90202669065E+02  0.25228943873E+02  0.15625714462E+03  0.12500196786E+03 0.  0.
          2    1    1    2  501    0 -0.31274524145E+02  0.16651880198E+02 -0.34263428829E+03  0.34446137155E+03  0.00000000000E+00 0. -1.
          1    1    1    2  502    0  0.27057634154E+02  0.73550788867E+02  0.71335127151E+03  0.71764327536E+03  0.00000000000E+00 0. -1.
         22    1    3    3    0    0 -0.16844777274E+01  0.94373272125E+01  0.52030985090E+02  0.52906748337E+02  0.00000000000E+00 0.  1.
         22    1    3    3    0    0  0.59013677185E+01 -0.99639996277E+02 -0.26802041217E+02  0.10335039629E+03  0.00000000000E+00 0.  1.
</event>
<event>
 7    1  0.6597701E-006  0.9107848E+02  0.7818608E-02  0.1462453E+00
          2   -1    0    0  502    0  0.00000000000E+00  0.00000000000E+00  0.22174227206E+03  0.22174227206E+03  0.00000000000E+00 0. -1.
          1   -1    0    0  501    0 -0.00000000000E+00 -0.00000000000E+00 -0.68902103333E+03  0.68902103333E+03  0.00000000000E+00 0. -1.
         25    2    1    2    0    0  0.53398400524E+02 -0.53362205266E+02  0.94498138988E+02  0.17393823003E+03  0.12500278182E+03 0.  0.
          2    1    1    2  501    0 -0.77228513290E+02  0.49064788318E+02 -0.64433000237E+03  0.65079393718E+03  0.00000000000E+00 0. -1.
          1    1    1    2  502    0  0.23830112765E+02  0.42974169483E+01  0.82553102114E+02  0.86031138174E+02  0.00000000000E+00 0. -1.
         22    1    3    3    0    0 -0.25335368185E+02  0.10636203959E+02  0.61308718728E+02  0.67184586832E+02  0.00000000000E+00 0.  1.
         22    1    3    3    0    0  0.78733768710E+02 -0.63998409225E+02  0.33189420260E+02  0.10675364320E+03  0.00000000000E+00 0.  1.
</event>
<event>
 7    1  0.6597701E-006  0.6545520E+02  0.7818608E-02  0.1391060E+00
          2   -1    0    0  502    0  0.00000000000E+00  0.00000000000E+00  0.17897497085E+04  0.17897497085E+04  0.00000000000E+00 0. -1.
          1   -1    0    0  501    0 -0.00000000000E+00 -0.00000000000E+00 -0.92485586410E+02  0.92485586410E+02  0.00000000000E+00 0. -1.
         25    2    1    2    0    0  0.44127704351E+02 -0.34495328146E+02  0.61913879268E+02  0.15031991412E+03  0.12500226470E+03 0.  0.
          2    1    1    2  501    0 -0.37841344628E+00  0.72657276302E+02 -0.20147602599E+02  0.75399926305E+02  0.00000000000E+00 0. -1.
          1    1    1    2  502    0 -0.43749290904E+02 -0.38161948156E+02  0.16554978454E+04  0.16565154544E+04  0.00000000000E+00 0. -1.
         22    1    3    3    0    0 -0.24559389860E+02 -0.53230390121E+02  0.52141179928E+02  0.78455979422E+02  0.00000000000E+00 0. -1.
         22    1    3    3    0    0  0.68687094211E+02  0.18735061976E+02  0.97726993395E+01  0.71863934701E+02  0.00000000000E+00 0. -1.
</event>
<event>
 7    1  0.6597701E-006  0.8660171E+02  0.7818608E-02  0.1332635E+00
          2   -1    0    0  502    0  0.00000000000E+00  0.00000000000E+00  0.12118547896E+04  0.12118547896E+04  0.00000000000E+00 0. -1.
          1   -1    0    0  501    0 -0.00000000000E+00 -0.00000000000E+00 -0.95934853717E+02  0.95934853717E+02  0.00000000000E+00 0. -1.
         25    2    1    2    0    0 -0.10814612158E+02 -0.23416536058E+02  0.46946536543E+03  0.48651041105E+03  0.12501744166E+03 0.  0.
          2    1    1    2  501    0 -0.82480300044E+02  0.26398041598E+02 -0.62123510075E+02  0.10657948677E+03  0.00000000000E+00 0. -1.
          1    1    1    2  502    0  0.93294912202E+02 -0.29815055403E+01  0.70857808054E+03  0.71469974552E+03  0.00000000000E+00 0. -1.
         22    1    3    3    0    0 -0.29436433916E+01 -0.21282973949E+01  0.46285694217E+03  0.46287119548E+03  0.00000000000E+00 0. -1.
         22    1    3    3    0    0 -0.78709687663E+01 -0.21288238663E+02  0.66084232582E+01  0.23639215567E+02  0.00000000000E+00 0. -1.
</event>
<event>
 7    1  0.6597701E-006  0.7738831E+02  0.7818608E-02  0.1346436E+00
          2   -1    0    0  502    0  0.00000000000E+00  0.00000000000E+00  0.38158768401E+02  0.38158768401E+02  0.00000000000E+00 0. -1.
          1   -1    0    0  501    0 -0.00000000000E+00 -0.00000000000E+00 -0.20700888479E+04  0.20700888479E+04  0.00000000000E+00 0. -1.
         25    2    1    2    0    0  0.68813681872E+02 -0.35177787960E+02 -0.29146941935E+03  0.32642222492E+03  0.12499698769E+03 0.  0.
          2    1    1    2  501    0 -0.12112135982E+02  0.78075519879E+02 -0.16962741563E+04  0.16981132188E+04  0.00000000000E+00 0. -1.
          1    1    1    2  502    0 -0.56701545890E+02 -0.42897731919E+02 -0.44186503859E+02  0.83712172552E+02  0.00000000000E+00 0. -1.
         22    1    3    3    0    0  0.69519095544E+01 -0.41393703692E+01 -0.24008470513E+03  0.24022100047E+03  0.00000000000E+00 0. -1.
         22    1    3    3    0    0  0.61861772318E+02 -0.31038417591E+02 -0.51384714222E+02  0.86201224449E+02  0.00000000000E+00 0. -1.
</event>
<event>
 7    1  0.6597701E-006  0.4383765E+03  0.7818608E-02  0.1261630E+00
          2   -1    0    0  502    0  0.00000000000E+00  0.00000000000E+00  0.22285911214E+04  0.22285911214E+04  0.00000000000E+00 0. -1.
          1   -1    0    0  501    0 -0.00000000000E+00 -0.00000000000E+00 -0.41312397969E+03  0.41312397969E+03  0.00000000000E+00 0. -1.
         25    2    1    2    0    0  0.11502091865E+03 -0.44043014500E+03  0.21234706314E+03  0.51761418734E+03  0.12499858943E+03 0.  0.
          2    1    1    2  501    0 -0.11909031660E+03  0.41341873262E+03 -0.82660936081E+02  0.43809859888E+03  0.00000000000E+00 0. -1.
          1    1    1    2  502    0  0.40693979480E+01  0.27011412385E+02  0.16857810147E+04  0.16860023149E+04  0.00000000000E+00 0. -1.
         22    1    3    3    0    0  0.63885863769E+02 -0.84646876362E+02  0.13687353314E+02  0.10692913966E+03  0.00000000000E+00 0. -1.
         22    1    3    3    0    0  0.51135054881E+02 -0.35578326864E+03  0.19865970982E+03  0.41068504768E+03  0.00000000000E+00 0. -1.
</event>
<event>
 7    1  0.6597701E-006  0.8287572E+02  0.7818608E-02  0.1328676E+00
          2   -1    0    0  502    0  0.00000000000E+00  0.00000000000E+00  0.12026682963E+04  0.12026682963E+04  0.00000000000E+00 0. -1.
          1   -1    0    0  501    0 -0.00000000000E+00 -0.00000000000E+00 -0.32852956281E+03  0.32852956281E+03  0.00000000000E+00 0. -1.
         25    2    1    2    0    0 -0.40455322844E+02  0.11420928496E+03 -0.89476820212E+01  0.17432233741E+03  0.12501128905E+03 0.  0.
          2    1    1    2  501    0  0.69768196892E+02 -0.42488589541E+02 -0.22846367019E+03  0.24262837867E+03  0.00000000000E+00 0. -1.
          1    1    1    2  502    0 -0.29312874048E+02 -0.71720695415E+02  0.11115500857E+04  0.11142471431E+04  0.00000000000E+00 0. -1.
         22    1    3    3    0    0 -0.83142862445E+02  0.78443541173E+02  0.11751490731E+02  0.11490962650E+03  0.00000000000E+00 0. -1.
         22    1    3    3    0    0  0.42687539600E+02  0.35765743783E+02 -0.20699172752E+02  0.59412710914E+02  0.00000000000E+00 0. -1.
</event>
<event>
 7    1  0.6597701E-006  0.8524962E+02  0.7818608E-02  0.1362359E+00
          2   -1    0    0  502    0  0.00000000000E+00  0.00000000000E+00  0.57155969295E+03  0.57155969295E+03  0.00000000000E+00 0. -1.
          1   -1    0    0  501    0 -0.00000000000E+00 -0.00000000000E+00 -0.12854310813E+04  0.12854310813E+04  0.00000000000E+00 0. -1.
         25    2    1    2    0    0 -0.48921166247E+02  0.49351537716E+02 -0.36898640965E+03  0.39573736951E+03  0.12501296069E+03 0.  0.
          2    1    1    2  501    0  0.95256591529E+01 -0.89706553012E+02 -0.89938246239E+03  0.90389535760E+03  0.00000000000E+00 0. -1.
          1    1    1    2  502    0  0.39395507094E+02  0.40355015296E+02  0.55449748372E+03  0.55735804712E+03  0.00000000000E+00 0. -1.
         22    1    3    3    0    0 -0.47948296400E+02  0.52485200429E+02 -0.37878797309E+03  0.38540117274E+03  0.00000000000E+00 0.  1.
         22    1    3    3    0    0 -0.97286984710E+00 -0.31336627130E+01  0.98015634424E+01  0.10336196769E+02  0.00000000000E+00 0.  1.
</event>
<event>
 7    1  0.6597701E-006  0.8258398E+02  0.7818608E-02  0.1354105E+00
          2   -1    0    0  502    0  0.00000000000E+00  0.00000000000E+00  0.47422620556E+02  0.47422620556E+02  0.00000000000E+00 0. -1.
          1   -1    0    0  501    0 -0.00000000000E+00 -0.00000000000E+00 -0.93687773449E+03  0.93687773449E+03  0.00000000000E+00 0. -1.
         25    2    1    2    0    0  0.26935658139E+02 -0.41683576028E+02 -0.10052382976E+03  0.16790507243E+03  0.12499609117E+03 0.  0.
          2    1    1    2  501    0 -0.56238884388E+02 -0.60475630770E+02 -0.53166934336E+03  0.53804498390E+03  0.00000000000E+00 0. -1.
          1    1    1    2  502    0  0.29303226250E+02  0.10215920680E+03 -0.25726194081E+03  0.27835029871E+03  0.00000000000E+00 0. -1.
         22    1    3    3    0    0 -0.27277680792E+02 -0.62369105805E+02 -0.82888004096E+02  0.10725855887E+03  0.00000000000E+00 0. -1.
         22    1    3    3    0    0  0.54213338930E+02  0.20685529777E+02 -0.17635825666E+02  0.60646513561E+02  0.00000000000E+00 0. -1.
</event>
<event>
 7    1  0.6597701E-006  0.4847136E+02  0.7818608E-02  0.1469818E+00
          2   -1    0    0  502    0  0.00000000000E+00  0.00000000000E+00  0.18046021762E+04  0.18046021762E+04  0.00000000000E+00 0. -1.
          1   -1    0    0  501    0 -0.00000000000E+00 -0.00000000000E+00 -0.64301228754E+02  0.64301228754E+02  0.00000000000E+00 0. -1.
         25    2    1    2    0    0  0.90830158131E+01 -0.51157512904E+02  0.12463076419E+04  0.12536368555E+04  0.12499213995E+03 0.  0.
          2    1    1    2  501    0 -0.42400260184E+02  0.23738525217E+02 -0.49907587430E+02  0.69656779471E+02  0.00000000000E+00 0. -1.
          1    1    1    2  502    0  0.33317244371E+02  0.27418987686E+02  0.54390089299E+03  0.54560976994E+03  0.00000000000E+00 0. -1.
         22    1    3    3    0    0 -0.44527535415E+02 -0.37350002729E+02  0.97543869242E+03  0.97716854574E+03  0.00000000000E+00 0.  1.
         22    1    3    3    0    0  0.53610551228E+02 -0.13807510175E+02  0.27086894944E+03  0.27646830978E+03  0.00000000000E+00 0.  1.
</event>
<event>
 7    1  0.6597701E-006  0.4110526E+02  0.7818608E-02  0.1509762E+00
          2   -1    0    0  502    0  0.00000000000E+00  0.00000000000E+00  0.89397241432E+03  0.89397241432E+03  0.00000000000E+00 0. -1.
          1   -1    0    0  501    0 -0.00000000000E+00 -0.00000000000E+00 -0.73931213001E+02  0.73931213001E+02  0.00000000000E+00 0. -1.
         25    2    1    2    0    0  0.42554136311E+01 -0.19524817707E+02  0.12158695249E+03  0.17552381393E+03  0.12500358071E+03 0.  0.
          2    1    1    2  501    0  0.36784696814E+02  0.11421065283E+02 -0.38370963237E+02  0.54368055618E+02  0.00000000000E+00 0. -1.
          1    1    1    2  502    0 -0.41040110446E+02  0.81037524244E+01  0.73682521207E+03  0.73801175777E+03  0.00000000000E+00 0. -1.
         22    1    3    3    0    0 -0.40671103835E+01  0.49938047592E+02  0.79223316640E+02  0.93737313188E+02  0.00000000000E+00 0.  1.
         22    1    3    3    0    0  0.83225240146E+01 -0.69462865300E+02  0.42363635848E+02  0.81786500744E+02  0.00000000000E+00 0.  1.
</event>
<event>
 7    1  0.6597701E-006  0.8428265E+02  0.7818608E-02  0.1462587E+00
          2   -1    0    0  502    0  0.00000000000E+00  0.00000000000E+00  0.48395857465E+03  0.48395857465E+03  0.00000000000E+00 0. -1.
          1   -1    0    0  501    0 -0.00000000000E+00 -0.00000000000E+00 -0.15717985812E+04  0.15717985812E+04  0.00000000000E+00 0. -1.
         25    2    1    2    0    0 -0.54625947316E+02  0.41963446465E+02  0.41432384559E+02  0.14861891214E+03  0.12500405432E+03 0.  0.
          2    1    1    2  501    0  0.22566086838E+01  0.26043873235E+02 -0.15133553187E+04  0.15135810835E+04  0.00000000000E+00 0. -1.
          1    1    1    2  502    0  0.52369338633E+02 -0.68007319700E+02  0.38408292756E+03  0.39355716027E+03  0.00000000000E+00 0. -1.
         22    1    3    3    0    0 -0.51472328982E+02  0.17550191578E+02  0.83635596221E+02  0.99761329334E+02  0.00000000000E+00 0. -1.
         22    1    3    3    0    0 -0.31536183341E+01  0.24413254887E+02 -0.42203211662E+02  0.48857582803E+02  0.00000000000E+00 0. -1.
</event>
<event>
 7    1  0.6597701E-006  0.1465279E+03  0.7818608E-02  0.1231452E+00
          2   -1    0    0  502    0  0.00000000000E+00  0.00000000000E+00  0.61047487336E+03  0.61047487336E+03  0.00000000000E+00 0. -1.
          1   -1    0    0  501    0 -0.00000000000E+00 -0.00000000000E+00 -0.12226071192E+04  0.12226071192E+04  0.00000000000E+00 0. -1.
         25    2    1    2    0    0 -0.16775260933E+03  0.12637317677E+03 -0.72146498486E+02  0.25483669339E+03  0.12500202122E+03 0.  0.
          2    1    1    2  501    0  0.11050994244E+03  0.59522970164E+01 -0.10461297313E+04  0.10519673436E+04  0.00000000000E+00 0. -1.
          1    1    1    2  502    0  0.57242666885E+02 -0.13232547379E+03  0.50614398402E+03  0.52627795554E+03  0.00000000000E+00 0. -1.
         22    1    3    3    0    0  0.10135664325E+02  0.17491355573E+02 -0.38623865145E+02  0.43594519952E+02  0.00000000000E+00 0. -1.
         22    1    3    3    0    0 -0.17788827365E+03  0.10888182120E+03 -0.33522633341E+02  0.21124217343E+03  0.00000000000E+00 0. -1.
</event>
<event>
 7    1  0.6597701E-006  0.2879933E+02  0.7818608E-02  0.1664630E+00
          2   -1    0    0  502    0  0.00000000000E+00  0.00000000000E+00  0.11347281712E+04  0.11347281712E+04  0.00000000000E+00 0. -1.
          1   -1    0    0  501    0 -0.00000000000E+00 -0.00000000000E+00 -0.91137042488E+02  0.91137042488E+02  0.00000000000E+00 0. -1.
         25    2    1    2    0    0  0.14990549987E+02 -0.47366775620E+02  0.14146475036E+03  0.19520628838E+03  0.12499956562E+03 0.  0.
          2    1    1    2  501    0 -0.41630652033E+01  0.20857252141E+02 -0.62288225998E+02  0.65819291827E+02  0.00000000000E+00 0. -1.
          1    1    1    2  502    0 -0.10827484784E+02  0.26509523480E+02  0.96441460439E+03  0.96483963353E+03  0.00000000000E+00 0. -1.
         22    1    3    3    0    0 -0.50065237255E+02  0.58274531408E+01  0.56165336778E+02  0.75465437432E+02  0.00000000000E+00 0. -1.
         22    1    3    3    0    0  0.65055787241E+02 -0.53194228761E+02  0.85299413585E+02  0.11974085095E+03  0.00000000000E+00 0. -1.
</event>
<event>
 7    1  0.6597701E-006  0.6306494E+02  0.7818608E-02  0.1417618E+00
          2   -1    0    0  502    0  0.00000000000E+00  0.00000000000E+00  0.32518111087E+03  0.32518111087E+03  0.00000000000E+00 0. -1.
          1   -1    0    0  501    0 -0.00000000000E+00 -0.00000000000E+00 -0.29842516486E+04  0.29842516486E+04  0.00000000000E+00 0. -1.
         25    2    1    2    0    0 -0.96163641278E+01  0.96253515395E+02 -0.13474432587E+04  0.13566817126E+04  0.12499888090E+03 0.  0.
          2    1    1    2  501    0 -0.23693334475E+02 -0.42767219034E+02 -0.16287224080E+04  0.16294560722E+04  0.00000000000E+00 0. -1.
          1    1    1    2  502    0  0.33309698602E+02 -0.53486296361E+02  0.31709512886E+03  0.32329497470E+03  0.00000000000E+00 0. -1.
         22    1    3    3    0    0 -0.12255061562E+02  0.59220110659E+02 -0.20747353553E+03  0.21610755652E+03  0.00000000000E+00 0.  1.
         22    1    3    3    0    0  0.26386974343E+01  0.37033404736E+02 -0.11399697231E+04  0.11405741561E+04  0.00000000000E+00 0.  1.
</event>
<event>
 7    1  0.6597701E-006  0.2859798E+03  0.7818608E-02  0.1250130E+00
          2   -1    0    0  502    0  0.00000000000E+00  0.00000000000E+00  0.22653790261E+03  0.22653790261E+03  0.00000000000E+00 0. -1.
          1   -1    0    0  501    0 -0.00000000000E+00 -0.00000000000E+00 -0.14098456056E+04  0.14098456056E+04  0.00000000000E+00 0. -1.
         25    2    1    2    0    0 -0.15733277951E+02 -0.25326501617E+03 -0.32314806869E+03  0.42946490291E+03  0.12499889634E+03 0.  0.
          2    1    1    2  501    0  0.16840262058E+02 -0.43792275361E+02 -0.90524265068E+03  0.90645772897E+03  0.00000000000E+00 0. -1.
          1    1    1    2  502    0 -0.11069841067E+01  0.29705729153E+03  0.45083016333E+02  0.30046087637E+03  0.00000000000E+00 0. -1.
         22    1    3    3    0    0 -0.20793346132E+02 -0.24727946796E+03 -0.23760376890E+03  0.34356229350E+03  0.00000000000E+00 0. -1.
         22    1    3    3    0    0  0.50600681802E+01 -0.59855482046E+01 -0.85544299786E+02  0.85902609408E+02  0.00000000000E+00 0. -1.
</event>
<event>
 7    1  0.6597701E-006  0.8839289E+02  0.7818608E-02  0.1320348E+00
          2   -1    0    0  502    0  0.00000000000E+00  0.00000000000E+00  0.21003564162E+04  0.21003564162E+04  0.00000000000E+00 0. -1.
          1   -1    0    0  501    0 -0.00000000000E+00 -0.00000000000E+00 -0.10229856510E+03  0.10229856510E+03  0.00000000000E+00 0. -1.
         25    2    1    2    0    0 -0.67605725510E+02 -0.77061239219E+02  0.11849130588E+04  0.11958908790E+04  0.12500827522E+03 0.  0.
          2    1    1    2  501    0 -0.24517908650E+02  0.74272485361E+02 -0.78238259889E+02  0.11062890778E+03  0.00000000000E+00 0. -1.
          1    1    1    2  502    0  0.92123634160E+02  0.27887538587E+01  0.89138305219E+03  0.89613519452E+03  0.00000000000E+00 0. -1.
         22    1    3    3    0    0 -0.63514156651E+02  0.14200770311E+02  0.64815662498E+03  0.65141593508E+03  0.00000000000E+00 0. -1.
         22    1    3    3    0    0 -0.40915688594E+01 -0.91262009531E+02  0.53675643384E+03  0.54447494395E+03  0.00000000000E+00 0. -1.
</event>
<event>
 7    1  0.6597701E-006  0.7824487E+02  0.7818608E-02  0.1405545E+00
          2   -1    0    0  502    0  0.00000000000E+00  0.00000000000E+00  0.38414527463E+03  0.38414527463E+03  0.00000000000E+00 0. -1.
          1   -1    0    0  501    0 -0.00000000000E+00 -0.00000000000E+00 -0.12775045684E+04  0.12775045684E+04  0.00000000000E+00 0. -1.
         25    2    1    2    0    0  0.44010204571E+02  0.40801754153E+02 -0.12983054422E+03  0.18994926210E+03  0.12499228261E+03 0.  0.
          2    1    1    2  501    0 -0.78236930616E+02 -0.14295929362E+02 -0.11148695908E+04  0.11177028207E+04  0.00000000000E+00 0. -1.
          1    1    1    2  502    0  0.34226726044E+02 -0.26505824790E+02  0.35134084125E+03  0.35399776023E+03  0.00000000000E+00 0. -1.
         22    1    3    3    0    0  0.75739283755E+02  0.53968435443E+02 -0.56104654177E+02  0.10861290599E+03  0.00000000000E+00 0. -1.
         22    1    3    3    0    0 -0.31729079184E+02 -0.13166681290E+02 -0.73725890039E+02  0.81336356103E+02  0.00000000000E+00 0. -1.
</event>
<event>
 7    1  0.6597701E-006  0.1078811E+03  0.7818608E-02  0.1348802E+00
          2   -1    0    0  502    0  0.00000000000E+00  0.00000000000E+00  0.15332526933E+04  0.15332526933E+04  0.00000000000E+00 0. -1.
          1   -1    0    0  501    0 -0.00000000000E+00 -0.00000000000E+00 -0.19459453784E+04  0.19459453784E+04  0.00000000000E+00 0. -1.
         25    2    1    2    0    0 -0.12580235844E+03  0.70108104919E+02  0.10890291687E+04  0.11056000237E+04  0.12500200968E+03 0.  0.
          2    1    1    2  501    0  0.76206513455E+02 -0.76301031910E+02 -0.19347208567E+04  0.19377239415E+04  0.00000000000E+00 0. -1.
          1    1    1    2  502    0  0.49595844982E+02  0.61929269909E+01  0.43299900295E+03  0.43587410652E+03  0.00000000000E+00 0. -1.
         22    1    3    3    0    0 -0.13993036967E+03  0.32837148933E+02  0.70463291854E+03  0.71914277900E+03  0.00000000000E+00 0. -1.
         22    1    3    3    0    0  0.14128011230E+02  0.37270955986E+02  0.38439625012E+03  0.38645724469E+03  0.00000000000E+00 0. -1.
</event>
<event>
 7    1  0.6597701E-006  0.2062212E+03  0.7818608E-02  0.1255105E+00
          2   -1    0    0  502    0  0.00000000000E+00  0.00000000000E+00  0.27279233931E+04  0.27279233931E+04  0.00000000000E+00 0. -1.
          1   -1    0    0  501    0 -0.00000000000E+00 -0.00000000000E+00 -0.34848241921E+03  0.34848241921E+03  0.00000000000E+00 0. -1.
         25    2    1    2    0    0 -0.23524170526E+03 -0.10083743758E+03  0.26357644837E+03  0.38807916493E+03  0.12500418156E+03 0.  0.
          2    1    1    2  501    0  0.19326076881E+03  0.55316703680E+02 -0.25048138612E+03  0.32117065130E+03  0.00000000000E+00 0. -1.
          1    1    1    2  502    0  0.41980936447E+02  0.45520733896E+02  0.23663459116E+04  0.23671559960E+04  0.00000000000E+00 0. -1.
         22    1    3    3    0    0 -0.22945217356E+03 -0.12164031353E+03  0.22383840291E+03  0.34285317039E+03  0.00000000000E+00 0. -1.
         22    1    3    3    0    0 -0.57895316945E+01  0.20802875954E+02  0.39738045457E+02  0.45225994538E+02  0.00000000000E+00 0. -1.
</event>
<event>
 7    1  0.6597701E-006  0.8906261E+02  0.7818608E-02  0.1466923E+00
          2   -1    0    0  502    0  0.00000000000E+00  0.00000000000E+00  0.10697129434E+04  0.10697129434E+04  0.00000000000E+00 0. -1.
          1   -1    0    0  501    0 -0.00000000000E+00 -0.00000000000E+00 -0.13929118208E+04  0.13929118208E+04  0.00000000000E+00 0. -1.
         25    2    1    2    0    0 -0.42731825674E+02 -0.49763000021E+02  0.41998307642E+03  0.44307155068E+03  0.12499699776E+03 0.  0.
          2    1    1    2  501    0  0.61958421941E+02  0.64088310323E+02 -0.13797035443E+04  0.13825802066E+04  0.00000000000E+00 0. -1.
          1    1    1    2  502    0 -0.19226596267E+02 -0.14325310302E+02  0.63652159044E+03  0.63697300698E+03  0.00000000000E+00 0. -1.
         22    1    3    3    0    0 -0.47032857459E+02 -0.80094896700E+02  0.19476294686E+03  0.21577740296E+03  0.00000000000E+00 0.  1.
         22    1    3    3    0    0  0.43010317845E+01  0.30331896678E+02  0.22522012956E+03  0.22729414772E+03  0.00000000000E+00 0.  1.
</event>
<event>
 7    1  0.6597701E-006  0.6026888E+02  0.7818608E-02  0.1456669E+00
          2   -1    0    0  502    0  0.00000000000E+00  0.00000000000E+00  0.57815085658E+02  0.57815085658E+02  0.00000000000E+00 0. -1.
          1   -1    0    0  501    0 -0.00000000000E+00 -0.00000000000E+00 -0.17081698171E+04  0.17081698171E+04  0.00000000000E+00 0. -1.
         25    2    1    2    0    0 -0.36616409311E+02  0.35798854414E+02 -0.79653414607E+02  0.15682712647E+03  0.12501104644E+03 0.  0.
          2    1    1    2  501    0  0.22384974666E+02  0.30909677596E+02 -0.15284413059E+04  0.15289176959E+04  0.00000000000E+00 0. -1.
          1    1    1    2  502    0  0.14231434645E+02 -0.66708532011E+02 -0.42260010929E+02  0.80240080376E+02  0.00000000000E+00 0. -1.
         22    1    3    3    0    0  0.32151981790E+02  0.30082155638E+02  0.85344693481E+01  0.44850007669E+02  0.00000000000E+00 0. -1.
         22    1    3    3    0    0 -0.68768391101E+02  0.57166987764E+01 -0.88187883955E+02  0.11197711881E+03  0.00000000000E+00 0. -1.
</event>
<event>
 7    1  0.6597701E-006  0.9712172E+02  0.7818608E-02  0.1395483E+00
          2   -1    0    0  502    0  0.00000000000E+00  0.00000000000E+00  0.87996983610E+02  0.87996983610E+02  0.00000000000E+00 0. -1.
          1   -1    0    0  501    0 -0.00000000000E+00 -0.00000000000E+00 -0.13702195395E+04  0.13702195395E+04  0.00000000000E+00 0. -1.
         25    2    1    2    0    0 -0.42704330565E+02  0.42673658643E+02  0.40937949769E+01  0.13888032485E+03  0.12500513782E+03 0.  0.
          2    1    1    2  501    0  0.67646852378E+02 -0.71031264838E+02 -0.12765696156E+04  0.12803325821E+04  0.00000000000E+00 0. -1.
          1    1    1    2  502    0 -0.24942521813E+02  0.28357606195E+02 -0.97467351848E+01  0.39003616118E+02  0.00000000000E+00 0. -1.
         22    1    3    3    0    0 -0.71955111002E+02  0.16165548366E+02 -0.36474770778E+02  0.82275584815E+02  0.00000000000E+00 0. -1.
         22    1    3    3    0    0  0.29250780437E+02  0.26508110276E+02  0.40568565755E+02  0.56604740031E+02  0.00000000000E+00 0. -1.
</event>
<event>
 7    1  0.6597701E-006  0.4096931E+02  0.7818608E-02  0.1547780E+00
          2   -1    0    0  502    0  0.00000000000E+00  0.00000000000E+00  0.21643577906E+04  0.21643577906E+04  0.00000000000E+00 0. -1.
          1   -1    0    0  501    0 -0.00000000000E+00 -0.00000000000E+00 -0.46838299135E+03  0.46838299135E+03  0.00000000000E+00 0. -1.
         25    2    1    2    0    0 -0.66383060337E+02  0.10770387150E+02  0.26264064647E+03  0.29854398697E+03  0.12500276412E+03 0.  0.
          2    1    1    2  501    0  0.37044853387E+02 -0.17312790577E+02 -0.44938307488E+03  0.45123962799E+03  0.00000000000E+00 0. -1.
          1    1    1    2  502    0  0.29338206950E+02  0.65424034277E+01  0.18827172277E+04  0.18829571670E+04  0.00000000000E+00 0. -1.
         22    1    3    3    0    0 -0.95891302374E+02 -0.68475669450E+00  0.12631070536E+03  0.15858753119E+03  0.00000000000E+00 0.  1.
         22    1    3    3    0    0  0.29508242037E+02  0.11455143844E+02  0.13632994111E+03  0.13995645577E+03  0.00000000000E+00 0.  1.
</event>
<event>
 7    1  0.6597701E-006  0.9521368E+02  0.7818608E-02  0.1349398E+00
          2   -1    0    0  502    0  0.00000000000E+00  0.00000000000E+00  0.33211915476E+03  0.33211915476E+03  0.00000000000E+00 0. -1.
          1   -1    0    0  501    0 -0.00000000000E+00 -0.00000000000E+00 -0.10407613526E+04  0.10407613526E+04  0.00000000000E+00 0. -1.
         25    2    1    2    0    0  0.53475610063E+02  0.10846693651E+03 -0.57763492769E+03  0.60325111341E+03  0.12500031579E+03 0.  0.
          2    1    1    2  501    0 -0.53256043800E+00 -0.89191109937E+02 -0.44335645907E+03  0.45223919281E+03  0.00000000000E+00 0. -1.
          1    1    1    2  502    0 -0.52943049625E+02 -0.19275826577E+02  0.31234918890E+03  0.31739020117E+03  0.00000000000E+00 0. -1.
         22    1    3    3    0    0  0.63169398151E+02  0.78295396385E+02 -0.19606954330E+03  0.22037197591E+03  0.00000000000E+00 0. -1.
         22    1    3    3    0    0 -0.96937880878E+01  0.30171540129E+02 -0.38156538439E+03  0.38287913749E+03  0.00000000000E+00 0. -1.
</event>
<event>
 7    1  0.6597701E-006  0.4795112E+02  0.7818608E-02  0.1511192E+00
          2   -1    0    0  502    0  0.00000000000E+00  0.00000000000E+00  0.23274081497E+04  0.23274081497E+04  0.00000000000E+00 0. -1.
          1   -1    0    0  501    0 -0.00000000000E+00 -0.00000000000E+00 -0.68118759524E+03  0.68118759524E+03  0.00000000000E+00 0. -1.
         25    2    1    2    0    0 -0.77344459731E+02  0.17769312272E+02 -0.28555746901E+01  0.14809010389E+03  0.12499844260E+03 0.  0.
          2    1    1    2  501    0  0.44678150570E+02 -0.16289207207E+02 -0.60466257651E+03  0.60652972462E+03  0.00000000000E+00 0. -1.
          1    1    1    2  502    0  0.32666309161E+02 -0.14801050649E+01  0.22537387057E+04  0.22539759164E+04  0.00000000000E+00 0. -1.
         22    1    3    3    0    0 -0.59783217248E+02  0.70849428753E+01 -0.61431514181E+02  0.86011978320E+02  0.00000000000E+00 0. -1.
         22    1    3    3    0    0 -0.17561242483E+02  0.10684369396E+02  0.58575939491E+02  0.62078125569E+02  0.00000000000E+00 0. -1.
</event>
<event>
 7    1  0.6597701E-006  0.4623126E+02  0.7818608E-02  0.1506093E+00
          2   -1    0    0  502    0  0.00000000000E+00  0.00000000000E+00  0.11197611166E+04  0.11197611166E+04  0.00000000000E+00 0. -1.
          1   -1    0    0  501    0 -0.00000000000E+00 -0.00000000000E+00 -0.63464894353E+03  0.63464894353E+03  0.00000000000E+00 0. -1.
         25    2    1    2    0    0  0.56780052021E+02  0.50781514858E+01  0.78125289198E+02  0.15802100650E+03  0.12496925923E+03 0.  0.
          2    1    1    2  501    0 -0.17940299326E+02 -0.30181830610E+02 -0.59364832086E+03  0.59468573725E+03  0.00000000000E+00 0. -1.
          1    1    1    2  502    0 -0.38839752695E+02  0.25103679124E+02  0.10006352047E+04  0.10017033164E+04  0.00000000000E+00 0. -1.
         22    1    3    3    0    0 -0.84466632303E+01 -0.33035403026E+02  0.75026679311E+02  0.82411689591E+02  0.00000000000E+00 0.  1.
         22    1    3    3    0    0  0.65226715252E+02  0.38113554512E+02  0.30986098870E+01  0.75609316908E+02  0.00000000000E+00 0.  1.
</event>
<event>
 7    1  0.6597701E-006  0.6008852E+02  0.7818608E-02  0.1429194E+00
          2   -1    0    0  502    0  0.00000000000E+00  0.00000000000E+00  0.42862254765E+03  0.42862254765E+03  0.00000000000E+00 0. -1.
          1   -1    0    0  501    0 -0.00000000000E+00 -0.00000000000E+00 -0.33664446040E+04  0.33664446040E+04  0.00000000000E+00 0. -1.
         25    2    1    2    0    0  0.10991874664E+02  0.14799060506E+02  0.69633252646E+02  0.14426784402E+03  0.12499834976E+03 0.  0.
          2    1    1    2  501    0  0.61858339303E+01  0.46554194446E+02 -0.33258050580E+04  0.33261366239E+04  0.00000000000E+00 0. -1.
          1    1    1    2  502    0 -0.17177708594E+02 -0.61353254952E+02  0.31834974893E+03  0.32466268373E+03  0.00000000000E+00 0. -1.
         22    1    3    3    0    0 -0.50988156813E+01  0.69313596694E+02  0.37408401288E+02  0.78928835636E+02  0.00000000000E+00 0. -1.
         22    1    3    3    0    0  0.16090690345E+02 -0.54514536187E+02  0.32224851358E+02  0.65339008384E+02  0.00000000000E+00 0. -1.
</event>
<event>
 7    1  0.6597701E-006  0.4521951E+02  0.7818608E-02  0.1503462E+00
          2   -1    0    0  502    0  0.00000000000E+00  0.00000000000E+00  0.57341711713E+03  0.57341711713E+03  0.00000000000E+00 0. -1.
          1   -1    0    0  501    0 -0.00000000000E+00 -0.00000000000E+00 -0.13824675903E+03  0.13824675903E+03  0.00000000000E+00 0. -1.
         25    2    1    2    0    0 -0.23930488983E+02 -0.77228530173E+02  0.37960883567E+02  0.15363213573E+03  0.12499956108E+03 0.  0.
          2    1    1    2  501    0  0.76125361525E+01  0.35745668556E+02 -0.75154142185E+02  0.83569423923E+02  0.00000000000E+00 0. -1.
          1    1    1    2  502    0  0.16317952831E+02  0.41482861617E+02  0.47236361671E+03  0.47446231651E+03  0.00000000000E+00 0. -1.
         22    1    3    3    0    0 -0.59765108578E+02 -0.17184424306E+02 -0.17254341530E+02  0.64535919795E+02  0.00000000000E+00 0. -1.
         22    1    3    3    0    0  0.35834619595E+02 -0.60044105867E+02  0.55215225098E+02  0.89096215932E+02  0.00000000000E+00 0. -1.
</event>
<event>
 7    1  0.6597701E-006  0.1526460E+03  0.7818608E-02  0.1208530E+00
          2   -1    0    0  502    0  0.00000000000E+00  0.00000000000E+00  0.15328371587E+04  0.15328371587E+04  0.00000000000E+00 0. -1.
          1   -1    0    0  501    0 -0.00000000000E+00 -0.00000000000E+00 -0.12468870236E+03  0.12468870236E+03  0.00000000000E+00 0. -1.
         25    2    1    2    0    0  0.66526011258E+02 -0.59455112151E+02  0.60210860703E+03  0.62138598585E+03  0.12500059288E+03 0.  0.
          2    1    1    2  501    0 -0.23867372889E+02 -0.15076851394E+03 -0.44473692996E+02  0.15899278491E+03  0.00000000000E+00 0. -1.
          1    1    1    2  502    0 -0.42658638370E+02  0.21022362609E+03  0.85051354229E+03  0.87714709029E+03  0.00000000000E+00 0. -1.
         22    1    3    3    0    0 -0.37024823719E+02 -0.16148062149E+02  0.13071381750E+03  0.13681264404E+03  0.00000000000E+00 0. -1.
         22    1    3    3    0    0  0.10355083498E+03 -0.43307050002E+02  0.47139478952E+03  0.48457334181E+03  0.00000000000E+00 0. -1.
</event>
<event>
 7    1  0.6597701E-006  0.1163807E+03  0.7818608E-02  0.1328866E+00
          2   -1    0    0  502    0  0.00000000000E+00  0.00000000000E+00  0.15324586040E+04  0.15324586040E+04  0.00000000000E+00 0. -1.
          1   -1    0    0  501    0 -0.00000000000E+00 -0.00000000000E+00 -0.13159784339E+04  0.13159784339E+04  0.00000000000E+00 0. -1.
         25    2    1    2    0    0  0.10102308310E+03  0.13088318612E+03  0.13898228679E+04  0.14051936317E+04  0.12500186689E+03 0.  0.
          2    1    1    2  501    0 -0.53313525583E+02 -0.10335447241E+03 -0.12999664296E+04  0.13051579204E+04  0.00000000000E+00 0. -1.
          1    1    1    2  502    0 -0.47709557519E+02 -0.27528713704E+02  0.12662373179E+03  0.13808548587E+03  0.00000000000E+00 0. -1.
         22    1    3    3    0    0  0.12418089238E+03  0.93815416888E+02  0.12178143800E+04  0.12277190601E+04  0.00000000000E+00 0. -1.
         22    1    3    3    0    0 -0.23157809282E+02  0.37067769229E+02  0.17200848795E+03  0.17747457163E+03  0.00000000000E+00 0. -1.
</event>
<event>
 7    1  0.6597701E-006  0.5942827E+02  0.7818608E-02  0.1439016E+00
          2   -1    0    0  502    0  0.00000000000E+00  0.00000000000E+00  0.36516921927E+03  0.36516921927E+03  0.00000000000E+00 0. -1.
          1   -1    0    0  501    0 -0.00000000000E+00 -0.00000000000E+00 -0.31321620143E+03  0.31321620143E+03  0.00000000000E+00 0. -1.
         25    2    1    2    0    0 -0.54842975206E+02  0.75357069757E+02 -0.37042639546E+02  0.16026156693E+03  0.12500069119E+03 0.  0.
          2    1    1    2  501    0  0.39959983130E+02 -0.18648887271E+02 -0.20941541587E+03  0.21400793829E+03  0.00000000000E+00 0. -1.
          1    1    1    2  502    0  0.14882992076E+02 -0.56708182486E+02  0.29841107325E+03  0.30411591549E+03  0.00000000000E+00 0. -1.
         22    1    3    3    0    0  0.44186613908E+01  0.92872553220E+02 -0.12687007806E+02  0.93839202240E+02  0.00000000000E+00 0.  1.
         22    1    3    3    0    0 -0.59261636597E+02 -0.17515483463E+02 -0.24355631740E+02  0.66422364686E+02  0.00000000000E+00 0.  1.
</event>
<event>
 7    1  0.6597701E-006  0.3034250E+03  0.7818608E-02  0.1274679E+00
          2   -1    0    0  502    0  0.00000000000E+00  0.00000000000E+00  0.24012836584E+04  0.24012836584E+04  0.00000000000E+00 0. -1.
          1   -1    0    0  501    0 -0.00000000000E+00 -0.00000000000E+00 -0.74158666052E+03  0.74158666052E+03  0.00000000000E+00 0. -1.
         25    2    1    2    0    0  0.18893589186E+03 -0.25697299401E+03 -0.14788384822E+02  0.34289290667E+03  0.12499983295E+03 0.  0.
          2    1    1    2  501    0  0.13511398515E+02  0.32041657937E+02 -0.55196284006E+03  0.55305714220E+03  0.00000000000E+00 0. -1.
          1    1    1    2  502    0 -0.20244729037E+03  0.22493133607E+03  0.22264482228E+04  0.22469202701E+04  0.00000000000E+00 0. -1.
         22    1    3    3    0    0  0.11892944119E+03 -0.21942690871E+03  0.30515802031E+02  0.25144302420E+03  0.00000000000E+00 0. -1.
         22    1    3    3    0    0  0.70006450670E+02 -0.37546085294E+02 -0.45304186853E+02  0.91449882465E+02  0.00000000000E+00 0. -1.
</event>
<event>
 7    1  0.6597701E-006  0.9578997E+02  0.7818608E-02  0.1454076E+00
          2   -1    0    0  502    0  0.00000000000E+00  0.00000000000E+00  0.10500704427E+03  0.10500704427E+03  0.00000000000E+00 0. -1.
          1   -1    0    0  501    0 -0.00000000000E+00 -0.00000000000E+00 -0.11049152236E+04  0.11049152236E+04  0.00000000000E+00 0. -1.
         25    2    1    2    0    0 -0.10558107355E+03  0.47834103577E+01 -0.60894624557E+02  0.17465178102E+03  0.12499938082E+03 0.  0.
          2    1    1    2  501    0  0.94002613712E+02  0.16775673968E+02 -0.98155715203E+03  0.98619083210E+03  0.00000000000E+00 0. -1.
          1    1    1    2  502    0  0.11578459843E+02 -0.21559084326E+02  0.42543597217E+02  0.49079654782E+02  0.00000000000E+00 0. -1.
         22    1    3    3    0    0 -0.10303566965E+03  0.52588669030E+02 -0.39776084806E+02  0.12232765122E+03  0.00000000000E+00 0. -1.
         22    1    3    3    0    0 -0.25454039017E+01 -0.47805258673E+02 -0.21118539751E+02  0.52324129797E+02  0.00000000000E+00 0. -1.
</event>
<event>
 7    1  0.6597701E-006  0.6511440E+02  0.7818608E-02  0.1441408E+00
          2   -1    0    0  502    0  0.00000000000E+00  0.00000000000E+00  0.58141161917E+03  0.58141161917E+03  0.00000000000E+00 0. -1.
          1   -1    0    0  501    0 -0.00000000000E+00 -0.00000000000E+00 -0.10854158381E+04  0.10854158381E+04  0.00000000000E+00 0. -1.
         25    2    1    2    0    0  0.99595641809E+02 -0.23659624200E+02 -0.37543247857E+03  0.40872199500E+03  0.12500021419E+03 0.  0.
          2    1    1    2  501    0 -0.39520701485E+02 -0.10094297880E+01 -0.69090471766E+03  0.69203485005E+03  0.00000000000E+00 0. -1.
          1    1    1    2  502    0 -0.60074940324E+02  0.24669053988E+02  0.56233297729E+03  0.56607061223E+03  0.00000000000E+00 0. -1.
         22    1    3    3    0    0  0.13138480063E+02 -0.62753782999E+02 -0.18816156429E+03  0.19878488679E+03  0.00000000000E+00 0. -1.
         22    1    3    3    0    0  0.86457161746E+02  0.39094158798E+02 -0.18727091428E+03  0.20993710821E+03  0.00000000000E+00 0. -1.
</event>
<event>
 7    1  0.6597701E-006  0.1050111E+03  0.7818608E-02  0.1278725E+00
          2   -1    0    0  502    0  0.00000000000E+00  0.00000000000E+00  0.59512436168E+03  0.59512436168E+03  0.00000000000E+00 0. -1.
          1   -1    0    0  501    0 -0.00000000000E+00 -0.00000000000E+00 -0.18009093626E+04  0.18009093626E+04  0.00000000000E+00 0. -1.
         25    2    1    2    0    0  0.11883760748E+02  0.95468635444E+02 -0.44887321049E+02  0.16399648268E+03  0.12499796245E+03 0.  0.
          2    1    1    2  501    0  0.81080236434E+02 -0.68983015854E+02 -0.16904178127E+04  0.16937665254E+04  0.00000000000E+00 0. -1.
          1    1    1    2  502    0 -0.92963997182E+02 -0.26485619590E+02  0.52952013282E+03  0.53827071616E+03  0.00000000000E+00 0. -1.
         22    1    3    3    0    0  0.65281354697E+02  0.44441888927E+02 -0.28746121411E+01  0.79025313397E+02  0.00000000000E+00 0.  1.
         22    1    3    3    0    0 -0.53397593949E+02  0.51026746516E+02 -0.42012708908E+02  0.84971169283E+02  0.00000000000E+00 0.  1.
</event>
<event>
 7    1  0.6597701E-006  0.2189041E+03  0.7818608E-02  0.1270042E+00
          2   -1    0    0  502    0  0.00000000000E+00  0.00000000000E+00  0.32978447347E+03  0.32978447347E+03  0.00000000000E+00 0. -1.
          1   -1    0    0  501    0 -0.00000000000E+00 -0.00000000000E+00 -0.12993509077E+04  0.12993509077E+04  0.00000000000E+00 0. -1.
         25    2    1    2    0    0  0.15564622025E+03 -0.18223356869E+03 -0.18399598348E+03  0.32697747578E+03  0.12499971318E+03 0.  0.
          2    1    1    2  501    0 -0.50034245792E+02 -0.60814227043E+01 -0.99799725179E+03  0.99926919498E+03  0.00000000000E+00 0. -1.
          1    1    1    2  502    0 -0.10561197445E+03  0.18831499139E+03  0.21242680101E+03  0.30288871045E+03  0.00000000000E+00 0. -1.
         22    1    3    3    0    0  0.11068923600E+03 -0.51996741944E+02 -0.13139360934E+03  0.17949943932E+03  0.00000000000E+00 0.  1.
         22    1    3    3    0    0  0.44956984241E+02 -0.13023682674E+03 -0.52602374141E+02  0.14747803646E+03  0.00000000000E+00 0.  1.
</event>
<event>
 7    1  0.6597701E-006  0.8945860E+02  0.7818608E-02  0.1424056E+00
          2   -1    0    0  502    0  0.00000000000E+00  0.00000000000E+00  0.20184540083E+04  0.20184540083E+04  0.00000000000E+00 0. -1.
          1   -1    0    0  501    0 -0.00000000000E+00 -0.00000000000E+00 -0.14025682821E+03  0.14025682821E+03  0.00000000000E+00 0. -1.
         25    2    1    2    0    0  0.33337272513E+02  0.75542906241E+02  0.93259059223E+03  0.94454666005E+03  0.12500030348E+03 0.  0.
          2    1    1    2  501    0 -0.63691432912E+02 -0.63103814009E+02 -0.11903153287E+03  0.14902078978E+03  0.00000000000E+00 0. -1.
          1    1    1    2  502    0  0.30354160399E+02 -0.12439092232E+02  0.10646381207E+04  0.10651433867E+04  0.00000000000E+00 0. -1.
         22    1    3    3    0    0  0.56536075974E+02 -0.67888111526E+01  0.23840388170E+03  0.24510982570E+03  0.00000000000E+00 0. -1.
         22    1    3    3    0    0 -0.23198803462E+02  0.82331717393E+02  0.69418671053E+03  0.69943683435E+03  0.00000000000E+00 0. -1.
</event>
<event>
 7    1  0.6597701E-006  0.7183640E+02  0.7818608E-02  0.1463331E+00
          2   -1    0    0  502    0  0.00000000000E+00  0.00000000000E+00  0.87611222849E+03  0.87611222849E+03  0.00000000000E+00 0. -1.
          1   -1    0    0  501    0 -0.00000000000E+00 -0.00000000000E+00 -0.15763450869E+03  0.15763450869E+03  0.00000000000E+00 0. -1.
         25    2    1    2    0    0  0.99695137385E+00  0.53567233001E+02  0.88860966629E+02  0.16245632885E+03  0.12500138011E+03 0.  0.
          2    1    1    2  501    0 -0.27656395093E+02 -0.68396437337E+02 -0.10923171204E+03  0.13181242637E+03  0.00000000000E+00 0. -1.
          1    1    1    2  502    0  0.26659443719E+02  0.14829204337E+02  0.73884846521E+03  0.73947798195E+03  0.00000000000E+00 0. -1.
         22    1    3    3    0    0 -0.17562225108E+02 -0.37177203870E+02  0.14235719180E+02  0.43511285191E+02  0.00000000000E+00 0. -1.
         22    1    3    3    0    0  0.18559176482E+02  0.90744436871E+02  0.74625247449E+02  0.11894504366E+03  0.00000000000E+00 0. -1.
</event>
<event>
 7    1  0.6597701E-006  0.1443100E+03  0.7818608E-02  0.1222605E+00
          2   -1    0    0  502    0  0.00000000000E+00  0.00000000000E+00  0.26699862907E+04  0.26699862907E+04  0.00000000000E+00 0. -1.
          1   -1    0    0  501    0 -0.00000000000E+00 -0.00000000000E+00 -0.81325999804E+02  0.81325999804E+02  0.00000000000E+00 0. -1.
         25    2    1    2    0    0 -0.62920444522E+02  0.21589363540E+02  0.62959696260E+03  0.64532353247E+03  0.12500017316E+03 0.  0.
          2    1    1    2  501    0 -0.12107049192E+03  0.22672797641E+02 -0.13912280804E+02  0.12395834512E+03  0.00000000000E+00 0. -1.
          1    1    1    2  502    0  0.18399093645E+03 -0.44262161181E+02  0.19729756091E+04  0.19820304129E+04  0.00000000000E+00 0. -1.
         22    1    3    3    0    0 -0.68715002766E+01  0.60763410783E+01 -0.33089397115E+01  0.97513342147E+01  0.00000000000E+00 0.  1.
         22    1    3    3    0    0 -0.56048944245E+02  0.15513022462E+02  0.63290590231E+03  0.63557219825E+03  0.00000000000E+00 0.  1.
</event>
<event>
 7    1  0.6597701E-006  0.1323093E+03  0.7818608E-02  0.1232589E+00
          2   -1    0    0  502    0  0.00000000000E+00  0.00000000000E+00  0.10856336631E+04  0.10856336631E+04  0.00000000000E+00 0. -1.
          1   -1    0    0  501    0 -0.00000000000E+00 -0.00000000000E+00 -0.76660371437E+02  0.76660371437E+02  0.00000000000E+00 0. -1.
         25    2    1    2    0    0  0.13462024922E+01 -0.54366617844E+01  0.54558699812E+03  0.55975164680E+03  0.12500145610E+03 0.  0.
          2    1    1    2  501    0 -0.67405321293E+02  0.12007497494E+03  0.19155383290E+02  0.13902663650E+03  0.00000000000E+00 0. -1.
          1    1    1    2  502    0  0.66059118801E+02 -0.11463831316E+03  0.44423091022E+03  0.46351575121E+03  0.00000000000E+00 0. -1.
         22    1    3    3    0    0 -0.18292874483E+02 -0.50785933979E+02  0.12350270303E+03  0.13478411629E+03  0.00000000000E+00 0. -1.
         22    1    3    3    0    0  0.19639076975E+02  0.45349272195E+02  0.42208429509E+03  0.42496753052E+03  0.00000000000E+00 0. -1.
</event>
<event>
 7    1  0.6597701E-006  0.9399589E+02  0.7818608E-02  0.1306741E+00
          2   -1    0    0  502    0  0.00000000000E+00  0.00000000000E+00  0.10659768762E+04  0.10659768762E+04  0.00000000000E+00 0. -1.
          1   -1    0    0  501    0 -0.00000000000E+00 -0.00000000000E+00 -0.12973225690E+03  0.12973225690E+03  0.00000000000E+00 0. -1.
         25    2    1    2    0    0 -0.82195944469E+02 -0.10430144249E+03  0.10329629713E+03  0.20959510173E+03  0.12500006991E+03 0.  0.
          2    1    1    2  501    0  0.76166721652E-01  0.91179709563E+02 -0.46768955901E+02  0.10247477969E+03  0.00000000000E+00 0. -1.
          1    1    1    2  502    0  0.82119777748E+02  0.13121732923E+02  0.87971727805E+03  0.88363925166E+03  0.00000000000E+00 0. -1.
         22    1    3    3    0    0 -0.10723676259E+03 -0.10018831740E+03  0.10993338611E+03  0.18336513185E+03  0.00000000000E+00 0.  1.
         22    1    3    3    0    0  0.25040818121E+02 -0.41131250833E+01 -0.66370889802E+01  0.26229969887E+02  0.00000000000E+00 0.  1.
</event>
<event>
 7    1  0.6821994E-006  0.7715452E+02  0.7818608E-02  0.1356188E+00
          2   -1    0    0  502    0  0.00000000000E+00  0.00000000000E+00  0.28672251388E+04  0.28672251388E+04  0.00000000000E+00 0. -1.
          1   -1    0    0  501    0 -0.00000000000E+00 -0.00000000000E+00 -0.42155999979E+03  0.42155999979E+03  0.00000000000E+00 0. -1.
         25    2    1    2    0    0  0.70839664445E+02 -0.32007342054E+02 -0.75924648564E+01  0.14739028644E+03  0.12499409190E+03 0.  0.
          2    1    1    2  501    0 -0.50030360733E+02 -0.42482381874E+02 -0.34039851631E+03  0.34666834247E+03  0.00000000000E+00 0. -1.
          1    1    1    2  502    0 -0.20809303712E+02  0.74489723928E+02  0.27936561202E+04  0.27947265097E+04  0.00000000000E+00 0. -1.
         22    1    3    3    0    0 -0.33529633523E+02  0.91302044140E+01 -0.55270122854E+01  0.35187282101E+02  0.00000000000E+00 0. -1.
         22    1    3    3    0    0  0.10436929797E+03 -0.41137546468E+02 -0.20654525709E+01  0.11220300434E+03  0.00000000000E+00 0. -1.
</event>
<event>
 7    1  0.6597701E-006  0.5909823E+02  0.7818608E-02  0.1473950E+00
          2   -1    0    0  502    0  0.00000000000E+00  0.00000000000E+00  0.21217375489E+03  0.21217375489E+03  0.00000000000E+00 0. -1.
          1   -1    0    0  501    0 -0.00000000000E+00 -0.00000000000E+00 -0.50715745359E+03  0.50715745359E+03  0.00000000000E+00 0. -1.
         25    2    1    2    0    0 -0.71170760721E+02  0.17789754148E+02 -0.21350105497E+03  0.25804572842E+03  0.12499257957E+03 0.  0.
          2    1    1    2  501    0  0.26984108608E+02  0.21272474177E+02 -0.26567171010E+03  0.26788452330E+03  0.00000000000E+00 0. -1.
          1    1    1    2  502    0  0.44186652113E+02 -0.39062228325E+02  0.18418906637E+03  0.19340095676E+03  0.00000000000E+00 0. -1.
         22    1    3    3    0    0 -0.14175871210E+02 -0.50456709702E+02 -0.10820576287E+03  0.12023028735E+03  0.00000000000E+00 0.  1.
         22    1    3    3    0    0 -0.56994889511E+02  0.68246463850E+02 -0.10529529210E+03  0.13781544107E+03  0.00000000000E+00 0.  1.
</event>
<event>
 7    1  0.6597701E-006  0.6274884E+02  0.7818608E-02  0.1422978E+00
          2   -1    0    0  502    0  0.00000000000E+00  0.00000000000E+00  0.33612163484E+03  0.33612163484E+03  0.00000000000E+00 0. -1.
          1   -1    0    0  501    0 -0.00000000000E+00 -0.00000000000E+00 -0.26060068216E+03  0.26060068216E+03  0.00000000000E+00 0. -1.
         25    2    1    2    0    0 -0.26543030449E+02 -0.33677201961E+01 -0.52407812924E+01  0.12794164997E+03  0.12500290398E+03 0.  0.
          2    1    1    2  501    0  0.58994551969E+02 -0.30844382812E+02 -0.18617074356E+03  0.19771514578E+03  0.00000000000E+00 0. -1.
          1    1    1    2  502    0 -0.32451521520E+02  0.34212103008E+02  0.26693247753E+03  0.27106552124E+03  0.00000000000E+00 0. -1.
         22    1    3    3    0    0  0.34807487536E+02 -0.18927409967E+01  0.38985671285E+02  0.52297478167E+02  0.00000000000E+00 0.  1.
         22    1    3    3    0    0 -0.61350517986E+02 -0.14749791994E+01 -0.44226452577E+02  0.75644171807E+02  0.00000000000E+00 0.  1.
</event>
<event>
 7    1  0.6597701E-006  0.1124574E+03  0.7818608E-02  0.1309290E+00
          2   -1    0    0  502    0  0.00000000000E+00  0.00000000000E+00  0.86916916394E+02  0.86916916394E+02  0.00000000000E+00 0. -1.
          1   -1    0    0  501    0 -0.00000000000E+00 -0.00000000000E+00 -0.10277696216E+04  0.10277696216E+04  0.00000000000E+00 0. -1.
         25    2    1    2    0    0 -0.75354827926E+02  0.78334605020E+02 -0.38553424371E+03  0.41961155238E+03  0.12499016516E+03 0.  0.
          2    1    1    2  501    0  0.57940306190E+02  0.35431777318E+02 -0.57440975052E+03  0.57841079815E+03  0.00000000000E+00 0. -1.
          1    1    1    2  502    0  0.17414521736E+02 -0.11376638234E+03  0.19091289027E+02  0.11666418745E+03  0.00000000000E+00 0. -1.
         22    1    3    3    0    0 -0.17967211955E+02  0.56643396482E+02 -0.33470876146E+03  0.33994301003E+03  0.00000000000E+00 0.  1.
         22    1    3    3    0    0 -0.57387615971E+02  0.21691208539E+02 -0.50825482243E+02  0.79668542348E+02  0.00000000000E+00 0.  1.
</event>
<event>
 7    1  0.6597701E-006  0.6715659E+02  0.7818608E-02  0.1472923E+00
          2   -1    0    0  502    0  0.00000000000E+00  0.00000000000E+00  0.16388805304E+04  0.16388805304E+04  0.00000000000E+00 0. -1.
          1   -1    0    0  501    0 -0.00000000000E+00 -0.00000000000E+00 -0.15568540415E+04  0.15568540415E+04  0.00000000000E+00 0. -1.
         25    2    1    2    0    0  0.55090240075E+02 -0.29578461831E+02  0.90818171916E+03  0.91887167015E+03  0.12498516402E+03 0.  0.
          2    1    1    2  501    0 -0.67146434471E+02  0.16060854778E+01 -0.15504619094E+04  0.15519160272E+04  0.00000000000E+00 0. -1.
          1    1    1    2  502    0  0.12056194396E+02  0.27972376353E+02  0.72430667902E+03  0.72494687456E+03  0.00000000000E+00 0. -1.
         22    1    3    3    0    0  0.12572090598E+02 -0.66520657834E+02  0.27582501271E+03  0.28401143114E+03  0.00000000000E+00 0. -1.
         22    1    3    3    0    0  0.42518149477E+02  0.36942196003E+02  0.63235670645E+03  0.63486023901E+03  0.00000000000E+00 0. -1.
</event>
<event>
 7    1  0.6597701E-006  0.1291743E+03  0.7818608E-02  0.1432618E+00
          2   -1    0    0  502    0  0.00000000000E+00  0.00000000000E+00  0.83316259393E+03  0.83316259393E+03  0.00000000000E+00 0. -1.
          1   -1    0    0  501    0 -0.00000000000E+00 -0.00000000000E+00 -0.26477338617E+03  0.26477338617E+03  0.00000000000E+00 0. -1.
         25    2    1    2    0    0 -0.45323580820E+01 -0.13441285621E+03  0.11846290572E+03  0.21850389223E+03  0.12499253060E+03 0.  0.
          2    1    1    2  501    0  0.20211962023E+02  0.66799233442E+01 -0.20797535428E+03  0.20906193526E+03  0.00000000000E+00 0. -1.
          1    1    1    2  502    0 -0.15679603941E+02  0.12773293287E+03  0.65790165633E+03  0.67037015262E+03  0.00000000000E+00 0. -1.
         22    1    3    3    0    0  0.29692597360E+02  0.94703628142E+01  0.38673293798E+01  0.31405323535E+02  0.00000000000E+00 0. -1.
         22    1    3    3    0    0 -0.34224955442E+02 -0.14388321903E+03  0.11459557634E+03  0.18709856870E+03  0.00000000000E+00 0. -1.
</event>
<event>
 7    1  0.6597701E-006  0.8711650E+02  0.7818608E-02  0.1406018E+00
          2   -1    0    0  502    0  0.00000000000E+00  0.00000000000E+00  0.72729764488E+03  0.72729764488E+03  0.00000000000E+00 0. -1.
          1   -1    0    0  501    0 -0.00000000000E+00 -0.00000000000E+00 -0.19377799954E+03  0.19377799954E+03  0.00000000000E+00 0. -1.
         25    2    1    2    0    0  0.34278310372E+02 -0.37838193996E+02  0.59612476549E+02  0.14758953121E+03  0.12498916303E+03 0.  0.
          2    1    1    2  501    0  0.27123470440E+02 -0.27656919567E+02 -0.14398556997E+03  0.14910543990E+03  0.00000000000E+00 0. -1.
          1    1    1    2  502    0 -0.61401780813E+02  0.65495113563E+02  0.61789273876E+03  0.62438067330E+03  0.00000000000E+00 0. -1.
         22    1    3    3    0    0  0.31990993319E+02  0.43072181596E+02  0.18109212156E+02  0.56626672566E+02  0.00000000000E+00 0.  1.
         22    1    3    3    0    0  0.22873170533E+01 -0.80910375592E+02  0.41503264394E+02  0.90962858646E+02  0.00000000000E+00 0.  1.
</event>
<event>
 7    1  0.6597701E-006  0.9724758E+02  0.7818608E-02  0.1333636E+00
          2   -1    0    0  502    0  0.00000000000E+00  0.00000000000E+00  0.28635245808E+03  0.28635245808E+03  0.00000000000E+00 0. -1.
          1   -1    0    0  501    0 -0.00000000000E+00 -0.00000000000E+00 -0.56111399472E+03  0.56111399472E+03  0.00000000000E+00 0. -1.
         25    2    1    2    0    0  0.93992724021E+02 -0.59146887223E+02 -0.17720296133E+03  0.24365482239E+03  0.12503518118E+03 0.  0.
          2    1    1    2  501    0 -0.38668846191E+02  0.89731892574E+02 -0.33974223059E+03  0.35351361425E+03  0.00000000000E+00 0. -1.
          1    1    1    2  502    0 -0.55323877830E+02 -0.30585005352E+02  0.24218365528E+03  0.25029801616E+03  0.00000000000E+00 0. -1.
         22    1    3    3    0    0  0.66850900560E+02 -0.86708023539E+02 -0.17301413754E+03  0.20474671192E+03  0.00000000000E+00 0.  1.
         22    1    3    3    0    0  0.27141823461E+02  0.27561136317E+02 -0.41888237878E+01  0.38908110473E+02  0.00000000000E+00 0.  1.
</event>
<event>
 7    1  0.6597701E-006  0.1863115E+03  0.7818608E-02  0.1378448E+00
          2   -1    0    0  502    0  0.00000000000E+00  0.00000000000E+00  0.18066992181E+03  0.18066992181E+03  0.00000000000E+00 0. -1.
          1   -1    0    0  501    0 -0.00000000000E+00 -0.00000000000E+00 -0.58128640451E+03  0.58128640451E+03  0.00000000000E+00 0. -1.
         25    2    1    2    0    0  0.72213041867E+02  0.19107344462E+03 -0.34248207007E+03  0.41790302916E+03  0.12500075524E+03 0.  0.
          2    1    1    2  501    0  0.57371477578E+00 -0.22581533830E+02 -0.14091045811E+03  0.14270953726E+03  0.00000000000E+00 0. -1.
          1    1    1    2  502    0 -0.72786756643E+02 -0.16849191079E+03  0.82776045475E+02  0.20134375990E+03  0.00000000000E+00 0. -1.
         22    1    3    3    0    0 -0.66970996366E+01  0.10020716309E+03 -0.23877471743E+03  0.25903608313E+03  0.00000000000E+00 0. -1.
         22    1    3    3    0    0  0.78910141504E+02  0.90866281529E+02 -0.10370735264E+03  0.15886694603E+03  0.00000000000E+00 0. -1.
</event>
<event>
 7    1  0.6597701E-006  0.1952493E+03  0.7818608E-02  0.1329175E+00
          2   -1    0    0  502    0  0.00000000000E+00  0.00000000000E+00  0.15266614691E+04  0.15266614691E+04  0.00000000000E+00 0. -1.
          1   -1    0    0  501    0 -0.00000000000E+00 -0.00000000000E+00 -0.26187740910E+04  0.26187740910E+04  0.00000000000E+00 0. -1.
         25    2    1    2    0    0  0.39824738627E+02  0.15850104885E+03 -0.70305113953E+03  0.73253933764E+03  0.12499753641E+03 0.  0.
          2    1    1    2  501    0  0.95844021880E+00  0.32728905559E+02 -0.18945149962E+04  0.18947979234E+04  0.00000000000E+00 0. -1.
          1    1    1    2  502    0 -0.40783178846E+02 -0.19122995440E+03  0.15054535138E+04  0.15180982990E+04  0.00000000000E+00 0. -1.
         22    1    3    3    0    0  0.31196014642E+02  0.33626621179E+02 -0.42674023052E+03  0.42919828207E+03  0.00000000000E+00 0.  1.
         22    1    3    3    0    0  0.86287239848E+01  0.12487442767E+03 -0.27631090901E+03  0.30334105558E+03  0.00000000000E+00 0.  1.
</event>
<event>
 7    1  0.6597701E-006  0.2688907E+03  0.7818608E-02  0.1222128E+00
          2   -1    0    0  502    0  0.00000000000E+00  0.00000000000E+00  0.71512784415E+03  0.71512784415E+03  0.00000000000E+00 0. -1.
          1   -1    0    0  501    0 -0.00000000000E+00 -0.00000000000E+00 -0.33616116493E+04  0.33616116493E+04  0.00000000000E+00 0. -1.
         25    2    1    2    0    0  0.13812173831E+03  0.30329117301E+03 -0.98015205844E+03  0.10427772971E+04  0.12499313348E+03 0.  0.
          2    1    1    2  501    0 -0.33373810478E+02 -0.57445600790E+02 -0.23235460345E+04  0.23244956405E+04  0.00000000000E+00 0. -1.
          1    1    1    2  502    0 -0.10474792783E+03 -0.24584557222E+03  0.65721428781E+03  0.70946655585E+03  0.00000000000E+00 0. -1.
         22    1    3    3    0    0  0.63812352579E+02  0.24612767829E+03 -0.80374862364E+03  0.84300812592E+03  0.00000000000E+00 0. -1.
         22    1    3    3    0    0  0.74309385729E+02  0.57163494713E+02 -0.17640343480E+03  0.19976917116E+03  0.00000000000E+00 0. -1.
</event>
<event>
 7    1  0.6597701E-006  0.6082203E+02  0.7818608E-02  0.1479540E+00
          2   -1    0    0  502    0  0.00000000000E+00  0.00000000000E+00  0.86334643241E+03  0.86334643241E+03  0.00000000000E+00 0. -1.
          1   -1    0    0  501    0 -0.00000000000E+00 -0.00000000000E+00 -0.40404680245E+02  0.40404680245E+02  0.00000000000E+00 0. -1.
         25    2    1    2    0    0  0.13774189150E+02 -0.34343135693E+02  0.30820775257E+03  0.33464095886E+03  0.12499349323E+03 0.  0.
          2    1    1    2  501    0  0.28665920144E+02 -0.14419911107E+02 -0.15017648851E+02  0.35428781958E+02  0.00000000000E+00 0. -1.
          1    1    1    2  502    0 -0.42440109294E+02  0.48763046799E+02  0.52975164844E+03  0.53368137183E+03  0.00000000000E+00 0. -1.
         22    1    3    3    0    0 -0.57833248386E+01 -0.15413888897E+02 -0.72659931837E+01  0.17995262545E+02  0.00000000000E+00 0.  1.
         22    1    3    3    0    0  0.19557513988E+02 -0.18929246795E+02  0.31547374575E+03  0.31664569632E+03  0.00000000000E+00 0.  1.
</event>
<event>
 7    1  0.6597701E-006  0.2791145E+02  0.7818608E-02  0.1650699E+00
          2   -1    0    0  502    0  0.00000000000E+00  0.00000000000E+00  0.27103431221E+02  0.27103431221E+02  0.00000000000E+00 0. -1.
          1   -1    0    0  501    0 -0.00000000000E+00 -0.00000000000E+00 -0.94926913629E+03  0.94926913629E+03  0.00000000000E+00 0. -1.
         25    2    1    2    0    0  0.11806279244E+02 -0.49125857972E+02 -0.35536471551E+03  0.38008155936E+03  0.12500069032E+03 0.  0.
          2    1    1    2  501    0 -0.98671557248E+01  0.25481729175E+02 -0.57146117662E+03  0.57211411071E+03  0.00000000000E+00 0. -1.
          1    1    1    2  502    0 -0.19391235187E+01  0.23644128796E+02  0.46601870660E+01  0.24176897445E+02  0.00000000000E+00 0. -1.
         22    1    3    3    0    0 -0.14468274042E+02 -0.46107864433E+02 -0.37629145551E+02  0.61247193497E+02  0.00000000000E+00 0.  1.
         22    1    3    3    0    0  0.26274553286E+02 -0.30179935384E+01 -0.31773556996E+03  0.31883436586E+03  0.00000000000E+00 0.  1.
</event>
<event>
 7    1  0.6597701E-006  0.6368837E+03  0.7818608E-02  0.1003801E+00
          2   -1    0    0  502    0  0.00000000000E+00  0.00000000000E+00  0.10341817683E+04  0.10341817683E+04  0.00000000000E+00 0. -1.
          1   -1    0    0  501    0 -0.00000000000E+00 -0.00000000000E+00 -0.12781876390E+04  0.12781876390E+04  0.00000000000E+00 0. -1.
         25    2    1    2    0    0 -0.81757433886E+03 -0.36911658003E+03 -0.45703924960E+03  0.10144871670E+04  0.12499794818E+03 0.  0.
          2    1    1    2  501    0  0.44619217845E+03 -0.10375835047E+03 -0.26545396826E+03  0.52945166415E+03  0.00000000000E+00 0. -1.
          1    1    1    2  502    0  0.37138216041E+03  0.47287493051E+03  0.47848734718E+03  0.76843057616E+03  0.00000000000E+00 0. -1.
         22    1    3    3    0    0 -0.76795249727E+03 -0.37682046258E+03 -0.42884864581E+03  0.95689908564E+03  0.00000000000E+00 0. -1.
         22    1    3    3    0    0 -0.49621841589E+02  0.77038825491E+01 -0.28190603790E+02  0.57588081328E+02  0.00000000000E+00 0. -1.
</event>
<event>
 7    1  0.6597701E-006  0.3852496E+02  0.7818608E-02  0.1574854E+00
          2   -1    0    0  502    0  0.00000000000E+00  0.00000000000E+00  0.41095418503E+03  0.41095418503E+03  0.00000000000E+00 0. -1.
          1   -1    0    0  501    0 -0.00000000000E+00 -0.00000000000E+00 -0.62586418044E+02  0.62586418044E+02  0.00000000000E+00 0. -1.
         25    2    1    2    0    0 -0.47006784176E+02 -0.60122820859E+01  0.42304090116E+02  0.14024334686E+03  0.12503109615E+03 0.  0.
          2    1    1    2  501    0  0.12800125195E+02  0.23696787927E+02  0.22211746418E+01  0.27024333107E+02  0.00000000000E+00 0. -1.
          1    1    1    2  502    0  0.34206658981E+02 -0.17684505841E+02  0.30384250223E+03  0.30627292310E+03  0.00000000000E+00 0. -1.
         22    1    3    3    0    0 -0.26327530342E+02 -0.62933316435E+02  0.34816108738E+01  0.68307121046E+02  0.00000000000E+00 0. -1.
         22    1    3    3    0    0 -0.20679253834E+02  0.56921034349E+02  0.38822479243E+02  0.71936225819E+02  0.00000000000E+00 0. -1.
</event>
<event>
 7    1  0.6597701E-006  0.4706253E+02  0.7818608E-02  0.1476285E+00
          2   -1    0    0  502    0  0.00000000000E+00  0.00000000000E+00  0.14112917455E+04  0.14112917455E+04  0.00000000000E+00 0. -1.
          1   -1    0    0  501    0 -0.00000000000E+00 -0.00000000000E+00 -0.35105461081E+03  0.35105461081E+03  0.00000000000E+00 0. -1.
         25    2    1    2    0    0 -0.48078025228E+02 -0.35673834721E+02 -0.63296275863E+02  0.15236686545E+03  0.12500049662E+03 0.  0.
          2    1    1    2  501    0  0.41020796994E+02 -0.10873742985E+02 -0.24096284305E+03  0.24467128112E+03  0.00000000000E+00 0. -1.
          1    1    1    2  502    0  0.70572282336E+01  0.46547577705E+02  0.13644962537E+04  0.13653082098E+04  0.00000000000E+00 0. -1.
         22    1    3    3    0    0  0.20016893362E+02  0.29393931808E+02 -0.43390371435E+02  0.56101725287E+02  0.00000000000E+00 0.  1.
         22    1    3    3    0    0 -0.68094918589E+02 -0.65067766529E+02 -0.19905904429E+02  0.96265140159E+02  0.00000000000E+00 0.  1.
</event>
<event>
 7    1  0.6597701E-006  0.1261094E+03  0.7818608E-02  0.1325795E+00
          2   -1    0    0  502    0  0.00000000000E+00  0.00000000000E+00  0.60522857090E+03  0.60522857090E+03  0.00000000000E+00 0. -1.
          1   -1    0    0  501    0 -0.00000000000E+00 -0.00000000000E+00 -0.11753140229E+03  0.11753140229E+03  0.00000000000E+00 0. -1.
         25    2    1    2    0    0  0.45230698995E+02  0.80850950496E+02  0.87681503055E+02  0.17859520376E+03  0.12500203399E+03 0.  0.
          2    1    1    2  501    0 -0.72300274946E+02 -0.12551910680E+03  0.41957430744E+01  0.14491369911E+03  0.00000000000E+00 0. -1.
          1    1    1    2  502    0  0.27069575951E+02  0.44668156301E+02  0.39581992247E+03  0.39925107032E+03  0.00000000000E+00 0. -1.
         22    1    3    3    0    0  0.54241114742E+02  0.53220490418E+02  0.11557101031E+03  0.13831550005E+03  0.00000000000E+00 0.  1.
         22    1    3    3    0    0 -0.90104157466E+01  0.27630460078E+02 -0.27889507258E+02  0.40279703713E+02  0.00000000000E+00 0.  1.
</event>
<event>
 7    1  0.6597701E-006  0.1540268E+03  0.7818608E-02  0.1328206E+00
          2   -1    0    0  502    0  0.00000000000E+00  0.00000000000E+00  0.18531765426E+04  0.18531765426E+04  0.00000000000E+00 0. -1.
          1   -1    0    0  501    0 -0.00000000000E+00 -0.00000000000E+00 -0.12057686673E+03  0.12057686673E+03  0.00000000000E+00 0. -1.
         25    2    1    2    0    0 -0.96162381294E+02  0.89591498615E+02  0.16979529719E+03  0.24845203306E+03  0.12499651829E+03 0.  0.
          2    1    1    2  501    0 -0.39976786372E+02 -0.12420836839E+02 -0.71859634568E+02  0.83163860641E+02  0.00000000000E+00 0. -1.
          1    1    1    2  502    0  0.13613916767E+03 -0.77170661776E+02  0.16346640133E+04  0.16421375157E+04  0.00000000000E+00 0. -1.
         22    1    3    3    0    0 -0.89184432565E+02  0.48343701132E+02  0.34997081690E+02  0.10731156591E+03  0.00000000000E+00 0.  1.
         22    1    3    3    0    0 -0.69779487287E+01  0.41247797484E+02  0.13479821550E+03  0.14114046715E+03  0.00000000000E+00 0.  1.
</event>
<event>
 7    1  0.6597701E-006  0.2046845E+03  0.7818608E-02  0.1182221E+00
          2   -1    0    0  502    0  0.00000000000E+00  0.00000000000E+00  0.15256205022E+03  0.15256205022E+03  0.00000000000E+00 0. -1.
          1   -1    0    0  501    0 -0.00000000000E+00 -0.00000000000E+00 -0.13329646086E+04  0.13329646086E+04  0.00000000000E+00 0. -1.
         25    2    1    2    0    0 -0.66471265900E+02  0.10037406750E+03 -0.61694858164E+03  0.64089292618E+03  0.12499923126E+03 0.  0.
          2    1    1    2  501    0  0.22285927595E+03  0.31680956846E+02 -0.59626172444E+03  0.63733663314E+03  0.00000000000E+00 0. -1.
          1    1    1    2  502    0 -0.15638801005E+03 -0.13205502434E+03  0.32807747736E+02  0.20729709948E+03  0.00000000000E+00 0. -1.
         22    1    3    3    0    0 -0.31985983322E+02  0.20675718939E+02 -0.32618485141E+02  0.50145329350E+02  0.00000000000E+00 0. -1.
         22    1    3    3    0    0 -0.34485282578E+02  0.79698348556E+02 -0.58433009650E+03  0.59074759683E+03  0.00000000000E+00 0. -1.
</event>
<event>
 7    1  0.6597701E-006  0.1179516E+03  0.7818608E-02  0.1309618E+00
          2   -1    0    0  502    0  0.00000000000E+00  0.00000000000E+00  0.35796013850E+03  0.35796013850E+03  0.00000000000E+00 0. -1.
          1   -1    0    0  501    0 -0.00000000000E+00 -0.00000000000E+00 -0.26586238782E+03  0.26586238782E+03  0.00000000000E+00 0. -1.
         25    2    1    2    0    0 -0.17107920448E+01  0.12375487985E+03 -0.14039027950E+03  0.22506248209E+03  0.12500197266E+03 0.  0.
          2    1    1    2  501    0  0.62840592223E+02 -0.10299377121E+03 -0.33365979362E+02  0.12517965297E+03  0.00000000000E+00 0. -1.
          1    1    1    2  502    0 -0.61129800178E+02 -0.20761108642E+02  0.26585400953E+03  0.27358039127E+03  0.00000000000E+00 0. -1.
         22    1    3    3    0    0  0.53286886094E+02  0.47313875222E+02 -0.99528913645E+02  0.12240955710E+03  0.00000000000E+00 0. -1.
         22    1    3    3    0    0 -0.54997678139E+02  0.76441004627E+02 -0.40861365851E+02  0.10265292499E+03  0.00000000000E+00 0. -1.
</event>
<event>
 7    1  0.6597701E-006  0.5525694E+02  0.7818608E-02  0.1489825E+00
          2   -1    0    0  502    0  0.00000000000E+00  0.00000000000E+00  0.22072629168E+04  0.22072629168E+04  0.00000000000E+00 0. -1.
          1   -1    0    0  501    0 -0.00000000000E+00 -0.00000000000E+00 -0.57455436292E+02  0.57455436292E+02  0.00000000000E+00 0. -1.
         25    2    1    2    0    0  0.52161758500E+01 -0.19587925835E+02  0.32902121853E+02  0.13084049228E+03  0.12500315783E+03 0.  0.
          2    1    1    2  501    0  0.44795137284E+02  0.43086814729E+02  0.11104010836E+03  0.12725165458E+03  0.00000000000E+00 0. -1.
          1    1    1    2  502    0 -0.50011313134E+02 -0.23498888894E+02  0.20058652503E+04  0.20066262063E+04  0.00000000000E+00 0. -1.
         22    1    3    3    0    0  0.11880779354E+02 -0.10748890190E+02  0.80445461673E+02  0.82025385474E+02  0.00000000000E+00 0.  1.
         22    1    3    3    0    0 -0.66646035041E+01 -0.88390356446E+01 -0.47543339821E+02  0.48815106804E+02  0.00000000000E+00 0.  1.
</event>
<event>
 7    1  0.6597701E-006  0.6491366E+02  0.7818608E-02  0.1439975E+00
          2   -1    0    0  502    0  0.00000000000E+00  0.00000000000E+00  0.17949591959E+03  0.17949591959E+03  0.00000000000E+00 0. -1.
          1   -1    0    0  501    0 -0.00000000000E+00 -0.00000000000E+00 -0.43392313788E+03  0.43392313788E+03  0.00000000000E+00 0. -1.
         25    2    1    2    0    0  0.22973656463E+02 -0.26035173224E+02 -0.25419061604E+02  0.13219685097E+03  0.12499703827E+03 0.  0.
          2    1    1    2  501    0 -0.62931531323E+02  0.22877582177E+02 -0.34866176692E+03  0.35503350421E+03  0.00000000000E+00 0. -1.
          1    1    1    2  502    0  0.39957874860E+02  0.31575910468E+01  0.11965361024E+03  0.12618870230E+03  0.00000000000E+00 0. -1.
         22    1    3    3    0    0 -0.43534234691E+02 -0.25056525547E+02  0.17322322547E+02  0.53133058646E+02  0.00000000000E+00 0. -1.
         22    1    3    3    0    0  0.66507891154E+02 -0.97864767657E+00 -0.42741384151E+02  0.79063792321E+02  0.00000000000E+00 0. -1.
</event>
<event>
 7    1  0.6597701E-006  0.4715504E+02  0.7818608E-02  0.1468379E+00
          2   -1    0    0  502    0  0.00000000000E+00  0.00000000000E+00  0.39178586426E+04  0.39178586426E+04  0.00000000000E+00 0. -1.
          1   -1    0    0  501    0 -0.00000000000E+00 -0.00000000000E+00 -0.86193369575E+01  0.86193369575E+01  0.00000000000E+00 0. -1.
         25    2    1    2    0    0 -0.86971389597E+02  0.21802259152E+02  0.25061550432E+04  0.25108714940E+04  0.12499279112E+03 0.  0.
          2    1    1    2  501    0  0.42422536252E+02 -0.16937243926E+02  0.82818333107E+02  0.94580220514E+02  0.00000000000E+00 0. -1.
          1    1    1    2  502    0  0.44548853345E+02 -0.48650152257E+01  0.13202659294E+04  0.13210262651E+04  0.00000000000E+00 0. -1.
         22    1    3    3    0    0 -0.65651183958E+02 -0.44709529602E+02  0.16313919271E+04  0.16333244136E+04  0.00000000000E+00 0. -1.
         22    1    3    3    0    0 -0.21320205639E+02  0.66511788754E+02  0.87476311601E+03  0.87754708042E+03  0.00000000000E+00 0. -1.
</event>
<event>
 7    1  0.6597701E-006  0.7970794E+02  0.7818608E-02  0.1415287E+00
          2   -1    0    0  502    0  0.00000000000E+00  0.00000000000E+00  0.15478532223E+03  0.15478532223E+03  0.00000000000E+00 0. -1.
          1   -1    0    0  501    0 -0.00000000000E+00 -0.00000000000E+00 -0.16237088308E+04  0.16237088308E+04  0.00000000000E+00 0. -1.
         25    2    1    2    0    0 -0.41890158483E+01  0.66281094284E+02 -0.77225313273E+02  0.16124376512E+03  0.12500028586E+03 0.  0.
          2    1    1    2  501    0 -0.34726044516E+02 -0.72358160472E+02 -0.14999294565E+04  0.15020752232E+04  0.00000000000E+00 0. -1.
          1    1    1    2  502    0  0.38915060364E+02  0.60770661880E+01  0.10823126124E+03  0.11517516471E+03  0.00000000000E+00 0. -1.
         22    1    3    3    0    0  0.53014776202E+02  0.17961518773E+02 -0.64309406458E+02  0.85257741064E+02  0.00000000000E+00 0. -1.
         22    1    3    3    0    0 -0.57203792051E+02  0.48319575511E+02 -0.12915906815E+02  0.75986024053E+02  0.00000000000E+00 0. -1.
</event>
<event>
 7    1  0.6597701E-006  0.7958831E+02  0.7818608E-02  0.1341741E+00
          2   -1    0    0  502    0  0.00000000000E+00  0.00000000000E+00  0.33166517894E+03  0.33166517894E+03  0.00000000000E+00 0. -1.
          1   -1    0    0  501    0 -0.00000000000E+00 -0.00000000000E+00 -0.84760918853E+03  0.84760918853E+03  0.00000000000E+00 0. -1.
         25    2    1    2    0    0  0.14052010945E+02 -0.58104360297E+02 -0.81614986829E+01  0.13880179133E+03  0.12500300604E+03 0.  0.
          2    1    1    2  501    0  0.57924031538E+02  0.56869319942E+02 -0.76708250869E+03  0.77136559952E+03  0.00000000000E+00 0. -1.
          1    1    1    2  502    0 -0.71976042482E+02  0.12350403546E+01  0.25929999778E+03  0.26910697662E+03  0.00000000000E+00 0. -1.
         22    1    3    3    0    0 -0.12052192060E+02 -0.71858153884E+02 -0.49447348277E+02  0.88056174483E+02  0.00000000000E+00 0. -1.
         22    1    3    3    0    0  0.26104203004E+02  0.13753793587E+02  0.41285849594E+02  0.50745616847E+02  0.00000000000E+00 0. -1.
</event>
<event>
 7    1  0.6597701E-006  0.1769181E+03  0.7818608E-02  0.1247697E+00
          2   -1    0    0  502    0  0.00000000000E+00  0.00000000000E+00  0.24554582433E+04  0.24554582433E+04  0.00000000000E+00 0. -1.
          1   -1    0    0  501    0 -0.00000000000E+00 -0.00000000000E+00 -0.44014465672E+03  0.44014465672E+03  0.00000000000E+00 0. -1.
         25    2    1    2    0    0  0.23519397673E+03  0.51052252551E+02  0.53693637497E+03  0.60153824161E+03  0.12500018466E+03 0.  0.
          2    1    1    2  501    0 -0.77019980477E+02  0.10340554657E+02 -0.40028375421E+03  0.40775738908E+03  0.00000000000E+00 0. -1.
          1    1    1    2  502    0 -0.15817399625E+03 -0.61392807208E+02  0.18786609659E+04  0.18863072694E+04  0.00000000000E+00 0. -1.
         22    1    3    3    0    0  0.22062072371E+03  0.30063904966E+01  0.42512336624E+03  0.47897016466E+03  0.00000000000E+00 0. -1.
         22    1    3    3    0    0  0.14573253024E+02  0.48045862055E+02  0.11181300873E+03  0.12256807694E+03  0.00000000000E+00 0. -1.
</event>
<event>
 7    1  0.6597701E-006  0.9678000E+02  0.7818608E-02  0.1352390E+00
          2   -1    0    0  502    0  0.00000000000E+00  0.00000000000E+00  0.37851410057E+03  0.37851410057E+03  0.00000000000E+00 0. -1.
          1   -1    0    0  501    0 -0.00000000000E+00 -0.00000000000E+00 -0.14290646200E+04  0.14290646200E+04  0.00000000000E+00 0. -1.
         25    2    1    2    0    0 -0.95334834942E+02 -0.10415579977E+03 -0.11738404412E+02  0.18894182728E+03  0.12499625026E+03 0.  0.
          2    1    1    2  501    0  0.49014870771E+02  0.22746990488E+02 -0.13205923706E+04  0.13216974284E+04  0.00000000000E+00 0. -1.
          1    1    1    2  502    0  0.46319964171E+02  0.81408809278E+02  0.28178025560E+03  0.29693946480E+03  0.00000000000E+00 0. -1.
         22    1    3    3    0    0 -0.90946514436E+02 -0.70017178732E+01 -0.24852988009E+01  0.91249489047E+02  0.00000000000E+00 0.  1.
         22    1    3    3    0    0 -0.43883205062E+01 -0.97154081893E+02 -0.92531056115E+01  0.97692338230E+02  0.00000000000E+00 0.  1.
</event>
<event>
 7    1  0.6597701E-006  0.1266706E+03  0.7818608E-02  0.1315236E+00
          2   -1    0    0  502    0  0.00000000000E+00  0.00000000000E+00  0.80242722446E+03  0.80242722446E+03  0.00000000000E+00 0. -1.
          1   -1    0    0  501    0 -0.00000000000E+00 -0.00000000000E+00 -0.25285561357E+04  0.25285561357E+04  0.00000000000E+00 0. -1.
         25    2    1    2    0    0 -0.51237937797E+02 -0.67781326462E+02  0.61042155723E+02  0.16300762900E+03  0.12500283137E+03 0.  0.
          2    1    1    2  501    0 -0.56401611868E+02 -0.91480613932E+01 -0.24709016026E+04  0.24715621697E+04  0.00000000000E+00 0. -1.
          1    1    1    2  502    0  0.10763954967E+03  0.76929387855E+02  0.68373053559E+03  0.69641356152E+03  0.00000000000E+00 0. -1.
         22    1    3    3    0    0  0.56002129993E+00 -0.86466261409E+02  0.84795709743E+01  0.86882858550E+02  0.00000000000E+00 0. -1.
         22    1    3    3    0    0 -0.51797959097E+02  0.18684934947E+02  0.52562584748E+02  0.76124770450E+02  0.00000000000E+00 0. -1.
</event>
<event>
 7    1  0.6597701E-006  0.1346708E+03  0.7818608E-02  0.1326783E+00
          2   -1    0    0  502    0  0.00000000000E+00  0.00000000000E+00  0.25347079640E+03  0.25347079640E+03  0.00000000000E+00 0. -1.
          1   -1    0    0  501    0 -0.00000000000E+00 -0.00000000000E+00 -0.38370216891E+03  0.38370216891E+03  0.00000000000E+00 0. -1.
         25    2    1    2    0    0 -0.11514180881E+03 -0.23002755279E+01  0.69142050240E+01  0.17011010014E+03  0.12500684995E+03 0.  0.
          2    1    1    2  501    0 -0.21186286359E+02 -0.43610455670E+02 -0.26815029186E+03  0.27249827449E+03  0.00000000000E+00 0. -1.
          1    1    1    2  502    0  0.13632809516E+03  0.45910731198E+02  0.13100471433E+03  0.19456459068E+03  0.00000000000E+00 0. -1.
         22    1    3    3    0    0 -0.10700165163E+03  0.33041429426E+02  0.42043202824E+02  0.11961906376E+03  0.00000000000E+00 0. -1.
         22    1    3    3    0    0 -0.81401571709E+01 -0.35341704954E+02 -0.35128997800E+02  0.50491036376E+02  0.00000000000E+00 0. -1.
</event>
<event>
 7    1  0.6597701E-006  0.5410550E+02  0.7818608E-02  0.1514737E+00
          2   -1    0    0  502    0  0.00000000000E+00  0.00000000000E+00  0.52908018929E+03  0.52908018929E+03  0.00000000000E+00 0. -1.
          1   -1    0    0  501    0 -0.00000000000E+00 -0.00000000000E+00 -0.81119366860E+03  0.81119366860E+03  0.00000000000E+00 0. -1.
         25    2    1    2    0    0  0.25750445126E+02 -0.66000382155E+01  0.14408035999E+03  0.19259063569E+03  0.12500142756E+03 0.  0.
          2    1    1    2  501    0 -0.54010597543E+02  0.51995265517E+01 -0.78544627585E+03  0.78731825330E+03  0.00000000000E+00 0. -1.
          1    1    1    2  502    0  0.28260152417E+02  0.14005116638E+01  0.35925243655E+03  0.36036496891E+03  0.00000000000E+00 0. -1.
         22    1    3    3    0    0  0.70524265519E+02 -0.25134392969E+01  0.12542365414E+03  0.14391345462E+03  0.00000000000E+00 0.  1.
         22    1    3    3    0    0 -0.44773820394E+02 -0.40865989186E+01  0.18656705854E+02  0.48677181068E+02  0.00000000000E+00 0.  1.
</event>
<event>
 7    1  0.8739672E-006  0.9650461E+02  0.7818608E-02  0.1320946E+00
          2   -1    0    0  502    0  0.00000000000E+00  0.00000000000E+00  0.22232651021E+04  0.22232651021E+04  0.00000000000E+00 0. -1.
          1   -1    0    0  501    0 -0.00000000000E+00 -0.00000000000E+00 -0.15938355886E+04  0.15938355886E+04  0.00000000000E+00 0. -1.
         25    2    1    2    0    0  0.12400418181E+03 -0.50902404994E+02 -0.98230478088E+02  0.20797643648E+03  0.12504750843E+03 0.  0.
          2    1    1    2  501    0 -0.66248336356E+02 -0.26247616014E+02 -0.14387791053E+04  0.14405426385E+04  0.00000000000E+00 0. -1.
          1    1    1    2  502    0 -0.57755845454E+02  0.77150021008E+02  0.21664390969E+04  0.21685816157E+04  0.00000000000E+00 0. -1.
         22    1    3    3    0    0 -0.42940258955E+01 -0.46582554551E+02 -0.74577380669E+00  0.46785993903E+02  0.00000000000E+00 0. -1.
         22    1    3    3    0    0  0.12829820771E+03 -0.43198504430E+01 -0.97484704281E+02  0.16119044257E+03  0.00000000000E+00 0. -1.
</event>
<event>
 7    1  0.6597701E-006  0.5387496E+02  0.7818608E-02  0.1447906E+00
          2   -1    0    0  502    0  0.00000000000E+00  0.00000000000E+00  0.79657679157E+02  0.79657679157E+02  0.00000000000E+00 0. -1.
          1   -1    0    0  501    0 -0.00000000000E+00 -0.00000000000E+00 -0.24721115187E+04  0.24721115187E+04  0.00000000000E+00 0. -1.
         25    2    1    2    0    0  0.11086754155E+02  0.95434915752E+01 -0.12185843650E+03  0.17518835521E+03  0.12500994722E+03 0.  0.
          2    1    1    2  501    0  0.45181064468E+02  0.56344575019E+01 -0.23072721869E+04  0.23077213914E+04  0.00000000000E+00 0. -1.
          1    1    1    2  502    0 -0.56267818622E+02 -0.15177949077E+02  0.36676783891E+02  0.68859451256E+02  0.00000000000E+00 0. -1.
         22    1    3    3    0    0  0.22247677881E+02 -0.10460724802E+02  0.19876488852E+02  0.31614249059E+02  0.00000000000E+00 0. -1.
         22    1    3    3    0    0 -0.11160923727E+02  0.20004216377E+02 -0.14173492536E+03  0.14357410615E+03  0.00000000000E+00 0. -1.
</event>
<event>
 7    1  0.6597701E-006  0.9741800E+02  0.7818608E-02  0.1297462E+00
          2   -1    0    0  502    0  0.00000000000E+00  0.00000000000E+00  0.40526389389E+03  0.40526389389E+03  0.00000000000E+00 0. -1.
          1   -1    0    0  501    0 -0.00000000000E+00 -0.00000000000E+00 -0.18509838882E+04  0.18509838882E+04  0.00000000000E+00 0. -1.
         25    2    1    2    0    0 -0.58344186493E+02 -0.17132247317E+03  0.63993905665E+02  0.22907587031E+03  0.12500040194E+03 0.  0.
          2    1    1    2  501    0  0.46552880345E+02  0.84740350958E+02 -0.17596998953E+04  0.17623540561E+04  0.00000000000E+00 0. -1.
          1    1    1    2  502    0  0.11791306149E+02  0.86582122211E+02  0.24998599533E+03  0.26481785561E+03  0.00000000000E+00 0. -1.
         22    1    3    3    0    0 -0.62758572387E+02 -0.12156418642E+03 -0.12862891216E+02  0.13741158539E+03  0.00000000000E+00 0.  1.
         22    1    3    3    0    0  0.44143858932E+01 -0.49758286747E+02  0.76856796881E+02  0.91664284919E+02  0.00000000000E+00 0.  1.
</event>
<event>
 7    1  0.6613351E-006  0.1991411E+03  0.7818608E-02  0.1291911E+00
          2   -1    0    0  502    0  0.00000000000E+00  0.00000000000E+00  0.15739623985E+04  0.15739623985E+04  0.00000000000E+00 0. -1.
          1   -1    0    0  501    0 -0.00000000000E+00 -0.00000000000E+00 -0.13290369431E+04  0.13290369431E+04  0.00000000000E+00 0. -1.
         25    2    1    2    0    0 -0.14145037159E+03  0.10183501617E+03 -0.25092835841E+03  0.33010363946E+03  0.12499917435E+03 0.  0.
          2    1    1    2  501    0 -0.40566356314E+02 -0.19499225690E+02 -0.10315255835E+04  0.10325070840E+04  0.00000000000E+00 0. -1.
          1    1    1    2  502    0  0.18201672790E+03 -0.82335790483E+02  0.15273793973E+04  0.15403886181E+04  0.00000000000E+00 0. -1.
         22    1    3    3    0    0 -0.16162341460E+03  0.85765338530E+02 -0.24072401100E+03  0.30236711282E+03  0.00000000000E+00 0. -1.
         22    1    3    3    0    0  0.20173043017E+02  0.16069677643E+02 -0.10204347410E+02  0.27736526643E+02  0.00000000000E+00 0. -1.
</event>
<event>
 7    1  0.6597701E-006  0.3060994E+02  0.7818608E-02  0.1653403E+00
          2   -1    0    0  502    0  0.00000000000E+00  0.00000000000E+00  0.18781415802E+04  0.18781415802E+04  0.00000000000E+00 0. -1.
          1   -1    0    0  501    0 -0.00000000000E+00 -0.00000000000E+00 -0.17876263056E+02  0.17876263056E+02  0.00000000000E+00 0. -1.
         25    2    1    2    0    0 -0.24104485470E+02 -0.84338451867E+01  0.56706691643E+03  0.58124149111E+03  0.12499850924E+03 0.  0.
          2    1    1    2  501    0  0.28480267540E+02 -0.12417181831E+02  0.11852714140E+02  0.33253554340E+02  0.00000000000E+00 0. -1.
          1    1    1    2  502    0 -0.43757820703E+01  0.20851027018E+02  0.12813456865E+04  0.12815227978E+04  0.00000000000E+00 0. -1.
         22    1    3    3    0    0 -0.36074166057E+02  0.53202123430E+02  0.31289114014E+03  0.31942554214E+03  0.00000000000E+00 0.  1.
         22    1    3    3    0    0  0.11969680587E+02 -0.61635968617E+02  0.25417577628E+03  0.26181594896E+03  0.00000000000E+00 0.  1.
</event>
<event>
 7    1  0.6597701E-006  0.4973302E+02  0.7818608E-02  0.1500480E+00
          2   -1    0    0  502    0  0.00000000000E+00  0.00000000000E+00  0.23982076507E+04  0.23982076507E+04  0.00000000000E+00 0. -1.
          1   -1    0    0  501    0 -0.00000000000E+00 -0.00000000000E+00 -0.11605988117E+02  0.11605988117E+02  0.00000000000E+00 0. -1.
         25    2    1    2    0    0 -0.83881417920E+01  0.64678678755E+02  0.10720255600E+04  0.10812575167E+04  0.12500129513E+03 0.  0.
          2    1    1    2  501    0  0.27644909117E+02 -0.19648809169E+02  0.37582421572E+02  0.50623661592E+02  0.00000000000E+00 0. -1.
          1    1    1    2  502    0 -0.19256767325E+02 -0.45029869586E+02  0.12769936810E+04  0.12779324605E+04  0.00000000000E+00 0. -1.
         22    1    3    3    0    0  0.27925342106E+02  0.80936071945E+02  0.92466336641E+03  0.92861876659E+03  0.00000000000E+00 0.  1.
         22    1    3    3    0    0 -0.36313483898E+02 -0.16257393191E+02  0.14736219360E+03  0.15263875015E+03  0.00000000000E+00 0.  1.
</event>
<event>
 7    1  0.6597701E-006  0.1394726E+03  0.7818608E-02  0.1222261E+00
          2   -1    0    0  502    0  0.00000000000E+00  0.00000000000E+00  0.32262016506E+03  0.32262016506E+03  0.00000000000E+00 0. -1.
          1   -1    0    0  501    0 -0.00000000000E+00 -0.00000000000E+00 -0.29034735966E+04  0.29034735966E+04  0.00000000000E+00 0. -1.
         25    2    1    2    0    0  0.15001885730E+03 -0.14893137413E+03 -0.22872585974E+03  0.33559918442E+03  0.12500032769E+03 0.  0.
          2    1    1    2  501    0 -0.14513372145E+02  0.12708017430E+03 -0.26021409122E+04  0.26052825827E+04  0.00000000000E+00 0. -1.
          1    1    1    2  502    0 -0.13550548516E+03  0.21851199826E+02  0.25001334042E+03  0.28521199454E+03  0.00000000000E+00 0. -1.
         22    1    3    3    0    0  0.58129861085E+02 -0.95419127854E+02 -0.19375277215E+03  0.22366051825E+03  0.00000000000E+00 0.  1.
         22    1    3    3    0    0  0.91888996219E+02 -0.53512246271E+02 -0.34973087592E+02  0.11193866617E+03  0.00000000000E+00 0.  1.
</event>
<event>
 7    1  0.6597701E-006  0.2073444E+03  0.7818608E-02  0.1329678E+00
          2   -1    0    0  502    0  0.00000000000E+00  0.00000000000E+00  0.97687749176E+03  0.97687749176E+03  0.00000000000E+00 0. -1.
          1   -1    0    0  501    0 -0.00000000000E+00 -0.00000000000E+00 -0.81145602831E+03  0.81145602831E+03  0.00000000000E+00 0. -1.
         25    2    1    2    0    0 -0.15988955266E+03  0.14504140670E+03 -0.15281046916E+03  0.29253481802E+03  0.12499560617E+03 0.  0.
          2    1    1    2  501    0  0.27342708295E+02  0.13952197713E+02 -0.57655971022E+03  0.57737629582E+03  0.00000000000E+00 0. -1.
          1    1    1    2  502    0  0.13254684437E+03 -0.15899360441E+03  0.89479164283E+03  0.91842240623E+03  0.00000000000E+00 0. -1.
         22    1    3    3    0    0 -0.17361329229E+03  0.95827450761E+02 -0.12396349956E+03  0.23386197811E+03  0.00000000000E+00 0.  1.
         22    1    3    3    0    0  0.13723739629E+02  0.49213955939E+02 -0.28846969594E+02  0.58672839912E+02  0.00000000000E+00 0.  1.
</event>
<event>
 7    1  0.6597701E-006  0.5346264E+02  0.7818608E-02  0.1568117E+00
          2   -1    0    0  502    0  0.00000000000E+00  0.00000000000E+00  0.30013581745E+03  0.30013581745E+03  0.00000000000E+00 0. -1.
          1   -1    0    0  501    0 -0.00000000000E+00 -0.00000000000E+00 -0.63630019951E+03  0.63630019951E+03  0.00000000000E+00 0. -1.
         25    2    1    2    0    0 -0.53389226353E+02  0.21250192615E+02  0.14926693882E+03  0.20300730769E+03  0.12501746986E+03 0.  0.
          2    1    1    2  501    0  0.53450827795E+02 -0.10087912783E+01 -0.60742204890E+03  0.60977008302E+03  0.00000000000E+00 0. -1.
          1    1    1    2  502    0 -0.61601441655E-01 -0.20241401336E+02  0.12199072802E+03  0.12365862625E+03  0.00000000000E+00 0. -1.
         22    1    3    3    0    0 -0.52771983084E+02  0.30374259987E+02  0.16987693050E+03  0.18045955055E+03  0.00000000000E+00 0. -1.
         22    1    3    3    0    0 -0.61724326911E+00 -0.91240673719E+01 -0.20609991680E+02  0.22547757132E+02  0.00000000000E+00 0. -1.
</event>
<event>
 7    1  0.6597701E-006  0.1011428E+03  0.7818608E-02  0.1300550E+00
          2   -1    0    0  502    0  0.00000000000E+00  0.00000000000E+00  0.67216555284E+03  0.67216555284E+03  0.00000000000E+00 0. -1.
          1   -1    0    0  501    0 -0.00000000000E+00 -0.00000000000E+00 -0.35091067306E+03  0.35091067306E+03  0.00000000000E+00 0. -1.
         25    2    1    2    0    0  0.15951741002E+02  0.10822150262E+03  0.42593408869E+02  0.17148103905E+03  0.12500078641E+03 0.  0.
          2    1    1    2  501    0 -0.77561970320E+02 -0.25980880801E+02 -0.27580908529E+03  0.28768301468E+03  0.00000000000E+00 0. -1.
          1    1    1    2  502    0  0.61610229318E+02 -0.82240621814E+02  0.55447055620E+03  0.56391217218E+03  0.00000000000E+00 0. -1.
         22    1    3    3    0    0 -0.37582772573E+02  0.24979091073E+02 -0.25039766686E+02  0.51608232878E+02  0.00000000000E+00 0. -1.
         22    1    3    3    0    0  0.53534513575E+02  0.83242411542E+02  0.67633175555E+02  0.11987280617E+03  0.00000000000E+00 0. -1.
</event>
<event>
 7    1  0.6597701E-006  0.3354216E+02  0.7818608E-02  0.1639181E+00
          2   -1    0    0  502    0  0.00000000000E+00  0.00000000000E+00  0.18647821631E+03  0.18647821631E+03  0.00000000000E+00 0. -1.
          1   -1    0    0  501    0 -0.00000000000E+00 -0.00000000000E+00 -0.76254362776E+03  0.76254362776E+03  0.00000000000E+00 0. -1.
         25    2    1    2    0    0  0.16433352858E+01 -0.25316219680E+02  0.81479598575E+02  0.15135335421E+03  0.12500120526E+03 0.  0.
          2    1    1    2  501    0  0.19322293199E+02  0.27473798151E+02 -0.72562435785E+03  0.72640131423E+03  0.00000000000E+00 0. -1.
          1    1    1    2  502    0 -0.20965628485E+02 -0.21575784706E+01  0.68079347824E+02  0.71267175633E+02  0.00000000000E+00 0. -1.
         22    1    3    3    0    0 -0.45319070425E+02  0.29739968206E+02  0.25721439933E+02  0.59998969369E+02  0.00000000000E+00 0.  1.
         22    1    3    3    0    0  0.46962405711E+02 -0.55056187886E+02  0.55758158642E+02  0.91354384842E+02  0.00000000000E+00 0.  1.
</event>
<event>
 7    1  0.6597701E-006  0.4354952E+02  0.7818608E-02  0.1529584E+00
          2   -1    0    0  502    0  0.00000000000E+00  0.00000000000E+00  0.25695439057E+04  0.25695439057E+04  0.00000000000E+00 0. -1.
          1   -1    0    0  501    0 -0.00000000000E+00 -0.00000000000E+00 -0.40159914616E+02  0.40159914616E+02  0.00000000000E+00 0. -1.
         25    2    1    2    0    0  0.25397868566E+02 -0.60312934239E+02  0.22607131863E+04  0.22651118960E+04  0.12500035599E+03 0.  0.
          2    1    1    2  501    0 -0.88158807060E+01  0.30595387009E+02 -0.30143823206E+02  0.43845724265E+02  0.00000000000E+00 0. -1.
          1    1    1    2  502    0 -0.16581987860E+02  0.29717547230E+02  0.29881462803E+03  0.30074620008E+03  0.00000000000E+00 0. -1.
         22    1    3    3    0    0 -0.49549518221E+02 -0.17704248842E+02  0.10618371086E+04  0.10631399909E+04  0.00000000000E+00 0. -1.
         22    1    3    3    0    0  0.74947386786E+02 -0.42608685397E+02  0.11988760777E+04  0.12019719051E+04  0.00000000000E+00 0. -1.
</event>
<event>
 7    1  0.6597701E-006  0.1563614E+03  0.7818608E-02  0.1328429E+00
          2   -1    0    0  502    0  0.00000000000E+00  0.00000000000E+00  0.41400580539E+03  0.41400580539E+03  0.00000000000E+00 0. -1.
          1   -1    0    0  501    0 -0.00000000000E+00 -0.00000000000E+00 -0.21180709615E+03  0.21180709615E+03  0.00000000000E+00 0. -1.
         25    2    1    2    0    0  0.58203751591E+02  0.12032011541E+03  0.11695504225E+03  0.21718058928E+03  0.12499727829E+03 0.  0.
          2    1    1    2  501    0 -0.37386251455E+01  0.40985771090E+02 -0.12875361647E+03  0.13517138937E+03  0.00000000000E+00 0. -1.
          1    1    1    2  502    0 -0.54465126445E+02 -0.16130588650E+03  0.21399728346E+03  0.27346092289E+03  0.00000000000E+00 0. -1.
         22    1    3    3    0    0  0.77619920244E+02  0.28323054765E+02  0.26658948615E+02  0.86820199211E+02  0.00000000000E+00 0. -1.
         22    1    3    3    0    0 -0.19416168653E+02  0.91997060648E+02  0.90296093639E+02  0.13036039007E+03  0.00000000000E+00 0. -1.
</event>
<event>
 7    1  0.6597701E-006  0.1789838E+03  0.7818608E-02  0.1234299E+00
          2   -1    0    0  502    0  0.00000000000E+00  0.00000000000E+00  0.41667996555E+03  0.41667996555E+03  0.00000000000E+00 0. -1.
          1   -1    0    0  501    0 -0.00000000000E+00 -0.00000000000E+00 -0.51568797890E+03  0.51568797890E+03  0.00000000000E+00 0. -1.
         25    2    1    2    0    0 -0.12766586175E+03 -0.83890404415E+02 -0.53001883749E+02  0.20436346199E+03  0.12497620857E+03 0.  0.
          2    1    1    2  501    0  0.36743188509E+02 -0.79950631803E+02 -0.35548900808E+03  0.36621660298E+03  0.00000000000E+00 0. -1.
          1    1    1    2  502    0  0.90922673241E+02  0.16384103622E+03  0.30948287849E+03  0.36178787948E+03  0.00000000000E+00 0. -1.
         22    1    3    3    0    0 -0.22452893266E+02  0.13087505364E+02 -0.55466517525E+02  0.61253161380E+02  0.00000000000E+00 0.  1.
         22    1    3    3    0    0 -0.10521296848E+03 -0.96977909780E+02  0.24646337754E+01  0.14311030062E+03  0.00000000000E+00 0.  1.
</event>
<event>
 7    1  0.6597701E-006  0.1774811E+03  0.7818608E-02  0.1395405E+00
          2   -1    0    0  502    0  0.00000000000E+00  0.00000000000E+00  0.15813044937E+04  0.15813044937E+04  0.00000000000E+00 0. -1.
          1   -1    0    0  501    0 -0.00000000000E+00 -0.00000000000E+00 -0.41330674090E+03  0.41330674090E+03  0.00000000000E+00 0. -1.
         25    2    1    2    0    0 -0.19508719543E+03 -0.17422276526E+02  0.29562106696E+03  0.37600335584E+03  0.12499663528E+03 0.  0.
          2    1    1    2  501    0  0.17495280367E+03  0.22138490306E+02 -0.35218631687E+03  0.39387028074E+03  0.00000000000E+00 0. -1.
          1    1    1    2  502    0  0.20134391765E+02 -0.47162137804E+01  0.12245630027E+04  0.12247375980E+04  0.00000000000E+00 0. -1.
         22    1    3    3    0    0 -0.11800753658E+03  0.49363004866E+02  0.13709082504E+03  0.18750034466E+03  0.00000000000E+00 0.  1.
         22    1    3    3    0    0 -0.77079658858E+02 -0.66785281391E+02  0.15853024192E+03  0.18850301117E+03  0.00000000000E+00 0.  1.
</event>
<event>
 7    1  0.6597701E-006  0.5349620E+02  0.7818608E-02  0.1433986E+00
          2   -1    0    0  502    0  0.00000000000E+00  0.00000000000E+00  0.10367644579E+04  0.10367644579E+04  0.00000000000E+00 0. -1.
          1   -1    0    0  501    0 -0.00000000000E+00 -0.00000000000E+00 -0.71755470928E+03  0.71755470928E+03  0.00000000000E+00 0. -1.
         25    2    1    2    0    0  0.14073657806E+02 -0.10853136693E+02  0.67517164430E+03  0.68687569358E+03  0.12500244300E+03 0.  0.
          2    1    1    2  501    0  0.36468028230E+02 -0.39139837237E+02 -0.70713065783E+03  0.70915133165E+03  0.00000000000E+00 0. -1.
          1    1    1    2  502    0 -0.50541686036E+02  0.49992973930E+02  0.35116876219E+03  0.35829214198E+03  0.00000000000E+00 0. -1.
         22    1    3    3    0    0  0.30312617447E+02  0.35672691444E+02  0.55530827980E+03  0.55727792106E+03  0.00000000000E+00 0. -1.
         22    1    3    3    0    0 -0.16238959641E+02 -0.46525828137E+02  0.11986336450E+03  0.12959777253E+03  0.00000000000E+00 0. -1.
</event>
<event>
 7    1  0.6597701E-006  0.2061305E+03  0.7818608E-02  0.1323418E+00
          2   -1    0    0  502    0  0.00000000000E+00  0.00000000000E+00  0.11477381133E+04  0.11477381133E+04  0.00000000000E+00 0. -1.
          1   -1    0    0  501    0 -0.00000000000E+00 -0.00000000000E+00 -0.55086933862E+03  0.55086933862E+03  0.00000000000E+00 0. -1.
         25    2    1    2    0    0 -0.17906189873E+03 -0.33612201632E+02  0.25976589670E+03  0.34102213677E+03  0.12499933201E+03 0.  0.
          2    1    1    2  501    0 -0.29942126079E+02 -0.12981611533E+02 -0.49616795040E+03  0.49724007095E+03  0.00000000000E+00 0. -1.
          1    1    1    2  502    0  0.20900402481E+03  0.46593813164E+02  0.83327082841E+03  0.86034524424E+03  0.00000000000E+00 0. -1.
         22    1    3    3    0    0 -0.16808746808E+03  0.11506734890E+02  0.16668269820E+03  0.23699983914E+03  0.00000000000E+00 0. -1.
         22    1    3    3    0    0 -0.10974430652E+02 -0.45118936521E+02  0.93083198500E+02  0.10402229763E+03  0.00000000000E+00 0. -1.
</event>
<event>
 7    1  0.6597701E-006  0.1277357E+03  0.7818608E-02  0.1281181E+00
          2   -1    0    0  502    0  0.00000000000E+00  0.00000000000E+00  0.42685846529E+03  0.42685846529E+03  0.00000000000E+00 0. -1.
          1   -1    0    0  501    0 -0.00000000000E+00 -0.00000000000E+00 -0.79239095006E+03  0.79239095006E+03  0.00000000000E+00 0. -1.
         25    2    1    2    0    0  0.16167090200E+03 -0.11261039965E+03 -0.45382778430E+02  0.23770289453E+03  0.12499794729E+03 0.  0.
          2    1    1    2  501    0 -0.52804913857E+02  0.56904908152E+02 -0.63710534639E+03  0.64181753630E+03  0.00000000000E+00 0. -1.
          1    1    1    2  502    0 -0.10886598815E+03  0.55705491498E+02  0.31695564005E+03  0.33972898451E+03  0.00000000000E+00 0. -1.
         22    1    3    3    0    0  0.21590427070E-01 -0.27854834507E+02  0.29359842507E+02  0.40470886124E+02  0.00000000000E+00 0.  1.
         22    1    3    3    0    0  0.16164931158E+03 -0.84755565143E+02 -0.74742620938E+02  0.19723200841E+03  0.00000000000E+00 0.  1.
</event>
<event>
 7    1  0.6597701E-006  0.4111069E+02  0.7818608E-02  0.1542301E+00
          2   -1    0    0  502    0  0.00000000000E+00  0.00000000000E+00  0.83781788740E+02  0.83781788740E+02  0.00000000000E+00 0. -1.
          1   -1    0    0  501    0 -0.00000000000E+00 -0.00000000000E+00 -0.72574421331E+03  0.72574421331E+03  0.00000000000E+00 0. -1.
         25    2    1    2    0    0  0.58800325320E+02  0.18040012958E+02 -0.69003155461E+02  0.15546712211E+03  0.12500268105E+03 0.  0.
          2    1    1    2  501    0 -0.40305083557E+02  0.68826164128E+01 -0.60678007663E+03  0.60815617366E+03  0.00000000000E+00 0. -1.
          1    1    1    2  502    0 -0.18495241764E+02 -0.24922629371E+02  0.33820807517E+02  0.45902706279E+02  0.00000000000E+00 0. -1.
         22    1    3    3    0    0 -0.22388410418E+01  0.48431917987E+02  0.11639126787E+02  0.49861130768E+02  0.00000000000E+00 0.  1.
         22    1    3    3    0    0  0.61039166362E+02 -0.30391905029E+02 -0.80642282248E+02  0.10560599134E+03  0.00000000000E+00 0.  1.
</event>
<event>
 7    1  0.6597701E-006  0.8869218E+02  0.7818608E-02  0.1409917E+00
          2   -1    0    0  502    0  0.00000000000E+00  0.00000000000E+00  0.51325646204E+03  0.51325646204E+03  0.00000000000E+00 0. -1.
          1   -1    0    0  501    0 -0.00000000000E+00 -0.00000000000E+00 -0.27486842616E+03  0.27486842616E+03  0.00000000000E+00 0. -1.
         25    2    1    2    0    0  0.11946094653E+03 -0.11114744919E+02 -0.12527130190E+02  0.17371572735E+03  0.12500307851E+03 0.  0.
          2    1    1    2  501    0 -0.35118669068E+02 -0.11345441756E+02 -0.17540525612E+03  0.17924576380E+03  0.00000000000E+00 0. -1.
          1    1    1    2  502    0 -0.84342277460E+02  0.22460186676E+02  0.42632042219E+03  0.43516339704E+03  0.00000000000E+00 0. -1.
         22    1    3    3    0    0  0.14050999397E+03 -0.14155148949E+02  0.11427085340E+02  0.14168276157E+03  0.00000000000E+00 0.  1.
         22    1    3    3    0    0 -0.21049047441E+02  0.30404040293E+01 -0.23954215530E+02  0.32032965777E+02  0.00000000000E+00 0.  1.
</event>
<event>
 7    1  0.6597701E-006  0.1160886E+03  0.7818608E-02  0.1366801E+00
          2   -1    0    0  502    0  0.00000000000E+00  0.00000000000E+00  0.16466873583E+03  0.16466873583E+03  0.00000000000E+00 0. -1.
          1   -1    0    0  501    0 -0.00000000000E+00 -0.00000000000E+00 -0.15493412576E+04  0.15493412576E+04  0.00000000000E+00 0. -1.
         25    2    1    2    0    0  0.37309260913E+02  0.14481923957E+03 -0.15789486473E+03  0.25084446729E+03  0.12501026104E+03 0.  0.
          2    1    1    2  501    0  0.13530534634E+01 -0.39884277077E+02 -0.13181493091E+04  0.13187532701E+04  0.00000000000E+00 0. -1.
          1    1    1    2  502    0 -0.38662314377E+02 -0.10493496249E+03  0.91371652031E+02  0.14441225606E+03  0.00000000000E+00 0. -1.
         22    1    3    3    0    0  0.41188526503E+02  0.16719948627E+03 -0.13899138102E+03  0.22129339557E+03  0.00000000000E+00 0. -1.
         22    1    3    3    0    0 -0.38792655896E+01 -0.22380246701E+02 -0.18903483709E+02  0.29551071728E+02  0.00000000000E+00 0. -1.
</event>
<event>
 7    1  0.6597701E-006  0.9960786E+02  0.7818608E-02  0.1326184E+00
          2   -1    0    0  502    0  0.00000000000E+00  0.00000000000E+00  0.18418622794E+03  0.18418622794E+03  0.00000000000E+00 0. -1.
          1   -1    0    0  501    0 -0.00000000000E+00 -0.00000000000E+00 -0.82604864853E+03  0.82604864853E+03  0.00000000000E+00 0. -1.
         25    2    1    2    0    0  0.12240461536E+03 -0.10436131301E+03 -0.18016280896E+03  0.27195278176E+03  0.12500201703E+03 0.  0.
          2    1    1    2  501    0 -0.47726255558E+02  0.45441352696E+02 -0.58154927634E+03  0.58527111053E+03  0.00000000000E+00 0. -1.
          1    1    1    2  502    0 -0.74678359803E+02  0.58919960315E+02  0.11984966472E+03  0.15301098418E+03  0.00000000000E+00 0. -1.
         22    1    3    3    0    0  0.72628137738E+00 -0.77959860678E+02 -0.84218762286E+02  0.11476527037E+03  0.00000000000E+00 0. -1.
         22    1    3    3    0    0  0.12167833398E+03 -0.26401452333E+02 -0.95944046676E+02  0.15718751140E+03  0.00000000000E+00 0. -1.
</event>
<event>
 7    1  0.6597701E-006  0.2263674E+02  0.7818608E-02  0.1709070E+00
          2   -1    0    0  502    0  0.00000000000E+00  0.00000000000E+00  0.84262627067E+03  0.84262627067E+03  0.00000000000E+00 0. -1.
          1   -1    0    0  501    0 -0.00000000000E+00 -0.00000000000E+00 -0.32402098408E+03  0.32402098408E+03  0.00000000000E+00 0. -1.
         25    2    1    2    0    0  0.16521023737E+00  0.43395027874E+02 -0.67919790368E+02  0.14873096228E+03  0.12499858191E+03 0.  0.
          2    1    1    2  501    0  0.21831664437E+01 -0.22235500966E+02 -0.21497530651E+03  0.21613321385E+03  0.00000000000E+00 0. -1.
          1    1    1    2  502    0 -0.23483766811E+01 -0.21159526909E+02  0.80150038347E+03  0.80178307862E+03  0.00000000000E+00 0. -1.
         22    1    3    3    0    0 -0.20866427402E+02 -0.30351938433E+02  0.11246925246E+02  0.38511573412E+02  0.00000000000E+00 0. -1.
         22    1    3    3    0    0  0.21031637639E+02  0.73746966308E+02 -0.79166715614E+02  0.11021938887E+03  0.00000000000E+00 0. -1.
</event>
<event>
 7    1  0.6597701E-006  0.1241045E+03  0.7818608E-02  0.1247209E+00
          2   -1    0    0  502    0  0.00000000000E+00  0.00000000000E+00  0.16080152455E+04  0.16080152455E+04  0.00000000000E+00 0. -1.
          1   -1    0    0  501    0 -0.00000000000E+00 -0.00000000000E+00 -0.30481940097E+03  0.30481940097E+03  0.00000000000E+00 0. -1.
         25    2    1    2    0    0 -0.16476022619E+03  0.10713693836E+03  0.38404633287E+03  0.44915570662E+03  0.12500002924E+03 0.  0.
          2    1    1    2  501    0  0.45318082174E+02 -0.10168391190E+03 -0.25772772602E+03  0.28074352579E+03  0.00000000000E+00 0. -1.
          1    1    1    2  502    0  0.11944214401E+03 -0.54530264521E+01  0.11768772376E+04  0.11829354140E+04  0.00000000000E+00 0. -1.
         22    1    3    3    0    0 -0.13226623034E+03  0.29173084555E+02  0.30390580169E+03  0.33272234799E+03  0.00000000000E+00 0.  1.
         22    1    3    3    0    0 -0.32493995849E+02  0.77963853801E+02  0.80140531177E+02  0.11643335864E+03  0.00000000000E+00 0.  1.
</event>
<event>
 7    1  0.6597701E-006  0.7963727E+02  0.7818608E-02  0.1367152E+00
          2   -1    0    0  502    0  0.00000000000E+00  0.00000000000E+00  0.25141307211E+03  0.25141307211E+03  0.00000000000E+00 0. -1.
          1   -1    0    0  501    0 -0.00000000000E+00 -0.00000000000E+00 -0.31633904800E+03  0.31633904800E+03  0.00000000000E+00 0. -1.
         25    2    1    2    0    0 -0.20768797320E+02  0.75211216669E+01  0.10768627670E+03  0.16644675164E+03  0.12498110549E+03 0.  0.
          2    1    1    2  501    0  0.16051726182E+02  0.78002797191E+02 -0.26417916556E+03  0.27592159357E+03  0.00000000000E+00 0. -1.
          1    1    1    2  502    0  0.47170711384E+01 -0.85523918858E+02  0.91566912975E+02  0.12538377490E+03  0.00000000000E+00 0. -1.
         22    1    3    3    0    0 -0.40522135694E+02 -0.39871561766E+02  0.99300523726E+02  0.11442193379E+03  0.00000000000E+00 0.  1.
         22    1    3    3    0    0  0.19753338374E+02  0.47392683433E+02  0.83857529690E+01  0.52024817854E+02  0.00000000000E+00 0.  1.
</event>
<event>
 7    1  0.6597701E-006  0.1495600E+03  0.7818608E-02  0.1349218E+00
          2   -1    0    0  502    0  0.00000000000E+00  0.00000000000E+00  0.10507755789E+04  0.10507755789E+04  0.00000000000E+00 0. -1.
          1   -1    0    0  501    0 -0.00000000000E+00 -0.00000000000E+00 -0.58392113638E+03  0.58392113638E+03  0.00000000000E+00 0. -1.
         25    2    1    2    0    0  0.10287270305E+03  0.15344168560E+03 -0.22630798280E+03  0.31775450323E+03  0.12500190931E+03 0.  0.
          2    1    1    2  501    0 -0.18790462878E+02 -0.30618393057E+02 -0.30532000897E+03  0.30742621125E+03  0.00000000000E+00 0. -1.
          1    1    1    2  502    0 -0.84082240173E+02 -0.12282329254E+03  0.99848243431E+03  0.10095160008E+04  0.00000000000E+00 0. -1.
         22    1    3    3    0    0  0.85374062335E+02  0.37929775018E+02 -0.49201496564E+02  0.10558496871E+03  0.00000000000E+00 0. -1.
         22    1    3    3    0    0  0.17498640715E+02  0.11551191058E+03 -0.17710648624E+03  0.21216953452E+03  0.00000000000E+00 0. -1.
</event>
<event>
 7    1  0.6597701E-006  0.1282652E+03  0.7818608E-02  0.1290176E+00
          2   -1    0    0  502    0  0.00000000000E+00  0.00000000000E+00  0.10544799749E+04  0.10544799749E+04  0.00000000000E+00 0. -1.
          1   -1    0    0  501    0 -0.00000000000E+00 -0.00000000000E+00 -0.22964001555E+03  0.22964001555E+03  0.00000000000E+00 0. -1.
         25    2    1    2    0    0 -0.59667161751E+02  0.17239066703E+03  0.45758755435E+03  0.50822165209E+03  0.12499666192E+03 0.  0.
          2    1    1    2  501    0  0.34147998275E+01 -0.70941282967E+02 -0.19201396487E+03  0.20472833021E+03  0.00000000000E+00 0. -1.
          1    1    1    2  502    0  0.56252361923E+02 -0.10144938406E+03  0.55926636987E+03  0.57117000816E+03  0.00000000000E+00 0. -1.
         22    1    3    3    0    0  0.10378033661E+02  0.12637345724E+03  0.19514411405E+03  0.23272124854E+03  0.00000000000E+00 0. -1.
         22    1    3    3    0    0 -0.70045195412E+02  0.46017209791E+02  0.26244344030E+03  0.27550040354E+03  0.00000000000E+00 0. -1.
</event>
<event>
 7    1  0.6597701E-006  0.1419455E+03  0.7818608E-02  0.1351069E+00
          2   -1    0    0  502    0  0.00000000000E+00  0.00000000000E+00  0.91976525332E+03  0.91976525332E+03  0.00000000000E+00 0. -1.
          1   -1    0    0  501    0 -0.00000000000E+00 -0.00000000000E+00 -0.10801930222E+03  0.10801930222E+03  0.00000000000E+00 0. -1.
         25    2    1    2    0    0  0.17455381457E+03  0.70813834799E+01  0.13457477935E+03  0.25348706724E+03  0.12500456731E+03 0.  0.
          2    1    1    2  501    0 -0.36264902239E+02 -0.85486036733E+01 -0.33615378372E+02  0.50181823624E+02  0.00000000000E+00 0. -1.
          1    1    1    2  502    0 -0.13828891233E+03  0.14672201934E+01  0.71078655012E+03  0.72411566468E+03  0.00000000000E+00 0. -1.
         22    1    3    3    0    0  0.64861457057E+02 -0.54263785353E+02  0.80198091781E+02  0.11654741927E+03  0.00000000000E+00 0.  1.
         22    1    3    3    0    0  0.10969235751E+03  0.61345168833E+02  0.54376687572E+02  0.13693964798E+03  0.00000000000E+00 0.  1.
</event>
<event>
 7    1  0.6597701E-006  0.6288133E+02  0.7818608E-02  0.1391618E+00
          2   -1    0    0  502    0  0.00000000000E+00  0.00000000000E+00  0.19115015405E+04  0.19115015405E+04  0.00000000000E+00 0. -1.
          1   -1    0    0  501    0 -0.00000000000E+00 -0.00000000000E+00 -0.54879169939E+03  0.54879169939E+03  0.00000000000E+00 0. -1.
         25    2    1    2    0    0 -0.14945781277E+02  0.11581615816E+03  0.31132606198E+03  0.35522597834E+03  0.12499927981E+03 0.  0.
          2    1    1    2  501    0  0.24351158154E+02 -0.55012080702E+02 -0.52452201266E+03  0.52796084106E+03  0.00000000000E+00 0. -1.
          1    1    1    2  502    0 -0.94053768774E+01 -0.60804077459E+02  0.15759057918E+04  0.15771064205E+04  0.00000000000E+00 0. -1.
         22    1    3    3    0    0 -0.28732305712E+02  0.49969606049E+02  0.28111305258E+02  0.64130744605E+02  0.00000000000E+00 0.  1.
         22    1    3    3    0    0  0.13786524435E+02  0.65846552112E+02  0.28321475672E+03  0.29109523374E+03  0.00000000000E+00 0.  1.
</event>
<event>
 7    1  0.6597701E-006  0.3091066E+02  0.7818608E-02  0.1606278E+00
          2   -1    0    0  502    0  0.00000000000E+00  0.00000000000E+00  0.65257690760E+02  0.65257690760E+02  0.00000000000E+00 0. -1.
          1   -1    0    0  501    0 -0.00000000000E+00 -0.00000000000E+00 -0.90429003810E+03  0.90429003810E+03  0.00000000000E+00 0. -1.
         25    2    1    2    0    0 -0.18235365907E+02  0.11235451481E+02 -0.12949327978E+03  0.18126438079E+03  0.12501800788E+03 0.  0.
          2    1    1    2  501    0 -0.10493471018E+01 -0.31148007255E+02 -0.74366489372E+03  0.74431765640E+03  0.00000000000E+00 0. -1.
          1    1    1    2  502    0  0.19284713009E+02  0.19912555774E+02  0.34125826156E+02  0.43965691671E+02  0.00000000000E+00 0. -1.
         22    1    3    3    0    0 -0.13705437939E+02 -0.45829888868E+02 -0.11138733840E+03  0.12122440719E+03  0.00000000000E+00 0. -1.
         22    1    3    3    0    0 -0.45299279687E+01  0.57065340349E+02 -0.18105941382E+02  0.60039973600E+02  0.00000000000E+00 0. -1.
</event>
<event>
 7    1  0.6597701E-006  0.4652706E+02  0.7818608E-02  0.1547965E+00
          2   -1    0    0  502    0  0.00000000000E+00  0.00000000000E+00  0.94872650891E+03  0.94872650891E+03  0.00000000000E+00 0. -1.
          1   -1    0    0  501    0 -0.00000000000E+00 -0.00000000000E+00 -0.54670441808E+03  0.54670441808E+03  0.00000000000E+00 0. -1.
         25    2    1    2    0    0  0.44366512948E+02 -0.54430180092E+02  0.39896732963E+02  0.14881672588E+03  0.12499454638E+03 0.  0.
          2    1    1    2  501    0 -0.22702850189E+02  0.13545333403E+02 -0.49126230344E+03  0.49197311537E+03  0.00000000000E+00 0. -1.
          1    1    1    2  502    0 -0.21663662759E+02  0.40884846689E+02  0.85338766131E+03  0.85464108575E+03  0.00000000000E+00 0. -1.
         22    1    3    3    0    0 -0.31359058819E+02  0.84781679889E+01  0.38481281211E+02  0.50359496682E+02  0.00000000000E+00 0. -1.
         22    1    3    3    0    0  0.75725571767E+02 -0.62908348081E+02  0.14154517524E+01  0.98457229198E+02  0.00000000000E+00 0. -1.
</event>
<event>
 7    1  0.6597701E-006  0.5820257E+02  0.7818608E-02  0.1503661E+00
          2   -1    0    0  502    0  0.00000000000E+00  0.00000000000E+00  0.20327975019E+04  0.20327975019E+04  0.00000000000E+00 0. -1.
          1   -1    0    0  501    0 -0.00000000000E+00 -0.00000000000E+00 -0.61500852708E+02  0.61500852708E+02  0.00000000000E+00 0. -1.
         25    2    1    2    0    0 -0.53116331043E+02  0.62586859048E+02  0.50056227224E+03  0.52242318731E+03  0.12499975479E+03 0.  0.
          2    1    1    2  501    0  0.83929913452E+01 -0.27085665477E+02 -0.46015455211E+02  0.54050880625E+02  0.00000000000E+00 0. -1.
          1    1    1    2  502    0  0.44723339697E+02 -0.35501193571E+02  0.15167498322E+04  0.15178242867E+04  0.00000000000E+00 0. -1.
         22    1    3    3    0    0  0.16014024928E+02 -0.20206989947E+02  0.29541486656E+02  0.39210596412E+02  0.00000000000E+00 0.  1.
         22    1    3    3    0    0 -0.69130355971E+02  0.82793848995E+02  0.47102078558E+03  0.48321259090E+03  0.00000000000E+00 0.  1.
</event>
<event>
 7    1  0.6597701E-006  0.1420820E+03  0.7818608E-02  0.1411412E+00
          2   -1    0    0  502    0  0.00000000000E+00  0.00000000000E+00  0.13916534639E+04  0.13916534639E+04  0.00000000000E+00 0. -1.
          1   -1    0    0  501    0 -0.00000000000E+00 -0.00000000000E+00 -0.53498053448E+03  0.53498053448E+03  0.00000000000E+00 0. -1.
         25    2    1    2    0    0 -0.17189830175E+02  0.12766917878E+03  0.14873168232E+03  0.23311449104E+03  0.12500537243E+03 0.  0.
          2    1    1    2  501    0  0.37567294609E+02 -0.13783153831E+03 -0.48232420807E+03  0.50303625741E+03  0.00000000000E+00 0. -1.
          1    1    1    2  502    0 -0.20377464433E+02  0.10162359528E+02  0.11902654552E+04  0.11904832500E+04  0.00000000000E+00 0. -1.
         22    1    3    3    0    0 -0.66677855703E+02  0.10250032233E+03  0.86893219590E+02  0.15000894683E+03  0.00000000000E+00 0. -1.
         22    1    3    3    0    0  0.49488025527E+02  0.25168856453E+02  0.61838462726E+02  0.83105544208E+02  0.00000000000E+00 0. -1.
</event>
<event>
 7    1  0.1047758E-005  0.1147021E+03  0.7818608E-02  0.1303826E+00
          2   -1    0    0  502    0  0.00000000000E+00  0.00000000000E+00  0.29332132993E+04  0.29332132993E+04  0.00000000000E+00 0. -1.
          1   -1    0    0  501    0 -0.00000000000E+00 -0.00000000000E+00 -0.11215339405E+04  0.11215339405E+04  0.00000000000E+00 0. -1.
         25    2    1    2    0    0 -0.80998726930E+02  0.33448124460E+02 -0.56433622702E+03  0.58461907348E+03  0.12499805265E+03 0.  0.
          2    1    1    2  501    0  0.10313188807E+03 -0.99845847527E+02 -0.53721226005E+03  0.55605970179E+03  0.00000000000E+00 0. -1.
          1    1    1    2  502    0 -0.22133161137E+02  0.66397723067E+02  0.29132278459E+04  0.29140684646E+04  0.00000000000E+00 0. -1.
         22    1    3    3    0    0  0.20487349277E+02  0.16710626026E+02 -0.29706455891E+03  0.29823871087E+03  0.00000000000E+00 0.  1.
         22    1    3    3    0    0 -0.10148607621E+03  0.16737498434E+02 -0.26727166811E+03  0.28638036261E+03  0.00000000000E+00 0.  1.
</event>
<event>
 7    1  0.6597701E-006  0.3573797E+02  0.7818608E-02  0.1569984E+00
          2   -1    0    0  502    0  0.00000000000E+00  0.00000000000E+00  0.12664012610E+04  0.12664012610E+04  0.00000000000E+00 0. -1.
          1   -1    0    0  501    0 -0.00000000000E+00 -0.00000000000E+00 -0.24431908622E+03  0.24431908622E+03  0.00000000000E+00 0. -1.
         25    2    1    2    0    0  0.15466484535E+02 -0.15419986657E+02 -0.11201985404E+03  0.16925828931E+03  0.12499173040E+03 0.  0.
          2    1    1    2  501    0 -0.22575717612E+02 -0.19648258376E+02 -0.10125574807E+03  0.10558619039E+03  0.00000000000E+00 0. -1.
          1    1    1    2  502    0  0.71092330773E+01  0.35068245032E+02  0.12353577769E+04  0.12358758675E+04  0.00000000000E+00 0. -1.
         22    1    3    3    0    0 -0.45038132707E+01 -0.48703140096E+02  0.18590448880E+01  0.48946258663E+02  0.00000000000E+00 0.  1.
         22    1    3    3    0    0  0.19970297806E+02  0.33283153439E+02 -0.11387889893E+03  0.12031203065E+03  0.00000000000E+00 0.  1.
</event>
<event>
 7    1  0.6597701E-006  0.5513937E+02  0.7818608E-02  0.1420836E+00
          2   -1    0    0  502    0  0.00000000000E+00  0.00000000000E+00  0.69445329775E+03  0.69445329775E+03  0.00000000000E+00 0. -1.
          1   -1    0    0  501    0 -0.00000000000E+00 -0.00000000000E+00 -0.41439886564E+02  0.41439886564E+02  0.00000000000E+00 0. -1.
         25    2    1    2    0    0  0.42980637682E+02 -0.24394691482E+01  0.49397374140E+03  0.51135934431E+03  0.12500014241E+03 0.  0.
          2    1    1    2  501    0  0.44640792964E+02  0.32365873178E+02  0.10152928796E+03  0.11553590982E+03  0.00000000000E+00 0. -1.
          1    1    1    2  502    0 -0.87621430646E+02 -0.29926404029E+02  0.57510381831E+02  0.10899793019E+03  0.00000000000E+00 0. -1.
         22    1    3    3    0    0  0.22819003267E+02  0.41636636889E+02  0.42153840526E+03  0.42420389384E+03  0.00000000000E+00 0. -1.
         22    1    3    3    0    0  0.20161634414E+02 -0.44076106037E+02  0.72435336136E+02  0.87155450471E+02  0.00000000000E+00 0. -1.
</event>
<event>
 7    1  0.6597701E-006  0.1943259E+03  0.7818608E-02  0.1272559E+00
          2   -1    0    0  502    0  0.00000000000E+00  0.00000000000E+00  0.39794532449E+03  0.39794532449E+03  0.00000000000E+00 0. -1.
          1   -1    0    0  501    0 -0.00000000000E+00 -0.00000000000E+00 -0.11864807089E+04  0.11864807089E+04  0.00000000000E+00 0. -1.
         25    2    1    2    0    0 -0.19956969695E+03  0.39647433672E+02 -0.16598584229E+02  0.23938674595E+03  0.12502207085E+03 0.  0.
          2    1    1    2  501    0  0.17294816717E+03 -0.88248602588E+02 -0.10467955427E+04  0.10646500798E+04  0.00000000000E+00 0. -1.
          1    1    1    2  502    0  0.26621529777E+02  0.48601168915E+02  0.27485874243E+03  0.28038920764E+03  0.00000000000E+00 0. -1.
         22    1    3    3    0    0 -0.20725110786E+03  0.18138666135E+02  0.47866741152E+01  0.20809840261E+03  0.00000000000E+00 0. -1.
         22    1    3    3    0    0  0.76814109112E+01  0.21508767537E+02 -0.21385258344E+02  0.31288343341E+02  0.00000000000E+00 0. -1.
</event>
<event>
 7    1  0.6597701E-006  0.1313147E+03  0.7818608E-02  0.1304385E+00
          2   -1    0    0  502    0  0.00000000000E+00  0.00000000000E+00  0.17407157631E+04  0.17407157631E+04  0.00000000000E+00 0. -1.
          1   -1    0    0  501    0 -0.00000000000E+00 -0.00000000000E+00 -0.48335144566E+03  0.48335144566E+03  0.00000000000E+00 0. -1.
         25    2    1    2    0    0 -0.17913146657E+03 -0.55557752929E+02  0.65187300155E+03  0.68973841148E+03  0.12500367952E+03 0.  0.
          2    1    1    2  501    0  0.12880019853E+03  0.21408039888E+02 -0.45435260587E+03  0.47274103458E+03  0.00000000000E+00 0. -1.
          1    1    1    2  502    0  0.50331268041E+02  0.34149713040E+02  0.10598439217E+04  0.10615877627E+04  0.00000000000E+00 0. -1.
         22    1    3    3    0    0  0.60098172807E+01 -0.69571598930E+01 -0.11266130664E+01  0.92622478117E+01  0.00000000000E+00 0. -1.
         22    1    3    3    0    0 -0.18514128385E+03 -0.48600593036E+02  0.65299961461E+03  0.68047616366E+03  0.00000000000E+00 0. -1.
</event>
<event>
 7    1  0.6597701E-006  0.2177159E+03  0.7818608E-02  0.1291798E+00
          2   -1    0    0  502    0  0.00000000000E+00  0.00000000000E+00  0.11345439908E+04  0.11345439908E+04  0.00000000000E+00 0. -1.
          1   -1    0    0  501    0 -0.00000000000E+00 -0.00000000000E+00 -0.82171541267E+03  0.82171541267E+03  0.00000000000E+00 0. -1.
         25    2    1    2    0    0 -0.14806609254E+03  0.16431007754E+03 -0.15067055877E+03  0.29537531556E+03  0.12499436156E+03 0.  0.
          2    1    1    2  501    0  0.35001194360E+02  0.21758139411E+02 -0.58680477806E+03  0.58825024249E+03  0.00000000000E+00 0. -1.
          1    1    1    2  502    0  0.11306489818E+03 -0.18606821695E+03  0.10503039150E+04  0.10726338455E+04  0.00000000000E+00 0. -1.
         22    1    3    3    0    0 -0.10536784231E+03  0.12878781154E+03 -0.39381368818E+02  0.17099583271E+03  0.00000000000E+00 0.  1.
         22    1    3    3    0    0 -0.42698250225E+02  0.35522266005E+02 -0.11128918995E+03  0.12437948285E+03  0.00000000000E+00 0.  1.
</event>
<event>
 7    1  0.6597701E-006  0.1775950E+03  0.7818608E-02  0.1208883E+00
          2   -1    0    0  502    0  0.00000000000E+00  0.00000000000E+00  0.79015315573E+03  0.79015315573E+03  0.00000000000E+00 0. -1.
          1   -1    0    0  501    0 -0.00000000000E+00 -0.00000000000E+00 -0.11535816471E+03  0.11535816471E+03  0.00000000000E+00 0. -1.
         25    2    1    2    0    0 -0.72124066496E+02  0.14511254433E+03  0.33287506935E+03  0.39075889273E+03  0.12500867554E+03 0.  0.
          2    1    1    2  501    0 -0.35257487851E+02 -0.18823926316E+03  0.45925771839E+02  0.19694234477E+03  0.00000000000E+00 0. -1.
          1    1    1    2  502    0  0.10738155435E+03  0.43126718822E+02  0.29599414984E+03  0.31781008296E+03  0.00000000000E+00 0. -1.
         22    1    3    3    0    0 -0.48808811900E+02  0.10685112329E+03  0.32459116986E+03  0.34519398926E+03  0.00000000000E+00 0. -1.
         22    1    3    3    0    0 -0.23315254596E+02  0.38261421046E+02  0.82838994820E+01  0.45564903467E+02  0.00000000000E+00 0. -1.
</event>
<event>
 7    1  0.6597701E-006  0.3315354E+03  0.7818608E-02  0.1198736E+00
          2   -1    0    0  502    0  0.00000000000E+00  0.00000000000E+00  0.15721103625E+04  0.15721103625E+04  0.00000000000E+00 0. -1.
          1   -1    0    0  501    0 -0.00000000000E+00 -0.00000000000E+00 -0.52053163638E+03  0.52053163638E+03  0.00000000000E+00 0. -1.
         25    2    1    2    0    0  0.30547247617E+03  0.23720899699E+02  0.17020211105E+03  0.37211238629E+03  0.12499101826E+03 0.  0.
          2    1    1    2  501    0 -0.33690881406E+03  0.37881102982E+02 -0.34996016931E+03  0.48725213910E+03  0.00000000000E+00 0. -1.
          1    1    1    2  502    0  0.31436337890E+02 -0.61602002681E+02  0.12313367844E+04  0.12332774735E+04  0.00000000000E+00 0. -1.
         22    1    3    3    0    0  0.15747997589E+03  0.72960945854E+02  0.10653544021E+03  0.20364931241E+03  0.00000000000E+00 0. -1.
         22    1    3    3    0    0  0.14799250028E+03 -0.49240046155E+02  0.63666670841E+02  0.16846307388E+03  0.00000000000E+00 0. -1.
</event>
<event>
 7    1  0.6597701E-006  0.1033263E+03  0.7818608E-02  0.1469689E+00
          2   -1    0    0  502    0  0.00000000000E+00  0.00000000000E+00  0.12270712591E+04  0.12270712591E+04  0.00000000000E+00 0. -1.
          1   -1    0    0  501    0 -0.00000000000E+00 -0.00000000000E+00 -0.35557725362E+03  0.35557725362E+03  0.00000000000E+00 0. -1.
         25    2    1    2    0    0  0.13837478121E+02 -0.10695429594E+03 -0.14298548490E+03  0.21840401674E+03  0.12499907366E+03 0.  0.
          2    1    1    2  501    0 -0.19893366774E+02  0.38386386401E+01 -0.17204426236E+03  0.17323310711E+03  0.00000000000E+00 0. -1.
          1    1    1    2  502    0  0.60558886534E+01  0.10311565730E+03  0.11865237527E+04  0.11910113888E+04  0.00000000000E+00 0. -1.
         22    1    3    3    0    0  0.53966494773E+02 -0.19863132507E+02 -0.95309993304E+02  0.11131451574E+03  0.00000000000E+00 0. -1.
         22    1    3    3    0    0 -0.40129016652E+02 -0.87091163429E+02 -0.47675491599E+02  0.10708950100E+03  0.00000000000E+00 0. -1.
</event>
<event>
 7    1  0.6597701E-006  0.7902158E+02  0.7818608E-02  0.1442285E+00
          2   -1    0    0  502    0  0.00000000000E+00  0.00000000000E+00  0.96479632679E+03  0.96479632679E+03  0.00000000000E+00 0. -1.
          1   -1    0    0  501    0 -0.00000000000E+00 -0.00000000000E+00 -0.13802127362E+03  0.13802127362E+03  0.00000000000E+00 0. -1.
         25    2    1    2    0    0  0.38961297036E+02 -0.44641499958E+02  0.43488970899E+01  0.13839926999E+03  0.12499839536E+03 0.  0.
          2    1    1    2  501    0 -0.40338984573E+02  0.76976051530E+02 -0.43985366037E+02  0.97402559571E+02  0.00000000000E+00 0. -1.
          1    1    1    2  502    0  0.13776875366E+01 -0.32334551572E+02  0.86641152211E+03  0.86701577085E+03  0.00000000000E+00 0. -1.
         22    1    3    3    0    0 -0.45355325187E+02 -0.23846578899E+02  0.55989101904E+01  0.51547188510E+02  0.00000000000E+00 0. -1.
         22    1    3    3    0    0  0.84316622223E+02 -0.20794921059E+02 -0.12500131005E+01  0.86852081482E+02  0.00000000000E+00 0. -1.
</event>
<event>
 7    1  0.1430178E-005  0.1038792E+03  0.7818608E-02  0.1338870E+00
          2   -1    0    0  502    0  0.00000000000E+00  0.00000000000E+00  0.21435056099E+04  0.21435056099E+04  0.00000000000E+00 0. -1.
          1   -1    0    0  501    0 -0.00000000000E+00 -0.00000000000E+00 -0.55802753595E+03  0.55802753595E+03  0.00000000000E+00 0. -1.
         25    2    1    2    0    0 -0.32482568714E+02  0.11133499926E+03 -0.24414643367E+03  0.29779491048E+03  0.12499491310E+03 0.  0.
          2    1    1    2  501    0  0.55639948460E+02 -0.10057742115E+02 -0.28298368658E+03  0.28857707620E+03  0.00000000000E+00 0. -1.
          1    1    1    2  502    0 -0.23157379746E+02 -0.10127725715E+03  0.21126081942E+04  0.21151611592E+04  0.00000000000E+00 0. -1.
         22    1    3    3    0    0 -0.24377569021E+02 -0.12662255743E+02 -0.11633608732E+03  0.11953528267E+03  0.00000000000E+00 0. -1.
         22    1    3    3    0    0 -0.81049996927E+01  0.12399725501E+03 -0.12781034635E+03  0.17825962780E+03  0.00000000000E+00 0. -1.
</event>
<event>
 7    1  0.6597701E-006  0.3124546E+02  0.7818608E-02  0.1622438E+00
          2   -1    0    0  502    0  0.00000000000E+00  0.00000000000E+00  0.63703035691E+03  0.63703035691E+03  0.00000000000E+00 0. -1.
          1   -1    0    0  501    0 -0.00000000000E+00 -0.00000000000E+00 -0.15182656631E+04  0.15182656631E+04  0.00000000000E+00 0. -1.
         25    2    1    2    0    0 -0.31024649238E+02  0.73802726513E+01  0.10393824791E+03  0.16566300203E+03  0.12499629425E+03 0.  0.
          2    1    1    2  501    0  0.26182907347E+02  0.17071636569E+02 -0.14869296509E+04  0.14872581390E+04  0.00000000000E+00 0. -1.
          1    1    1    2  502    0  0.48417418909E+01 -0.24451909221E+02  0.50175609680E+03  0.50237487895E+03  0.00000000000E+00 0. -1.
         22    1    3    3    0    0 -0.99915217200E+01 -0.26860226107E+02 -0.20278992656E+02  0.35107546140E+02  0.00000000000E+00 0.  1.
         22    1    3    3    0    0 -0.21033127518E+02  0.34240498758E+02  0.12421724056E+03  0.13055545589E+03  0.00000000000E+00 0.  1.
</event>
<event>
 7    1  0.6597701E-006  0.1130276E+03  0.7818608E-02  0.1431314E+00
          2   -1    0    0  502    0  0.00000000000E+00  0.00000000000E+00  0.50779552755E+03  0.50779552755E+03  0.00000000000E+00 0. -1.
          1   -1    0    0  501    0 -0.00000000000E+00 -0.00000000000E+00 -0.10364018380E+03  0.10364018380E+03  0.00000000000E+00 0. -1.
         25    2    1    2    0    0 -0.97950786767E+02  0.78863472526E+01  0.68230894264E+02  0.17302326959E+03  0.12500018314E+03 0.  0.
          2    1    1    2  501    0  0.12203183804E+03 -0.30131130246E+01  0.22621258728E+02  0.12414737087E+03  0.00000000000E+00 0. -1.
          1    1    1    2  502    0 -0.24081051277E+02 -0.48732342281E+01  0.31330319077E+03  0.31426507090E+03  0.00000000000E+00 0. -1.
         22    1    3    3    0    0  0.85281328843E+01  0.42069658085E+02  0.18300933460E+01  0.42964338974E+02  0.00000000000E+00 0. -1.
         22    1    3    3    0    0 -0.10647891965E+03 -0.34183310832E+02  0.66400800918E+02  0.13005893061E+03  0.00000000000E+00 0. -1.
</event>
<event>
 7    1  0.6597701E-006  0.7393669E+02  0.7818608E-02  0.1469281E+00
          2   -1    0    0  502    0  0.00000000000E+00  0.00000000000E+00  0.11681504019E+04  0.11681504019E+04  0.00000000000E+00 0. -1.
          1   -1    0    0  501    0 -0.00000000000E+00 -0.00000000000E+00 -0.71024733765E+02  0.71024733765E+02  0.00000000000E+00 0. -1.
         25    2    1    2    0    0 -0.60924639279E+02 -0.55504882213E+02  0.52082922443E+03  0.54192282182E+03  0.12499864070E+03 0.  0.
          2    1    1    2  501    0 -0.65922702794E+01  0.27620859713E+02 -0.54917948996E+02  0.61825165108E+02  0.00000000000E+00 0. -1.
          1    1    1    2  502    0  0.67516909559E+02  0.27884022500E+02  0.63121439271E+03  0.63542714874E+03  0.00000000000E+00 0. -1.
         22    1    3    3    0    0 -0.26949112963E+02  0.19835342398E+02  0.32492351648E+02  0.46641702512E+02  0.00000000000E+00 0.  1.
         22    1    3    3    0    0 -0.33975526316E+02 -0.75340224611E+02  0.48833687278E+03  0.49528111931E+03  0.00000000000E+00 0.  1.
</event>
<event>
 7    1  0.6597701E-006  0.9371953E+02  0.7818608E-02  0.1353268E+00
          2   -1    0    0  502    0  0.00000000000E+00  0.00000000000E+00  0.50996659546E+03  0.50996659546E+03  0.00000000000E+00 0. -1.
          1   -1    0    0  501    0 -0.00000000000E+00 -0.00000000000E+00 -0.36727578519E+03  0.36727578519E+03  0.00000000000E+00 0. -1.
         25    2    1    2    0    0  0.57645215989E+01  0.50635651828E+02 -0.37933522448E+02  0.14021580486E+03  0.12499728342E+03 0.  0.
          2    1    1    2  501    0 -0.41025070733E+02 -0.93347299937E+02 -0.26709420525E+03  0.28589524185E+03  0.00000000000E+00 0. -1.
          1    1    1    2  502    0  0.35260549134E+02  0.42711648109E+02  0.44771853797E+03  0.45113133393E+03  0.00000000000E+00 0. -1.
         22    1    3    3    0    0  0.39776158856E+02  0.68384495040E+02 -0.56871658054E+02  0.97431860626E+02  0.00000000000E+00 0.  1.
         22    1    3    3    0    0 -0.34011637257E+02 -0.17748843212E+02  0.18938135607E+02  0.42783944237E+02  0.00000000000E+00 0.  1.
</event>
<event>
 7    1  0.6597701E-006  0.1141426E+03  0.7818608E-02  0.1346577E+00
          2   -1    0    0  502    0  0.00000000000E+00  0.00000000000E+00  0.67707383433E+03  0.67707383433E+03  0.00000000000E+00 0. -1.
          1   -1    0    0  501    0 -0.00000000000E+00 -0.00000000000E+00 -0.25586266942E+04  0.25586266942E+04  0.00000000000E+00 0. -1.
         25    2    1    2    0    0  0.87342334279E+02  0.11070337888E+03  0.86986053129E+02  0.20754759386E+03  0.12500203528E+03 0.  0.
          2    1    1    2  501    0  0.54467390303E+01 -0.47838825147E+02 -0.24921832749E+04  0.24926483297E+04  0.00000000000E+00 0. -1.
          1    1    1    2  502    0 -0.92789073310E+02 -0.62864553735E+02  0.52364436185E+03  0.53550460497E+03  0.00000000000E+00 0. -1.
         22    1    3    3    0    0  0.53725615845E+02  0.12172190782E+03  0.23844399041E+02  0.13517107681E+03  0.00000000000E+00 0. -1.
         22    1    3    3    0    0  0.33616718434E+02 -0.11018528939E+02  0.63141654088E+02  0.72376517042E+02  0.00000000000E+00 0. -1.
</event>
<event>
 7    1  0.6597701E-006  0.1099420E+03  0.7818608E-02  0.1311380E+00
          2   -1    0    0  502    0  0.00000000000E+00  0.00000000000E+00  0.11023186203E+04  0.11023186203E+04  0.00000000000E+00 0. -1.
          1   -1    0    0  501    0 -0.00000000000E+00 -0.00000000000E+00 -0.21008203430E+04  0.21008203430E+04  0.00000000000E+00 0. -1.
         25    2    1    2    0    0 -0.67358554187E+02  0.29198978891E+02  0.40535557210E+03  0.43049696542E+03  0.12499896882E+03 0.  0.
          2    1    1    2  501    0 -0.23278674522E+02  0.64066992160E+02 -0.20815083441E+04  0.20826241770E+04  0.00000000000E+00 0. -1.
          1    1    1    2  502    0  0.90637228708E+02 -0.93265971051E+02  0.67765104927E+03  0.69001782090E+03  0.00000000000E+00 0. -1.
         22    1    3    3    0    0  0.11073201739E+02  0.44775497224E+02  0.26480122567E+03  0.26878829971E+03  0.00000000000E+00 0. -1.
         22    1    3    3    0    0 -0.78431755925E+02 -0.15576518333E+02  0.14055434644E+03  0.16170866570E+03  0.00000000000E+00 0. -1.
</event>
<event>
 7    1  0.6597701E-006  0.2162309E+03  0.7818608E-02  0.1360620E+00
          2   -1    0    0  502    0  0.00000000000E+00  0.00000000000E+00  0.48096795483E+03  0.48096795483E+03  0.00000000000E+00 0. -1.
          1   -1    0    0  501    0 -0.00000000000E+00 -0.00000000000E+00 -0.12616497274E+04  0.12616497274E+04  0.00000000000E+00 0. -1.
         25    2    1    2    0    0  0.19451721043E+03  0.33145657195E+02 -0.46269530682E+03  0.51831218111E+03  0.12499996154E+03 0.  0.
          2    1    1    2  501    0  0.21228321735E+02 -0.76387607116E+01 -0.74492779157E+03  0.74526935196E+03  0.00000000000E+00 0. -1.
          1    1    1    2  502    0 -0.21574553217E+03 -0.25506896483E+02  0.42694132587E+03  0.47903614911E+03  0.00000000000E+00 0. -1.
         22    1    3    3    0    0  0.12879876518E+03  0.38951931626E+02 -0.41669951759E+03  0.43788681511E+03  0.00000000000E+00 0.  1.
         22    1    3    3    0    0  0.65718445249E+02 -0.58062744313E+01 -0.45995789237E+02  0.80425366000E+02  0.00000000000E+00 0.  1.
</event>
<event>
 7    1  0.6597701E-006  0.8575399E+02  0.7818608E-02  0.1375716E+00
          2   -1    0    0  502    0  0.00000000000E+00  0.00000000000E+00  0.35005694143E+04  0.35005694143E+04  0.00000000000E+00 0. -1.
          1   -1    0    0  501    0 -0.00000000000E+00 -0.00000000000E+00 -0.31233582456E+03  0.31233582456E+03  0.00000000000E+00 0. -1.
         25    2    1    2    0    0  0.32969949339E+02  0.11682287678E+03  0.19836744996E+03  0.26402426926E+03  0.12499826981E+03 0.  0.
          2    1    1    2  501    0 -0.49120648076E+02 -0.69304903859E+02 -0.27285574977E+03  0.28577310572E+03  0.00000000000E+00 0. -1.
          1    1    1    2  502    0  0.16150698737E+02 -0.47517972923E+02  0.32627218896E+04  0.32631078639E+04  0.00000000000E+00 0. -1.
         22    1    3    3    0    0 -0.19513820693E+02  0.99318998781E+02  0.66735643876E+02  0.12123819068E+03  0.00000000000E+00 0. -1.
         22    1    3    3    0    0  0.52483770032E+02  0.17503878000E+02  0.13163180609E+03  0.14278607858E+03  0.00000000000E+00 0. -1.
</event>
<event>
 7    1  0.6597701E-006  0.5602335E+02  0.7818608E-02  0.1433005E+00
          2   -1    0    0  502    0  0.00000000000E+00  0.00000000000E+00  0.23503271899E+04  0.23503271899E+04  0.00000000000E+00 0. -1.
          1   -1    0    0  501    0 -0.00000000000E+00 -0.00000000000E+00 -0.24437543911E+02  0.24437543911E+02  0.00000000000E+00 0. -1.
         25    2    1    2    0    0 -0.38937302621E+02 -0.29968305345E+02  0.20483886592E+03  0.24494194037E+03  0.12499352103E+03 0.  0.
          2    1    1    2  501    0  0.59591409630E+02 -0.22108783397E+02  0.25065615739E+03  0.25858933396E+03  0.00000000000E+00 0. -1.
          1    1    1    2  502    0 -0.20654107009E+02  0.52077088743E+02  0.18703946227E+04  0.18712334595E+04  0.00000000000E+00 0. -1.
         22    1    3    3    0    0  0.43477693113E+02 -0.21339133280E+02  0.51841371050E+02  0.70945022094E+02  0.00000000000E+00 0.  1.
         22    1    3    3    0    0 -0.82414995734E+02 -0.86291720652E+01  0.15299749487E+03  0.17399691828E+03  0.00000000000E+00 0.  1.
</event>
<event>
 7    1  0.6597701E-006  0.4586773E+02  0.7818608E-02  0.1475501E+00
          2   -1    0    0  502    0  0.00000000000E+00  0.00000000000E+00  0.42885615906E+02  0.42885615906E+02  0.00000000000E+00 0. -1.
          1   -1    0    0  501    0 -0.00000000000E+00 -0.00000000000E+00 -0.27249655083E+04  0.27249655083E+04  0.00000000000E+00 0. -1.
         25    2    1    2    0    0  0.12287356958E+02  0.10644660295E+02 -0.27424305663E+03  0.30183114674E+03  0.12501399561E+03 0.  0.
          2    1    1    2  501    0 -0.24260341461E+02  0.36450662610E+02 -0.24162986108E+04  0.24166953038E+04  0.00000000000E+00 0. -1.
          1    1    1    2  502    0  0.11972984503E+02 -0.47095322905E+02  0.84617750007E+01  0.49324673680E+02  0.00000000000E+00 0. -1.
         22    1    3    3    0    0 -0.26407721832E+02  0.33769067122E+02 -0.24355412355E+03  0.24729805653E+03  0.00000000000E+00 0. -1.
         22    1    3    3    0    0  0.38695078790E+02 -0.23124406827E+02 -0.30688933079E+02  0.54533090204E+02  0.00000000000E+00 0. -1.
</event>
<event>
 7    1  0.6597701E-006  0.5531318E+02  0.7818608E-02  0.1531821E+00
          2   -1    0    0  502    0  0.00000000000E+00  0.00000000000E+00  0.38551429391E+03  0.38551429391E+03  0.00000000000E+00 0. -1.
          1   -1    0    0  501    0 -0.00000000000E+00 -0.00000000000E+00 -0.71974376925E+03  0.71974376925E+03  0.00000000000E+00 0. -1.
         25    2    1    2    0    0 -0.76828210510E+02  0.15756767805E+02 -0.54454454289E+03  0.56418559689E+03  0.12500311553E+03 0.  0.
          2    1    1    2  501    0  0.24602544229E+02  0.22129928561E+01 -0.16240988151E+03  0.16427766778E+03  0.00000000000E+00 0. -1.
          1    1    1    2  502    0  0.52225666281E+02 -0.17969760661E+02  0.37272494906E+03  0.37679479849E+03  0.00000000000E+00 0. -1.
         22    1    3    3    0    0 -0.64198984090E+02  0.29234644632E+02 -0.11970030835E+03  0.13894005119E+03  0.00000000000E+00 0.  1.
         22    1    3    3    0    0 -0.12629226420E+02 -0.13477876827E+02 -0.42484423453E+03  0.42524554570E+03  0.00000000000E+00 0.  1.
</event>
<event>
 7    1  0.6597701E-006  0.9480055E+02  0.7818608E-02  0.1294511E+00
          2   -1    0    0  502    0  0.00000000000E+00  0.00000000000E+00  0.17120980510E+04  0.17120980510E+04  0.00000000000E+00 0. -1.
          1   -1    0    0  501    0 -0.00000000000E+00 -0.00000000000E+00 -0.14256805737E+04  0.14256805737E+04  0.00000000000E+00 0. -1.
         25    2    1    2    0    0 -0.52083144033E+01  0.26769265252E+02  0.66170379277E+02  0.14403876376E+03  0.12499970509E+03 0.  0.
          2    1    1    2  501    0  0.94548121590E+02  0.69135351135E+01 -0.13837049063E+04  0.13869485975E+04  0.00000000000E+00 0. -1.
          1    1    1    2  502    0 -0.89339807187E+02 -0.33682800365E+02  0.16039520044E+04  0.16067912635E+04  0.00000000000E+00 0. -1.
         22    1    3    3    0    0 -0.37103369434E+02  0.31223083922E+01 -0.24829602925E+02  0.44753972052E+02  0.00000000000E+00 0. -1.
         22    1    3    3    0    0  0.31895055031E+02  0.23646956860E+02  0.90999982202E+02  0.99284791710E+02  0.00000000000E+00 0. -1.
</event>
<event>
 7    1  0.6597701E-006  0.1013711E+03  0.7818608E-02  0.1343443E+00
          2   -1    0    0  502    0  0.00000000000E+00  0.00000000000E+00  0.19354688868E+04  0.19354688868E+04  0.00000000000E+00 0. -1.
          1   -1    0    0  501    0 -0.00000000000E+00 -0.00000000000E+00 -0.51702857565E+02  0.51702857565E+02  0.00000000000E+00 0. -1.
         25    2    1    2    0    0 -0.52125256659E+02 -0.44026766307E+01  0.13535424042E+03  0.19152396730E+03  0.12499693479E+03 0.  0.
          2    1    1    2  501    0 -0.45443046359E+02 -0.32199001454E+02  0.13105496634E+02  0.57215384286E+02  0.00000000000E+00 0. -1.
          1    1    1    2  502    0  0.97568303018E+02  0.36601678085E+02  0.17353062922E+04  0.17384323928E+04  0.00000000000E+00 0. -1.
         22    1    3    3    0    0 -0.40588547974E+01 -0.61021078697E+02  0.64315650944E+02  0.88749925656E+02  0.00000000000E+00 0. -1.
         22    1    3    3    0    0 -0.48066401861E+02  0.56618402067E+02  0.71038589479E+02  0.10277404164E+03  0.00000000000E+00 0. -1.
</event>
<event>
 7    1  0.6597701E-006  0.6571075E+02  0.7818608E-02  0.1382681E+00
          2   -1    0    0  502    0  0.00000000000E+00  0.00000000000E+00  0.49027305717E+02  0.49027305717E+02  0.00000000000E+00 0. -1.
          1   -1    0    0  501    0 -0.00000000000E+00 -0.00000000000E+00 -0.22787787664E+04  0.22787787664E+04  0.00000000000E+00 0. -1.
         25    2    1    2    0    0  0.54195235509E+02 -0.72158059779E+02 -0.18067729171E+03  0.23751441183E+03  0.12499961179E+03 0.  0.
          2    1    1    2  501    0 -0.61321389121E+02  0.82631239969E+01 -0.20178870860E+04  0.20188355266E+04  0.00000000000E+00 0. -1.
          1    1    1    2  502    0  0.71261536117E+01  0.63894935783E+02 -0.31187082980E+02  0.71456133598E+02  0.00000000000E+00 0. -1.
         22    1    3    3    0    0  0.63951856106E+02 -0.19649624969E+02 -0.17048650972E+03  0.18314365306E+03  0.00000000000E+00 0. -1.
         22    1    3    3    0    0 -0.97566205964E+01 -0.52508434810E+02 -0.10190781988E+02  0.54370758770E+02  0.00000000000E+00 0. -1.
</event>
<event>
 7    1  0.6597701E-006  0.8007030E+02  0.7818608E-02  0.1387762E+00
          2   -1    0    0  502    0  0.00000000000E+00  0.00000000000E+00  0.25190224671E+03  0.25190224671E+03  0.00000000000E+00 0. -1.
          1   -1    0    0  501    0 -0.00000000000E+00 -0.00000000000E+00 -0.15471513438E+04  0.15471513438E+04  0.00000000000E+00 0. -1.
         25    2    1    2    0    0 -0.46049534651E+02  0.21288671537E+02 -0.12159202976E+03  0.18161166363E+03  0.12499762993E+03 0.  0.
          2    1    1    2  501    0  0.42119145771E+02 -0.69863319414E+02 -0.13916647632E+04  0.13940537002E+04  0.00000000000E+00 0. -1.
          1    1    1    2  502    0  0.39303888796E+01  0.48574647878E+02  0.21800769587E+03  0.22338822670E+03  0.00000000000E+00 0. -1.
         22    1    3    3    0    0 -0.51374235089E+02  0.48201694626E+02 -0.13408643384E+03  0.15146579526E+03  0.00000000000E+00 0.  1.
         22    1    3    3    0    0  0.53247004381E+01 -0.26913023089E+02  0.12494404075E+02  0.30145868369E+02  0.00000000000E+00 0.  1.
</event>
<event>
 7    1  0.6597701E-006  0.5724547E+02  0.7818608E-02  0.1494631E+00
          2   -1    0    0  502    0  0.00000000000E+00  0.00000000000E+00  0.22927477551E+04  0.22927477551E+04  0.00000000000E+00 0. -1.
          1   -1    0    0  501    0 -0.00000000000E+00 -0.00000000000E+00 -0.33420548568E+03  0.33420548568E+03  0.00000000000E+00 0. -1.
         25    2    1    2    0    0 -0.84251425850E+02  0.24843697071E+02  0.89720306561E+03  0.91011863446E+03  0.12500830300E+03 0.  0.
          2    1    1    2  501    0  0.54771032847E+02 -0.16356050518E+02 -0.32508442264E+03  0.33007161082E+03  0.00000000000E+00 0. -1.
          1    1    1    2  502    0  0.29480393003E+02 -0.84876465530E+01  0.13864236264E+04  0.13867629955E+04  0.00000000000E+00 0. -1.
         22    1    3    3    0    0  0.15603356350E+02  0.36861207553E+02  0.12152546682E+03  0.12794785046E+03  0.00000000000E+00 0.  1.
         22    1    3    3    0    0 -0.99854782200E+02 -0.12017510482E+02  0.77567759879E+03  0.78217078400E+03  0.00000000000E+00 0.  1.
</event>
<event>
 7    1  0.6597701E-006  0.9056515E+02  0.7818608E-02  0.1353318E+00
          2   -1    0    0  502    0  0.00000000000E+00  0.00000000000E+00  0.62217874984E+03  0.62217874984E+03  0.00000000000E+00 0. -1.
          1   -1    0    0  501    0 -0.00000000000E+00 -0.00000000000E+00 -0.19734206766E+03  0.19734206766E+03  0.00000000000E+00 0. -1.
         25    2    1    2    0    0  0.65030427777E+02 -0.39526365406E+02  0.54719335061E+02  0.15623653750E+03  0.12499743966E+03 0.  0.
          2    1    1    2  501    0  0.27378261634E+02  0.50325185676E+02 -0.13658373727E+03  0.14811249377E+03  0.00000000000E+00 0. -1.
          1    1    1    2  502    0 -0.92408689411E+02 -0.10798820270E+02  0.50670108439E+03  0.51517178622E+03  0.00000000000E+00 0. -1.
         22    1    3    3    0    0  0.30169356337E+02 -0.79254674637E+02  0.71088533299E+01  0.85100113451E+02  0.00000000000E+00 0.  1.
         22    1    3    3    0    0  0.34861071440E+02  0.39728309231E+02  0.47610481732E+02  0.71136424053E+02  0.00000000000E+00 0.  1.
</event>
<event>
 7    1  0.6597701E-006  0.1887251E+03  0.7818608E-02  0.1171258E+00
          2   -1    0    0  502    0  0.00000000000E+00  0.00000000000E+00  0.25580076306E+04  0.25580076306E+04  0.00000000000E+00 0. -1.
          1   -1    0    0  501    0 -0.00000000000E+00 -0.00000000000E+00 -0.34438885283E+03  0.34438885283E+03  0.00000000000E+00 0. -1.
         25    2    1    2    0    0 -0.21610847616E+03  0.26870022861E+03  0.47109629898E+03  0.59704163453E+03  0.12499721644E+03 0.  0.
          2    1    1    2  501    0  0.10630460521E+03 -0.14551351468E+03 -0.24879955280E+03  0.30720688390E+03  0.00000000000E+00 0. -1.
          1    1    1    2  502    0  0.10980387095E+03 -0.12318671394E+03  0.19913220316E+04  0.19981479650E+04  0.00000000000E+00 0. -1.
         22    1    3    3    0    0 -0.11041902156E+03  0.10525919107E+03  0.30558905448E+03  0.34155018349E+03  0.00000000000E+00 0. -1.
         22    1    3    3    0    0 -0.10568945460E+03  0.16344103755E+03  0.16550724450E+03  0.25549145103E+03  0.00000000000E+00 0. -1.
</event>
<event>
 7    1  0.6597701E-006  0.1221366E+03  0.7818608E-02  0.1358560E+00
          2   -1    0    0  502    0  0.00000000000E+00  0.00000000000E+00  0.12316705944E+04  0.12316705944E+04  0.00000000000E+00 0. -1.
          1   -1    0    0  501    0 -0.00000000000E+00 -0.00000000000E+00 -0.63339348243E+03  0.63339348243E+03  0.00000000000E+00 0. -1.
         25    2    1    2    0    0 -0.11678358056E+03 -0.55445942951E+02  0.25981666328E+03  0.31598045145E+03  0.12500515951E+03 0.  0.
          2    1    1    2  501    0  0.88263971264E+02  0.84397888402E+02 -0.59870728823E+03  0.61103514561E+03  0.00000000000E+00 0. -1.
          1    1    1    2  502    0  0.28519609301E+02 -0.28951945451E+02  0.93716773693E+03  0.93804847978E+03  0.00000000000E+00 0. -1.
         22    1    3    3    0    0 -0.92782614784E+01 -0.28286274290E+02  0.17193928133E+03  0.17449732351E+03  0.00000000000E+00 0. -1.
         22    1    3    3    0    0 -0.10750531909E+03 -0.27159668661E+02  0.87877381948E+02  0.14148312794E+03  0.00000000000E+00 0. -1.
</event>
<event>
 7    1  0.6597701E-006  0.8205622E+02  0.7818608E-02  0.1367134E+00
          2   -1    0    0  502    0  0.00000000000E+00  0.00000000000E+00  0.12438297777E+04  0.12438297777E+04  0.00000000000E+00 0. -1.
          1   -1    0    0  501    0 -0.00000000000E+00 -0.00000000000E+00 -0.20358322720E+04  0.20358322720E+04  0.00000000000E+00 0. -1.
         25    2    1    2    0    0 -0.10427721021E+03 -0.55049153044E+02  0.52542449990E+03  0.55281100071E+03  0.12499980636E+03 0.  0.
          2    1    1    2  501    0  0.49004555640E+02  0.65769244819E+02 -0.20201809868E+04  0.20218452611E+04  0.00000000000E+00 0. -1.
          1    1    1    2  502    0  0.55272654573E+02 -0.10720091774E+02  0.70275399265E+03  0.70500578785E+03  0.00000000000E+00 0. -1.
         22    1    3    3    0    0 -0.73413954242E+02 -0.92937234941E+02  0.42395581263E+03  0.44018799323E+03  0.00000000000E+00 0. -1.
         22    1    3    3    0    0 -0.30863255971E+02  0.37888081896E+02  0.10146868727E+03  0.11262300748E+03  0.00000000000E+00 0. -1.
</event>
<event>
 7    1  0.6597701E-006  0.5380880E+02  0.7818608E-02  0.1443977E+00
          2   -1    0    0  502    0  0.00000000000E+00  0.00000000000E+00  0.23757081681E+04  0.23757081681E+04  0.00000000000E+00 0. -1.
          1   -1    0    0  501    0 -0.00000000000E+00 -0.00000000000E+00 -0.28199024570E+02  0.28199024570E+02  0.00000000000E+00 0. -1.
         25    2    1    2    0    0  0.50337431145E+02  0.49280445083E+02  0.86350743285E+03  0.87534711820E+03  0.12500028606E+03 0.  0.
          2    1    1    2  501    0 -0.53771450576E+02 -0.24723150345E+01  0.11162781027E+02  0.54973529257E+02  0.00000000000E+00 0. -1.
          1    1    1    2  502    0  0.34340194308E+01 -0.46808130048E+02  0.14728389296E+04  0.14735865452E+04  0.00000000000E+00 0. -1.
         22    1    3    3    0    0 -0.34327032390E+02  0.33550175513E+02  0.17457138034E+03  0.18105006563E+03  0.00000000000E+00 0.  1.
         22    1    3    3    0    0  0.84664463535E+02  0.15730269570E+02  0.68893605250E+03  0.69429705257E+03  0.00000000000E+00 0.  1.
</event>
<event>
 7    1  0.6597701E-006  0.9959294E+02  0.7818608E-02  0.1361025E+00
          2   -1    0    0  502    0  0.00000000000E+00  0.00000000000E+00  0.17429960590E+04  0.17429960590E+04  0.00000000000E+00 0. -1.
          1   -1    0    0  501    0 -0.00000000000E+00 -0.00000000000E+00 -0.28524029128E+03  0.28524029128E+03  0.00000000000E+00 0. -1.
         25    2    1    2    0    0 -0.14534405208E+03 -0.11675330381E+02  0.12519130457E+03  0.22925855830E+03  0.12500166799E+03 0.  0.
          2    1    1    2  501    0  0.47111117438E+02  0.12792235233E+02 -0.22909147452E+03  0.23423492986E+03  0.00000000000E+00 0. -1.
          1    1    1    2  502    0  0.98232934640E+02 -0.11169048525E+01  0.15616559376E+04  0.15647428621E+04  0.00000000000E+00 0. -1.
         22    1    3    3    0    0 -0.82260902581E+02 -0.57260390579E+02  0.11203520488E+03  0.15032463389E+03  0.00000000000E+00 0. -1.
         22    1    3    3    0    0 -0.63083149497E+02  0.45585060198E+02  0.13156099692E+02  0.78933924410E+02  0.00000000000E+00 0. -1.
</event>
<event>
 7    1  0.6597701E-006  0.3969127E+02  0.7818608E-02  0.1562883E+00
          2   -1    0    0  502    0  0.00000000000E+00  0.00000000000E+00  0.13258784798E+04  0.13258784798E+04  0.00000000000E+00 0. -1.
          1   -1    0    0  501    0 -0.00000000000E+00 -0.00000000000E+00 -0.36268617207E+03  0.36268617207E+03  0.00000000000E+00 0. -1.
         25    2    1    2    0    0 -0.27091647700E+02 -0.26266042333E+02 -0.87461768930E+02  0.15716756178E+03  0.12501287573E+03 0.  0.
          2    1    1    2  501    0  0.40218998468E+02  0.13333073314E+01 -0.23853226752E+03  0.24190284867E+03  0.00000000000E+00 0. -1.
          1    1    1    2  502    0 -0.13127350768E+02  0.24932735001E+02  0.12891863441E+04  0.12894942414E+04  0.00000000000E+00 0. -1.
         22    1    3    3    0    0 -0.38927147127E+02  0.37644501758E+02 -0.72463954091E+02  0.90462455961E+02  0.00000000000E+00 0. -1.
         22    1    3    3    0    0  0.11835499427E+02 -0.63910544091E+02 -0.14997814840E+02  0.66705105822E+02  0.00000000000E+00 0. -1.
</event>
<event>
 7    1  0.6597701E-006  0.5654045E+02  0.7818608E-02  0.1435535E+00
          2   -1    0    0  502    0  0.00000000000E+00  0.00000000000E+00  0.97520695686E+02  0.97520695686E+02  0.00000000000E+00 0. -1.
          1   -1    0    0  501    0 -0.00000000000E+00 -0.00000000000E+00 -0.90463104312E+03  0.90463104312E+03  0.00000000000E+00 0. -1.
         25    2    1    2    0    0  0.73144180572E+02  0.29847324568E+02 -0.16252506548E+03  0.21972848398E+03  0.12500110330E+03 0.  0.
          2    1    1    2  501    0 -0.18827752845E+02 -0.43692003661E+02 -0.70116601284E+03  0.70277823886E+03  0.00000000000E+00 0. -1.
          1    1    1    2  502    0 -0.54316427727E+02  0.13844679093E+02  0.56580730886E+02  0.79645015963E+02  0.00000000000E+00 0. -1.
         22    1    3    3    0    0 -0.30866814676E+02  0.64109537215E+01 -0.76471028974E+02  0.82714441594E+02  0.00000000000E+00 0.  1.
         22    1    3    3    0    0  0.10401099525E+03  0.23436370847E+02 -0.86054036505E+02  0.13701404238E+03  0.00000000000E+00 0.  1.
</event>
<event>
 7    1  0.6597701E-006  0.9270286E+02  0.7818608E-02  0.1362766E+00
          2   -1    0    0  502    0  0.00000000000E+00  0.00000000000E+00  0.76227146264E+03  0.76227146264E+03  0.00000000000E+00 0. -1.
          1   -1    0    0  501    0 -0.00000000000E+00 -0.00000000000E+00 -0.13063848079E+04  0.13063848079E+04  0.00000000000E+00 0. -1.
         25    2    1    2    0    0  0.66766468691E+02  0.78328330459E+02  0.33521565424E+03  0.37227372667E+03  0.12500041610E+03 0.  0.
          2    1    1    2  501    0 -0.50030045871E+02  0.12975707304E+02 -0.12820554057E+04  0.12830968154E+04  0.00000000000E+00 0. -1.
          1    1    1    2  502    0 -0.16736422820E+02 -0.91304037763E+02  0.40272640615E+03  0.41328572849E+03  0.00000000000E+00 0. -1.
         22    1    3    3    0    0  0.29490841457E+02  0.10172011690E+03  0.29192381963E+03  0.31054179812E+03  0.00000000000E+00 0.  1.
         22    1    3    3    0    0  0.37275627234E+02 -0.23391786438E+02  0.43291834607E+02  0.61731928547E+02  0.00000000000E+00 0.  1.
</event>
<event>
 7    1  0.6597701E-006  0.5759472E+02  0.7818608E-02  0.1534926E+00
          2   -1    0    0  502    0  0.00000000000E+00  0.00000000000E+00  0.84540815558E+03  0.84540815558E+03  0.00000000000E+00 0. -1.
          1   -1    0    0  501    0 -0.00000000000E+00 -0.00000000000E+00 -0.33185260644E+03  0.33185260644E+03  0.00000000000E+00 0. -1.
         25    2    1    2    0    0 -0.18156681052E+02 -0.33080507688E+02  0.10589813606E+03  0.16811547865E+03  0.12499765552E+03 0.  0.
          2    1    1    2  501    0  0.23119964033E+01 -0.23129196308E+02 -0.29908860187E+03  0.29999049455E+03  0.00000000000E+00 0. -1.
          1    1    1    2  502    0  0.15844684649E+02  0.56209703996E+02  0.70674601495E+03  0.70915478882E+03  0.00000000000E+00 0. -1.
         22    1    3    3    0    0 -0.65744215896E+02  0.42942498270E+01  0.76128061097E+02  0.10067881700E+03  0.00000000000E+00 0.  1.
         22    1    3    3    0    0  0.47587534844E+02 -0.37374757515E+02  0.29770074965E+02  0.67436661655E+02  0.00000000000E+00 0.  1.
</event>
<event>
 7    1  0.1095985E-005  0.7481919E+02  0.7818608E-02  0.1387808E+00
          2   -1    0    0  502    0  0.00000000000E+00  0.00000000000E+00  0.20195754894E+04  0.20195754894E+04  0.00000000000E+00 0. -1.
          1   -1    0    0  501    0 -0.00000000000E+00 -0.00000000000E+00 -0.77776034566E+03  0.77776034566E+03  0.00000000000E+00 0. -1.
         25    2    1    2    0    0  0.76007640029E+02  0.77275459854E+02 -0.12413076373E+03  0.20683345266E+03  0.12499189012E+03 0.  0.
          2    1    1    2  501    0 -0.24481068114E+02 -0.69338605063E+02 -0.60972531986E+03  0.61414341201E+03  0.00000000000E+00 0. -1.
          1    1    1    2  502    0 -0.51526571915E+02 -0.79368547915E+01  0.19756712273E+04  0.19763589704E+04  0.00000000000E+00 0. -1.
         22    1    3    3    0    0 -0.11337718156E+02 -0.12695978610E+02 -0.66834209563E+02  0.68967697466E+02  0.00000000000E+00 0.  1.
         22    1    3    3    0    0  0.87345358185E+02  0.89971438464E+02 -0.57296554172E+02  0.13786575520E+03  0.00000000000E+00 0.  1.
</event>
<event>
 7    1  0.6597701E-006  0.1043726E+03  0.7818608E-02  0.1369017E+00
          2   -1    0    0  502    0  0.00000000000E+00  0.00000000000E+00  0.81197209867E+03  0.81197209867E+03  0.00000000000E+00 0. -1.
          1   -1    0    0  501    0 -0.00000000000E+00 -0.00000000000E+00 -0.13674304244E+03  0.13674304244E+03  0.00000000000E+00 0. -1.
         25    2    1    2    0    0  0.10978473296E+03  0.72485755218E+02  0.18977074260E+03  0.26256840234E+03  0.12498943498E+03 0.  0.
          2    1    1    2  501    0 -0.43359065378E+02  0.43603416914E+01 -0.90953110357E+02  0.10085380218E+03  0.00000000000E+00 0. -1.
          1    1    1    2  502    0 -0.66425667584E+02 -0.76846096909E+02  0.57641142399E+03  0.58529293660E+03  0.00000000000E+00 0. -1.
         22    1    3    3    0    0  0.29117057490E+02 -0.35084812540E+02  0.34520986353E+02  0.57187809948E+02  0.00000000000E+00 0. -1.
         22    1    3    3    0    0  0.80667675473E+02  0.10757056776E+03  0.15524975625E+03  0.20538059239E+03  0.00000000000E+00 0. -1.
</event>
<event>
 7    1  0.6597701E-006  0.4562602E+02  0.7818608E-02  0.1576086E+00
          2   -1    0    0  502    0  0.00000000000E+00  0.00000000000E+00  0.98451970167E+02  0.98451970167E+02  0.00000000000E+00 0. -1.
          1   -1    0    0  501    0 -0.00000000000E+00 -0.00000000000E+00 -0.52115447684E+03  0.52115447684E+03  0.00000000000E+00 0. -1.
         25    2    1    2    0    0 -0.29173595569E+02 -0.50197741980E+02 -0.16926446187E+03  0.21827942426E+03  0.12499814809E+03 0.  0.
          2    1    1    2  501    0  0.21893353798E+02  0.54762916436E+01 -0.32000658201E+03  0.32080137350E+03  0.00000000000E+00 0. -1.
          1    1    1    2  502    0  0.72802417706E+01  0.44721450336E+02  0.66568537207E+02  0.80525649245E+02  0.00000000000E+00 0. -1.
         22    1    3    3    0    0 -0.60124115036E+02 -0.64102416974E+02 -0.66940497735E+02  0.11047651021E+03  0.00000000000E+00 0. -1.
         22    1    3    3    0    0  0.30950519467E+02  0.13904674994E+02 -0.10232396413E+03  0.10780291405E+03  0.00000000000E+00 0. -1.
</event>
<event>
 7    1  0.6597701E-006  0.1390014E+03  0.7818608E-02  0.1305753E+00
          2   -1    0    0  502    0  0.00000000000E+00  0.00000000000E+00  0.46077544535E+04  0.46077544535E+04  0.00000000000E+00 0. -1.
          1   -1    0    0  501    0 -0.00000000000E+00 -0.00000000000E+00 -0.58871475911E+02  0.58871475911E+02  0.00000000000E+00 0. -1.
         25    2    1    2    0    0  0.15044671675E+02  0.89458557196E+02  0.62522460398E+03  0.64401816838E+03  0.12499768068E+03 0.  0.
          2    1    1    2  501    0  0.25012798270E+02  0.50934933262E+02 -0.31401504410E+02  0.64854159334E+02  0.00000000000E+00 0. -1.
          1    1    1    2  502    0 -0.40057469945E+02 -0.14039349046E+03  0.39550598780E+04  0.39577536017E+04  0.00000000000E+00 0. -1.
         22    1    3    3    0    0  0.51830851727E+02  0.98711285324E+02  0.38504138607E+03  0.40085810959E+03  0.00000000000E+00 0.  1.
         22    1    3    3    0    0 -0.36786180052E+02 -0.92527281290E+01  0.24018321791E+03  0.24316005879E+03  0.00000000000E+00 0.  1.
</event>
