<event>
 7    1  0.6235964E-006  0.2542962E+02  0.7818608E-02  0.1659925E+00
          2   -1    0    0  502    0  0.00000000000E+00  0.00000000000E+00  0.57210063210E+03  0.57210063210E+03  0.00000000000E+00 0. -1.
          1   -1    0    0  501    0 -0.00000000000E+00 -0.00000000000E+00 -0.12607615560E+03  0.12607615560E+03  0.00000000000E+00 0. -1.
         25    2    1    2    0    0  0.46584231562E+02  0.14736359665E+02  0.17903848160E+03  0.22376020174E+03  0.12500639609E+03 0.  0.
          2    1    1    2  501    0 -0.24552974698E+02 -0.29168584405E+01 -0.10181237620E+03  0.10477173558E+03  0.00000000000E+00 0. -1.
          1    1    1    2  502    0 -0.22031256864E+02 -0.11819501225E+02  0.36879837110E+03  0.36964485038E+03  0.00000000000E+00 0. -1.
         22    1    3    3    0    0  0.58289844303E+02 -0.11781946395E+02  0.20972681477E+02  0.63058493306E+02  0.00000000000E+00 0. -1.
         22    1    3    3    0    0 -0.11705612741E+02  0.26518306060E+02  0.15806580012E+03  0.16070170844E+03  0.00000000000E+00 0. -1.
</event>
<event>
 7    1  0.6235964E-006  0.9297404E+02  0.7818608E-02  0.1422171E+00
          2   -1    0    0  502    0  0.00000000000E+00  0.00000000000E+00  0.17812404967E+04  0.17812404967E+04  0.00000000000E+00 0. -1.
          1   -1    0    0  501    0 -0.00000000000E+00 -0.00000000000E+00 -0.64108658724E+03  0.64108658724E+03  0.00000000000E+00 0. -1.
         25    2    1    2    0    0 -0.57020403503E+02 -0.53205524244E+02  0.14519327816E+04  0.14593891772E+04  0.12500325681E+03 0.  0.
          2    1    1    2  501    0  0.43487166622E+02  0.82227782020E+02 -0.63316453864E+03  0.63996083848E+03  0.00000000000E+00 0. -1.
          1    1    1    2  502    0  0.13533236882E+02 -0.29022257776E+02  0.32138566657E+03  0.32297706826E+03  0.00000000000E+00 0. -1.
         22    1    3    3    0    0 -0.16038246817E+02 -0.12108403097E+02  0.12245902987E+04  0.12247551749E+04  0.00000000000E+00 0. -1.
         22    1    3    3    0    0 -0.40982156686E+02 -0.41097121147E+02  0.22734248290E+03  0.23463400236E+03  0.00000000000E+00 0. -1.
</event>
<event>
 7    1  0.6235964E-006  0.1509631E+03  0.7818608E-02  0.1241161E+00
          2   -1    0    0  502    0  0.00000000000E+00  0.00000000000E+00  0.25354115530E+04  0.25354115530E+04  0.00000000000E+00 0. -1.
          1   -1    0    0  501    0 -0.00000000000E+00 -0.00000000000E+00 -0.34021418877E+03  0.34021418877E+03  0.00000000000E+00 0. -1.
         25    2    1    2    0    0  0.90140319767E+02 -0.17305187133E+03 -0.69780585026E+02  0.24200534073E+03  0.12500010992E+03 0.  0.
          2    1    1    2  501    0 -0.11762968687E+03  0.79741838477E+02 -0.15580675400E+03  0.21088207280E+03  0.00000000000E+00 0. -1.
          1    1    1    2  502    0  0.27489367106E+02  0.93310032850E+02  0.24207847033E+04  0.24227383283E+04  0.00000000000E+00 0. -1.
         22    1    3    3    0    0  0.26849772525E+02 -0.17638801806E+02 -0.66855781842E+02  0.74173669044E+02  0.00000000000E+00 0.  1.
         22    1    3    3    0    0  0.63290547242E+02 -0.15541306952E+03 -0.29248031842E+01  0.16783167169E+03  0.00000000000E+00 0.  1.
</event>
<event>
 7    1  0.6235964E-006  0.1024043E+03  0.7818608E-02  0.1360983E+00
          2   -1    0    0  502    0  0.00000000000E+00  0.00000000000E+00  0.13660468165E+03  0.13660468165E+03  0.00000000000E+00 0. -1.
          1   -1    0    0  501    0 -0.00000000000E+00 -0.00000000000E+00 -0.28852446047E+04  0.28852446047E+04  0.00000000000E+00 0. -1.
         25    2    1    2    0    0 -0.54601671639E+02 -0.44914928892E+02 -0.49673654111E+02  0.15195001865E+03  0.12499057114E+03 0.  0.
          2    1    1    2  501    0  0.46961270650E+02  0.91789842292E+02 -0.27768032930E+04  0.27787168377E+04  0.00000000000E+00 0. -1.
          1    1    1    2  502    0  0.76404009885E+01 -0.46874913400E+02  0.77837024033E+02  0.91182430017E+02  0.00000000000E+00 0. -1.
         22    1    3    3    0    0  0.13884195436E+02  0.10646741606E+02 -0.60610023017E+02  0.63084854600E+02  0.00000000000E+00 0.  1.
         22    1    3    3    0    0 -0.68485867075E+02 -0.55561670498E+02  0.10936368906E+02  0.88865164054E+02  0.00000000000E+00 0.  1.
</event>
<event>
 7    1  0.6235964E-006  0.1214426E+03  0.7818608E-02  0.1327252E+00
          2   -1    0    0  502    0  0.00000000000E+00  0.00000000000E+00  0.76433417556E+03  0.76433417556E+03  0.00000000000E+00 0. -1.
          1   -1    0    0  501    0 -0.00000000000E+00 -0.00000000000E+00 -0.23995078047E+03  0.23995078047E+03  0.00000000000E+00 0. -1.
         25    2    1    2    0    0  0.54120294180E+02  0.12830863459E+03  0.11828120441E+03  0.22137753362E+03  0.12500182848E+03 0.  0.
          2    1    1    2  501    0  0.31304579463E+02 -0.43438271338E+02 -0.17833205695E+03  0.18619662362E+03  0.00000000000E+00 0. -1.
          1    1    1    2  502    0 -0.85424873644E+02 -0.84870363253E+02  0.58443424763E+03  0.59671079879E+03  0.00000000000E+00 0. -1.
         22    1    3    3    0    0  0.22561252795E+02  0.12642732740E+03  0.13439782249E+03  0.18589151119E+03  0.00000000000E+00 0.  1.
         22    1    3    3    0    0  0.31559041386E+02  0.18813071868E+01 -0.16116618077E+02  0.35486022433E+02  0.00000000000E+00 0.  1.
</event>
<event>
 7    1  0.6235964E-006  0.5105332E+02  0.7818608E-02  0.1513566E+00
          2   -1    0    0  502    0  0.00000000000E+00  0.00000000000E+00  0.18292629024E+02  0.18292629024E+02  0.00000000000E+00 0. -1.
          1   -1    0    0  501    0 -0.00000000000E+00 -0.00000000000E+00 -0.72165306702E+03  0.72165306702E+03  0.00000000000E+00 0. -1.
         25    2    1    2    0    0 -0.35609676537E+02 -0.19767467303E+02 -0.46168484160E+03  0.48003777072E+03  0.12499826612E+03 0.  0.
          2    1    1    2  501    0 -0.18620634896E+02  0.23806994983E+02 -0.15244479450E+03  0.15541208583E+03  0.00000000000E+00 0. -1.
          1    1    1    2  502    0  0.54230311433E+02 -0.40395276804E+01 -0.89230801896E+02  0.10449583948E+03  0.00000000000E+00 0. -1.
         22    1    3    3    0    0  0.34565228446E+02 -0.12257263806E+02 -0.48162583274E+02  0.60536187204E+02  0.00000000000E+00 0. -1.
         22    1    3    3    0    0 -0.70174904983E+02 -0.75102034973E+01 -0.41352225833E+03  0.41950158352E+03  0.00000000000E+00 0. -1.
</event>
<event>
 7    1  0.6235964E-006  0.8315269E+02  0.7818608E-02  0.1348276E+00
          2   -1    0    0  502    0  0.00000000000E+00  0.00000000000E+00  0.34417904664E+03  0.34417904664E+03  0.00000000000E+00 0. -1.
          1   -1    0    0  501    0 -0.00000000000E+00 -0.00000000000E+00 -0.71774796690E+03  0.71774796690E+03  0.00000000000E+00 0. -1.
         25    2    1    2    0    0  0.23882008015E+02 -0.79886663641E+01 -0.95492087548E+02  0.15930340820E+03  0.12499867193E+03 0.  0.
          2    1    1    2  501    0  0.60686461380E+02  0.23664309603E+02 -0.58257819392E+03  0.58620832319E+03  0.00000000000E+00 0. -1.
          1    1    1    2  502    0 -0.84568469394E+02 -0.15675643239E+02  0.30450136120E+03  0.31641528215E+03  0.00000000000E+00 0. -1.
         22    1    3    3    0    0  0.18398934960E+02  0.39834869614E+02 -0.10170563606E+03  0.11076720657E+03  0.00000000000E+00 0.  1.
         22    1    3    3    0    0  0.54830730546E+01 -0.47823535978E+02  0.62135485142E+01  0.48536201631E+02  0.00000000000E+00 0.  1.
</event>
<event>
 7    1  0.6235964E-006  0.1287156E+03  0.7818608E-02  0.1232124E+00
          2   -1    0    0  502    0  0.00000000000E+00  0.00000000000E+00  0.16024302028E+04  0.16024302028E+04  0.00000000000E+00 0. -1.
          1   -1    0    0  501    0 -0.00000000000E+00 -0.00000000000E+00 -0.22338145566E+03  0.22338145566E+03  0.00000000000E+00 0. -1.
         25    2    1    2    0    0  0.64458872767E+02  0.42241570717E+02  0.91755558673E+02  0.17315552882E+03  0.12499783214E+03 0.  0.
          2    1    1    2  501    0  0.15456856337E+02 -0.14314335834E+03 -0.15098641658E+03  0.20862845788E+03  0.00000000000E+00 0. -1.
          1    1    1    2  502    0 -0.79915729104E+02  0.10090178762E+03  0.14382796050E+04  0.14440276717E+04  0.00000000000E+00 0. -1.
         22    1    3    3    0    0  0.61047989029E+02 -0.28805341463E+02  0.73350794766E+02  0.99684220186E+02  0.00000000000E+00 0. -1.
         22    1    3    3    0    0  0.34108837374E+01  0.71046912180E+02  0.18404763908E+02  0.73471308636E+02  0.00000000000E+00 0. -1.
</event>
<event>
 7    1  0.6235964E-006  0.1078289E+03  0.7818608E-02  0.1317766E+00
          2   -1    0    0  502    0  0.00000000000E+00  0.00000000000E+00  0.84413684274E+03  0.84413684274E+03  0.00000000000E+00 0. -1.
          1   -1    0    0  501    0 -0.00000000000E+00 -0.00000000000E+00 -0.32553558894E+03  0.32553558894E+03  0.00000000000E+00 0. -1.
         25    2    1    2    0    0  0.19151420177E+02  0.40026573231E+02  0.46049167757E+03  0.47921495285E+03  0.12500192985E+03 0.  0.
          2    1    1    2  501    0 -0.31577781059E+02 -0.10445398186E+03 -0.30371909430E+03  0.32272756131E+03  0.00000000000E+00 0. -1.
          1    1    1    2  502    0  0.12426360882E+02  0.64427408631E+02  0.36182867052E+03  0.36772991752E+03  0.00000000000E+00 0. -1.
         22    1    3    3    0    0  0.56862138773E+02  0.62152664218E+02  0.23801011490E+03  0.25247786297E+03  0.00000000000E+00 0.  1.
         22    1    3    3    0    0 -0.37710718596E+02 -0.22126090987E+02  0.22248156268E+03  0.22673708989E+03  0.00000000000E+00 0.  1.
</event>
<event>
 7    1  0.6235964E-006  0.1059965E+03  0.7818608E-02  0.1301022E+00
          2   -1    0    0  502    0  0.00000000000E+00  0.00000000000E+00  0.26058887318E+02  0.26058887318E+02  0.00000000000E+00 0. -1.
          1   -1    0    0  501    0 -0.00000000000E+00 -0.00000000000E+00 -0.18750728846E+04  0.18750728846E+04  0.00000000000E+00 0. -1.
         25    2    1    2    0    0  0.57330991812E+02  0.56667281744E+01 -0.66493108860E+03  0.67902685444E+03  0.12500064812E+03 0.  0.
          2    1    1    2  501    0 -0.13427495138E+03  0.52416802847E+01 -0.10977604182E+04  0.11059544175E+04  0.00000000000E+00 0. -1.
          1    1    1    2  502    0  0.76943959568E+02 -0.10908408459E+02 -0.86322490519E+02  0.11615050004E+03  0.00000000000E+00 0. -1.
         22    1    3    3    0    0  0.92456511583E+02 -0.46096713964E+01 -0.35223362546E+03  0.36419497870E+03  0.00000000000E+00 0.  1.
         22    1    3    3    0    0 -0.35125519771E+02  0.10276399571E+02 -0.31269746314E+03  0.31483187574E+03  0.00000000000E+00 0.  1.
</event>
<event>
 7    1  0.6235964E-006  0.1289112E+03  0.7818608E-02  0.1316938E+00
          2   -1    0    0  502    0  0.00000000000E+00  0.00000000000E+00  0.76431700785E+03  0.76431700785E+03  0.00000000000E+00 0. -1.
          1   -1    0    0  501    0 -0.00000000000E+00 -0.00000000000E+00 -0.56575484829E+03  0.56575484829E+03  0.00000000000E+00 0. -1.
         25    2    1    2    0    0  0.14286853148E+03  0.11219645806E+03 -0.34644043852E+03  0.41066486212E+03  0.12500075619E+03 0.  0.
          2    1    1    2  501    0 -0.49705787181E+02 -0.24221009311E+02 -0.17735406621E+03  0.18577348404E+03  0.00000000000E+00 0. -1.
          1    1    1    2  502    0 -0.93162744295E+02 -0.87975448753E+02  0.72235666429E+03  0.73363350997E+03  0.00000000000E+00 0. -1.
         22    1    3    3    0    0 -0.17774761132E+02 -0.38627780983E+01 -0.57355747298E+02  0.60170964228E+02  0.00000000000E+00 0. -1.
         22    1    3    3    0    0  0.16064329261E+03  0.11605923616E+03 -0.28908469122E+03  0.35049389789E+03  0.00000000000E+00 0. -1.
</event>
<event>
 7    1  0.6235964E-006  0.1839841E+03  0.7818608E-02  0.1311425E+00
          2   -1    0    0  502    0  0.00000000000E+00  0.00000000000E+00  0.68757873998E+03  0.68757873998E+03  0.00000000000E+00 0. -1.
          1   -1    0    0  501    0 -0.00000000000E+00 -0.00000000000E+00 -0.46670192823E+03  0.46670192823E+03  0.00000000000E+00 0. -1.
         25    2    1    2    0    0 -0.15963670825E+03  0.54657991892E+02 -0.50711970099E+02  0.21602557150E+03  0.12499587567E+03 0.  0.
          2    1    1    2  501    0 -0.24977200017E+02 -0.32154923960E+02 -0.31770851745E+03  0.32030688678E+03  0.00000000000E+00 0. -1.
          1    1    1    2  502    0  0.18461390826E+03 -0.22503067932E+02  0.58929729930E+03  0.61794820993E+03  0.00000000000E+00 0. -1.
         22    1    3    3    0    0  0.15643107243E+02  0.74638668992E+01 -0.28216580761E+02  0.33114823617E+02  0.00000000000E+00 0.  1.
         22    1    3    3    0    0 -0.17527981549E+03  0.47194124993E+02 -0.22495389338E+02  0.18291074789E+03  0.00000000000E+00 0.  1.
</event>
<event>
 7    1  0.6235964E-006  0.1041453E+03  0.7818608E-02  0.1327747E+00
          2   -1    0    0  502    0  0.00000000000E+00  0.00000000000E+00  0.19921023949E+03  0.19921023949E+03  0.00000000000E+00 0. -1.
          1   -1    0    0  501    0 -0.00000000000E+00 -0.00000000000E+00 -0.15699746617E+04  0.15699746617E+04  0.00000000000E+00 0. -1.
         25    2    1    2    0    0  0.66428917909E+01 -0.76333474692E+02  0.24242747877E+02  0.14860498021E+03  0.12499920779E+03 0.  0.
          2    1    1    2  501    0  0.53975174617E+02  0.90107729786E+02 -0.14972461045E+04  0.15009259208E+04  0.00000000000E+00 0. -1.
          1    1    1    2  502    0 -0.60618066408E+02 -0.13774255095E+02  0.10223893432E+03  0.11965400022E+03  0.00000000000E+00 0. -1.
         22    1    3    3    0    0  0.15665388105E+01  0.31994681344E+02  0.24218730616E+02  0.40157945550E+02  0.00000000000E+00 0. -1.
         22    1    3    3    0    0  0.50763529804E+01 -0.10832815604E+03  0.24017260893E-01  0.10844703466E+03  0.00000000000E+00 0. -1.
</event>
<event>
 7    1  0.6235964E-006  0.6932870E+02  0.7818608E-02  0.1505787E+00
          2   -1    0    0  502    0  0.00000000000E+00  0.00000000000E+00  0.52749477338E+03  0.52749477338E+03  0.00000000000E+00 0. -1.
          1   -1    0    0  501    0 -0.00000000000E+00 -0.00000000000E+00 -0.45014591467E+02  0.45014591467E+02  0.00000000000E+00 0. -1.
         25    2    1    2    0    0 -0.64906294546E+02 -0.57215553035E+02  0.40364083137E+03  0.43132018113E+03  0.12499892529E+03 0.  0.
          2    1    1    2  501    0  0.41745438942E+02  0.53465506775E+02  0.10130428272E+02  0.68584748043E+02  0.00000000000E+00 0. -1.
          1    1    1    2  502    0  0.23160855604E+02  0.37500462601E+01  0.68708922278E+02  0.72604435676E+02  0.00000000000E+00 0. -1.
         22    1    3    3    0    0 -0.18458761261E+02  0.40052033431E+02  0.10911951277E+03  0.11769434700E+03  0.00000000000E+00 0.  1.
         22    1    3    3    0    0 -0.46447533285E+02 -0.97267586466E+02  0.29452131860E+03  0.31362583413E+03  0.00000000000E+00 0.  1.
</event>
<event>
 7    1  0.6235964E-006  0.9157601E+02  0.7818608E-02  0.1339957E+00
          2   -1    0    0  502    0  0.00000000000E+00  0.00000000000E+00  0.13215769506E+04  0.13215769506E+04  0.00000000000E+00 0. -1.
          1   -1    0    0  501    0 -0.00000000000E+00 -0.00000000000E+00 -0.29924317539E+03  0.29924317539E+03  0.00000000000E+00 0. -1.
         25    2    1    2    0    0  0.88479405122E+02  0.64706486255E+02 -0.93930657515E-02  0.16626186264E+03  0.12500988916E+03 0.  0.
          2    1    1    2  501    0 -0.28935317291E+02 -0.86873875257E+02 -0.20554992988E+03  0.22502243547E+03  0.00000000000E+00 0. -1.
          1    1    1    2  502    0 -0.59544087830E+02  0.22167389003E+02  0.12278930982E+04  0.12295358279E+04  0.00000000000E+00 0. -1.
         22    1    3    3    0    0  0.12146333804E+02  0.55425247278E+02 -0.49097759456E+02  0.75033868648E+02  0.00000000000E+00 0.  1.
         22    1    3    3    0    0  0.76333071317E+02  0.92812389765E+01  0.49088366391E+02  0.91227993996E+02  0.00000000000E+00 0.  1.
</event>
<event>
 7    1  0.6235964E-006  0.1052779E+03  0.7818608E-02  0.1319602E+00
          2   -1    0    0  502    0  0.00000000000E+00  0.00000000000E+00  0.34513378834E+03  0.34513378834E+03  0.00000000000E+00 0. -1.
          1   -1    0    0  501    0 -0.00000000000E+00 -0.00000000000E+00 -0.76415030192E+03  0.76415030192E+03  0.00000000000E+00 0. -1.
         25    2    1    2    0    0 -0.83638513712E+02 -0.83562703128E+02 -0.14870708812E+03  0.22741448716E+03  0.12500169832E+03 0.  0.
          2    1    1    2  501    0  0.20708873763E+02  0.10381707328E+03 -0.56756408058E+03  0.57735242939E+03  0.00000000000E+00 0. -1.
          1    1    1    2  502    0  0.62929639948E+02 -0.20254370157E+02  0.29725465512E+03  0.30451717371E+03  0.00000000000E+00 0. -1.
         22    1    3    3    0    0  0.15409762138E+02 -0.57128000490E+02 -0.94379259191E+02  0.11139350867E+03  0.00000000000E+00 0. -1.
         22    1    3    3    0    0 -0.99048275850E+02 -0.26434702637E+02 -0.54327828930E+02  0.11602097848E+03  0.00000000000E+00 0. -1.
</event>
<event>
 7    1  0.6235964E-006  0.1085736E+03  0.7818608E-02  0.1264639E+00
          2   -1    0    0  502    0  0.00000000000E+00  0.00000000000E+00  0.12196713787E+04  0.12196713787E+04  0.00000000000E+00 0. -1.
          1   -1    0    0  501    0 -0.00000000000E+00 -0.00000000000E+00 -0.51475099992E+03  0.51475099992E+03  0.00000000000E+00 0. -1.
         25    2    1    2    0    0  0.63782874852E+02 -0.59027020449E+01  0.56541471272E+03  0.58259975540E+03  0.12500232243E+03 0.  0.
          2    1    1    2  501    0  0.92513674269E+02  0.56828151036E+02 -0.48965188885E+03  0.50154480451E+03  0.00000000000E+00 0. -1.
          1    1    1    2  502    0 -0.15629654912E+03 -0.50925448991E+02  0.62915755486E+03  0.65027781867E+03  0.00000000000E+00 0. -1.
         22    1    3    3    0    0  0.88892862249E+02 -0.38051304810E+02  0.44752129591E+03  0.45784839527E+03  0.00000000000E+00 0. -1.
         22    1    3    3    0    0 -0.25109987397E+02  0.32148602765E+02  0.11789341681E+03  0.12475136012E+03  0.00000000000E+00 0. -1.
</event>
<event>
 7    1  0.6235964E-006  0.1282200E+03  0.7818608E-02  0.1426347E+00
          2   -1    0    0  502    0  0.00000000000E+00  0.00000000000E+00  0.61441559062E+03  0.61441559062E+03  0.00000000000E+00 0. -1.
          1   -1    0    0  501    0 -0.00000000000E+00 -0.00000000000E+00 -0.44949279952E+03  0.44949279952E+03  0.00000000000E+00 0. -1.
         25    2    1    2    0    0  0.51271588350E+02  0.96503571961E+02 -0.16344721988E+02  0.16682330618E+03  0.12498460055E+03 0.  0.
          2    1    1    2  501    0 -0.66122500172E+02 -0.11339343706E+03 -0.34562545394E+03  0.36971233549E+03  0.00000000000E+00 0. -1.
          1    1    1    2  502    0  0.14850911822E+02  0.16889865102E+02  0.52689296703E+03  0.52737274847E+03  0.00000000000E+00 0. -1.
         22    1    3    3    0    0 -0.33364627053E+02  0.25890001261E+02 -0.35224242900E+02  0.54993070396E+02  0.00000000000E+00 0. -1.
         22    1    3    3    0    0  0.84636215404E+02  0.70613570700E+02  0.18879520913E+02  0.11183023578E+03  0.00000000000E+00 0. -1.
</event>
<event>
 7    1  0.6235964E-006  0.9447517E+02  0.7818608E-02  0.1300079E+00
          2   -1    0    0  502    0  0.00000000000E+00  0.00000000000E+00  0.46861899668E+03  0.46861899668E+03  0.00000000000E+00 0. -1.
          1   -1    0    0  501    0 -0.00000000000E+00 -0.00000000000E+00 -0.18567727872E+03  0.18567727872E+03  0.00000000000E+00 0. -1.
         25    2    1    2    0    0  0.55584499644E+02 -0.46083132664E+02 -0.48976666347E+02  0.15243608402E+03  0.12499901659E+03 0.  0.
          2    1    1    2  501    0 -0.11524987881E+03 -0.27167130213E+02 -0.34600986519E+02  0.12336051150E+03  0.00000000000E+00 0. -1.
          1    1    1    2  502    0  0.59665379167E+02  0.73250262876E+02  0.36651937083E+03  0.37849967988E+03  0.00000000000E+00 0. -1.
         22    1    3    3    0    0  0.59626039367E+02 -0.54520215920E+02  0.19670534321E+02  0.83154365099E+02  0.00000000000E+00 0.  1.
         22    1    3    3    0    0 -0.40415397235E+01  0.84370832561E+01 -0.68647200668E+02  0.69281718922E+02  0.00000000000E+00 0.  1.
</event>
<event>
 7    1  0.6235964E-006  0.1065772E+03  0.7818608E-02  0.1332532E+00
          2   -1    0    0  502    0  0.00000000000E+00  0.00000000000E+00  0.16642173908E+03  0.16642173908E+03  0.00000000000E+00 0. -1.
          1   -1    0    0  501    0 -0.00000000000E+00 -0.00000000000E+00 -0.61005648642E+03  0.61005648642E+03  0.00000000000E+00 0. -1.
         25    2    1    2    0    0  0.10558649099E+03  0.73449756094E+01 -0.13213342445E+03  0.21044398397E+03  0.12499989115E+03 0.  0.
          2    1    1    2  501    0 -0.88914333225E+02 -0.63149330221E+02 -0.42483591280E+03  0.43861047566E+03  0.00000000000E+00 0. -1.
          1    1    1    2  502    0 -0.16672157770E+02  0.55804354612E+02  0.11333458991E+03  0.12742376587E+03  0.00000000000E+00 0. -1.
         22    1    3    3    0    0  0.68083012087E+01 -0.39358122044E+02 -0.79922559876E+02  0.89347805308E+02  0.00000000000E+00 0. -1.
         22    1    3    3    0    0  0.98778189786E+02  0.46703097654E+02 -0.52210864573E+02  0.12109617867E+03  0.00000000000E+00 0. -1.
</event>
<event>
 7    1  0.6235964E-006  0.8550258E+02  0.7818608E-02  0.1479566E+00
          2   -1    0    0  502    0  0.00000000000E+00  0.00000000000E+00  0.19204497325E+04  0.19204497325E+04  0.00000000000E+00 0. -1.
          1   -1    0    0  501    0 -0.00000000000E+00 -0.00000000000E+00 -0.72315786188E+03  0.72315786188E+03  0.00000000000E+00 0. -1.
         25    2    1    2    0    0 -0.46303222513E+02  0.94605212617E+02  0.21956058228E+03  0.27372734375E+03  0.12500269899E+03 0.  0.
          2    1    1    2  501    0  0.17173337442E+02 -0.15030468908E+02 -0.69481450015E+03  0.69518920312E+03  0.00000000000E+00 0. -1.
          1    1    1    2  502    0  0.29129885072E+02 -0.79574743709E+02  0.16725457884E+04  0.16746910475E+04  0.00000000000E+00 0. -1.
         22    1    3    3    0    0 -0.77113371763E+02  0.10460520078E+03  0.16206525270E+03  0.20773508675E+03  0.00000000000E+00 0. -1.
         22    1    3    3    0    0  0.30810149250E+02 -0.99999881608E+01  0.57495329586E+02  0.65992257002E+02  0.00000000000E+00 0. -1.
</event>
<event>
 7    1  0.6235964E-006  0.6186257E+02  0.7818608E-02  0.1455565E+00
          2   -1    0    0  502    0  0.00000000000E+00  0.00000000000E+00  0.26983187860E+04  0.26983187860E+04  0.00000000000E+00 0. -1.
          1   -1    0    0  501    0 -0.00000000000E+00 -0.00000000000E+00 -0.63678751893E+02  0.63678751893E+02  0.00000000000E+00 0. -1.
         25    2    1    2    0    0 -0.24539802869E+02  0.10798302293E+02  0.13090384690E+04  0.13152659235E+04  0.12499572292E+03 0.  0.
          2    1    1    2  501    0  0.47245134256E+02 -0.40620383233E+02 -0.44215968731E+02  0.76401375221E+02  0.00000000000E+00 0. -1.
          1    1    1    2  502    0 -0.22705331387E+02  0.29822080941E+02  0.13698175338E+04  0.13703302392E+04  0.00000000000E+00 0. -1.
         22    1    3    3    0    0 -0.73712117479E+02 -0.10081557784E+02  0.75083617714E+03  0.75451314036E+03  0.00000000000E+00 0. -1.
         22    1    3    3    0    0  0.49172314611E+02  0.20879860077E+02  0.55820229189E+03  0.56075278310E+03  0.00000000000E+00 0. -1.
</event>
<event>
 7    1  0.6235964E-006  0.1711253E+03  0.7818608E-02  0.1297907E+00
          2   -1    0    0  502    0  0.00000000000E+00  0.00000000000E+00  0.31893558237E+03  0.31893558237E+03  0.00000000000E+00 0. -1.
          1   -1    0    0  501    0 -0.00000000000E+00 -0.00000000000E+00 -0.11228679258E+04  0.11228679258E+04  0.00000000000E+00 0. -1.
         25    2    1    2    0    0  0.18053876728E+03 -0.15368648560E+01 -0.37047475512E+03  0.43066572635E+03  0.12499926092E+03 0.  0.
          2    1    1    2  501    0 -0.16545268358E+02 -0.46695435866E+02 -0.69604899632E+03  0.69780972687E+03  0.00000000000E+00 0. -1.
          1    1    1    2  502    0 -0.16399349892E+03  0.48232300722E+02  0.26259140796E+03  0.31332805501E+03  0.00000000000E+00 0. -1.
         22    1    3    3    0    0  0.51476826186E+02 -0.53467177913E+02 -0.18080621171E+03  0.19544689545E+03  0.00000000000E+00 0.  1.
         22    1    3    3    0    0  0.12906194109E+03  0.51930313057E+02 -0.18966854340E+03  0.23521883090E+03  0.00000000000E+00 0.  1.
</event>
<event>
 7    1  0.6235964E-006  0.2602039E+03  0.7818608E-02  0.1254377E+00
          2   -1    0    0  502    0  0.00000000000E+00  0.00000000000E+00  0.15778306190E+04  0.15778306190E+04  0.00000000000E+00 0. -1.
          1   -1    0    0  501    0 -0.00000000000E+00 -0.00000000000E+00 -0.18841394943E+04  0.18841394943E+04  0.00000000000E+00 0. -1.
         25    2    1    2    0    0 -0.17098051806E+02 -0.29299287200E+03  0.65125389701E+03  0.72518332805E+03  0.12498821740E+03 0.  0.
          2    1    1    2  501    0 -0.61942782916E+01  0.49042760358E+02 -0.18299581664E+04  0.18306256996E+04  0.00000000000E+00 0. -1.
          1    1    1    2  502    0  0.23292330098E+02  0.24395011164E+03  0.87239539405E+03  0.90616108566E+03  0.00000000000E+00 0. -1.
         22    1    3    3    0    0  0.41032819984E+02 -0.22014419364E+03  0.49398643909E+03  0.54237418847E+03  0.00000000000E+00 0. -1.
         22    1    3    3    0    0 -0.58130871790E+02 -0.72848678358E+02  0.15726745792E+03  0.18280913958E+03  0.00000000000E+00 0. -1.
</event>
<event>
 7    1  0.6235964E-006  0.3938346E+02  0.7818608E-02  0.1526577E+00
          2   -1    0    0  502    0  0.00000000000E+00  0.00000000000E+00  0.22071452006E+04  0.22071452006E+04  0.00000000000E+00 0. -1.
          1   -1    0    0  501    0 -0.00000000000E+00 -0.00000000000E+00 -0.12745206360E+03  0.12745206360E+03  0.00000000000E+00 0. -1.
         25    2    1    2    0    0 -0.87571028241E+01  0.79890758696E+01  0.26320781260E+03  0.29162084955E+03  0.12499542028E+03 0.  0.
          2    1    1    2  501    0  0.18805238928E+02  0.30598969112E+02 -0.11018640746E+03  0.11589209771E+03  0.00000000000E+00 0. -1.
          1    1    1    2  502    0 -0.10048136104E+02 -0.38588044982E+02  0.19266717319E+04  0.19270843170E+04  0.00000000000E+00 0. -1.
         22    1    3    3    0    0  0.45333222236E+02 -0.32231893611E+02  0.14848206070E+03  0.15855887977E+03  0.00000000000E+00 0.  1.
         22    1    3    3    0    0 -0.54090325060E+02  0.40220969480E+02  0.11472575190E+03  0.13306196977E+03  0.00000000000E+00 0.  1.
</event>
<event>
 7    1  0.6235964E-006  0.9467698E+02  0.7818608E-02  0.1358879E+00
          2   -1    0    0  502    0  0.00000000000E+00  0.00000000000E+00  0.69408381956E+03  0.69408381956E+03  0.00000000000E+00 0. -1.
          1   -1    0    0  501    0 -0.00000000000E+00 -0.00000000000E+00 -0.49392315577E+03  0.49392315577E+03  0.00000000000E+00 0. -1.
         25    2    1    2    0    0 -0.13170395808E+03 -0.51727264339E+02  0.73555153813E+01  0.18896619263E+03  0.12502990002E+03 0.  0.
          2    1    1    2  501    0  0.40791115863E+02  0.32709655814E+02 -0.39777746268E+03  0.40119913576E+03  0.00000000000E+00 0. -1.
          1    1    1    2  502    0  0.90912842218E+02  0.19017608525E+02  0.59058261108E+03  0.59784164695E+03  0.00000000000E+00 0. -1.
         22    1    3    3    0    0 -0.41263122453E+02 -0.51071848412E+02  0.55978017748E+02  0.86281617080E+02  0.00000000000E+00 0.  1.
         22    1    3    3    0    0 -0.90440835628E+02 -0.65541592661E+00 -0.48622502367E+02  0.10268457555E+03  0.00000000000E+00 0.  1.
</event>
<event>
 7    1  0.6235964E-006  0.7659663E+02  0.7818608E-02  0.1367351E+00
          2   -1    0    0  502    0  0.00000000000E+00  0.00000000000E+00  0.72856120116E+03  0.72856120116E+03  0.00000000000E+00 0. -1.
          1   -1    0    0  501    0 -0.00000000000E+00 -0.00000000000E+00 -0.54971985309E+03  0.54971985309E+03  0.00000000000E+00 0. -1.
         25    2    1    2    0    0  0.59348317369E+02  0.11360062018E+03  0.79748651178E+02  0.19599333422E+03  0.12500486396E+03 0.  0.
          2    1    1    2  501    0 -0.76197982849E+01 -0.59722958588E+02 -0.48737666505E+03  0.49108136468E+03  0.00000000000E+00 0. -1.
          1    1    1    2  502    0 -0.51728519084E+02 -0.53877661587E+02  0.58646936194E+03  0.59120635535E+03  0.00000000000E+00 0. -1.
         22    1    3    3    0    0  0.56807988505E+01  0.29786997634E+02  0.90921212526E+02  0.95844684729E+02  0.00000000000E+00 0.  1.
         22    1    3    3    0    0  0.53667518518E+02  0.83813622541E+02 -0.11172561347E+02  0.10014864949E+03  0.00000000000E+00 0.  1.
</event>
<event>
 7    1  0.6235964E-006  0.3374257E+02  0.7818608E-02  0.1574585E+00
          2   -1    0    0  502    0  0.00000000000E+00  0.00000000000E+00  0.80301358042E+03  0.80301358042E+03  0.00000000000E+00 0. -1.
          1   -1    0    0  501    0 -0.00000000000E+00 -0.00000000000E+00 -0.16746179455E+03  0.16746179455E+03  0.00000000000E+00 0. -1.
         25    2    1    2    0    0  0.14177586645E+02  0.38026195256E+02  0.77637059421E+02  0.15263959861E+03  0.12499735429E+03 0.  0.
          2    1    1    2  501    0 -0.31459337453E+02 -0.12529393228E+02 -0.12740290024E+03  0.13182630465E+03  0.00000000000E+00 0. -1.
          1    1    1    2  502    0  0.17281750808E+02 -0.25496802029E+02  0.68531762669E+03  0.68600947171E+03  0.00000000000E+00 0. -1.
         22    1    3    3    0    0  0.30626075299E+02 -0.32431475805E+02  0.65545356806E+02  0.79283988988E+02  0.00000000000E+00 0. -1.
         22    1    3    3    0    0 -0.16448488654E+02  0.70457671061E+02  0.12091702615E+02  0.73355609618E+02  0.00000000000E+00 0. -1.
</event>
<event>
 7    1  0.6235964E-006  0.7977798E+02  0.7818608E-02  0.1461712E+00
          2   -1    0    0  502    0  0.00000000000E+00  0.00000000000E+00  0.12011416271E+03  0.12011416271E+03  0.00000000000E+00 0. -1.
          1   -1    0    0  501    0 -0.00000000000E+00 -0.00000000000E+00 -0.14005095933E+04  0.14005095933E+04  0.00000000000E+00 0. -1.
         25    2    1    2    0    0 -0.18985018109E+02  0.78914172137E+02 -0.75836608139E+03  0.77287237828E+03  0.12499888892E+03 0.  0.
          2    1    1    2  501    0 -0.24948543876E+02 -0.12248856389E+02 -0.62042015102E+03  0.62104237224E+03  0.00000000000E+00 0. -1.
          1    1    1    2  502    0  0.43933561985E+02 -0.66665315748E+02  0.98390801810E+02  0.12670900549E+03  0.00000000000E+00 0. -1.
         22    1    3    3    0    0 -0.86836926188E+00  0.49900322573E+02 -0.71896515031E+03  0.72069527792E+03  0.00000000000E+00 0. -1.
         22    1    3    3    0    0 -0.18116648847E+02  0.29013849564E+02 -0.39400931076E+02  0.52177100357E+02  0.00000000000E+00 0. -1.
</event>
<event>
 7    1  0.6235964E-006  0.7761232E+02  0.7818608E-02  0.1479859E+00
          2   -1    0    0  502    0  0.00000000000E+00  0.00000000000E+00  0.59252754136E+03  0.59252754136E+03  0.00000000000E+00 0. -1.
          1   -1    0    0  501    0 -0.00000000000E+00 -0.00000000000E+00 -0.31126585842E+03  0.31126585842E+03  0.00000000000E+00 0. -1.
         25    2    1    2    0    0  0.68403782971E+02 -0.72960541726E+02 -0.11604217209E+02  0.16050443453E+03  0.12499878989E+03 0.  0.
          2    1    1    2  501    0 -0.99202690540E+01  0.23045610753E+02 -0.22164708205E+03  0.22306263894E+03  0.00000000000E+00 0. -1.
          1    1    1    2  502    0 -0.58483513917E+02  0.49914930973E+02  0.51451298220E+03  0.52022632631E+03  0.00000000000E+00 0. -1.
         22    1    3    3    0    0 -0.15700017200E+02  0.12028720213E+02  0.28235369179E+02  0.34473420525E+02  0.00000000000E+00 0.  1.
         22    1    3    3    0    0  0.84103800170E+02 -0.84989261939E+02 -0.39839586388E+02  0.12603101401E+03  0.00000000000E+00 0.  1.
</event>
<event>
 7    1  0.6235964E-006  0.6792551E+02  0.7818608E-02  0.1435568E+00
          2   -1    0    0  502    0  0.00000000000E+00  0.00000000000E+00  0.19759223526E+02  0.19759223526E+02  0.00000000000E+00 0. -1.
          1   -1    0    0  501    0 -0.00000000000E+00 -0.00000000000E+00 -0.18369947480E+04  0.18369947480E+04  0.00000000000E+00 0. -1.
         25    2    1    2    0    0  0.55252521882E+01  0.45618558013E+02 -0.56397125591E+03  0.57948240746E+03  0.12499880722E+03 0.  0.
          2    1    1    2  501    0  0.36962270693E+02  0.14187809138E+02 -0.11495610726E+04  0.11502426539E+04  0.00000000000E+00 0. -1.
          1    1    1    2  502    0 -0.42487522881E+02 -0.59806367151E+02 -0.10370319606E+03  0.12702891019E+03  0.00000000000E+00 0. -1.
         22    1    3    3    0    0  0.59230746839E+02 -0.46164946486E+01 -0.26902056087E+03  0.27550255092E+03  0.00000000000E+00 0.  1.
         22    1    3    3    0    0 -0.53705494651E+02  0.50235052661E+02 -0.29495069504E+03  0.30397985653E+03  0.00000000000E+00 0.  1.
</event>
<event>
 7    1  0.6235964E-006  0.1582036E+03  0.7818608E-02  0.1204152E+00
          2   -1    0    0  502    0  0.00000000000E+00  0.00000000000E+00  0.41143258830E+03  0.41143258830E+03  0.00000000000E+00 0. -1.
          1   -1    0    0  501    0 -0.00000000000E+00 -0.00000000000E+00 -0.45100959670E+03  0.45100959670E+03  0.00000000000E+00 0. -1.
         25    2    1    2    0    0 -0.41261820497E+02 -0.68164773444E+02  0.33389249398E+02  0.15195213181E+03  0.12500253684E+03 0.  0.
          2    1    1    2  501    0 -0.12397632656E+03 -0.57529198571E+02 -0.34337427815E+03  0.36957493574E+03  0.00000000000E+00 0. -1.
          1    1    1    2  502    0  0.16523814705E+03  0.12569397201E+03  0.27040802035E+03  0.34091511746E+03  0.00000000000E+00 0. -1.
         22    1    3    3    0    0 -0.58070008181E+02 -0.55920488569E+02  0.72005518317E+02  0.10809265266E+03  0.00000000000E+00 0. -1.
         22    1    3    3    0    0  0.16808187683E+02 -0.12244284875E+02 -0.38616268919E+02  0.43859479141E+02  0.00000000000E+00 0. -1.
</event>
<event>
 7    1  0.6235964E-006  0.2643368E+02  0.7818608E-02  0.1667269E+00
          2   -1    0    0  502    0  0.00000000000E+00  0.00000000000E+00  0.30181664023E+03  0.30181664023E+03  0.00000000000E+00 0. -1.
          1   -1    0    0  501    0 -0.00000000000E+00 -0.00000000000E+00 -0.34793737331E+03  0.34793737331E+03  0.00000000000E+00 0. -1.
         25    2    1    2    0    0 -0.12936636737E+02 -0.27882095571E+01 -0.67368639431E+02  0.14262311104E+03  0.12501074970E+03 0.  0.
          2    1    1    2  501    0  0.18576328697E+02 -0.19340552589E+02 -0.24170508802E+03  0.24318817105E+03  0.00000000000E+00 0. -1.
          1    1    1    2  502    0 -0.56396919600E+01  0.22128762146E+02  0.26295299437E+03  0.26394273146E+03  0.00000000000E+00 0. -1.
         22    1    3    3    0    0  0.12448811307E+02 -0.37248868278E+02  0.20926097658E+02  0.44501153403E+02  0.00000000000E+00 0.  1.
         22    1    3    3    0    0 -0.25385448045E+02  0.34460658721E+02 -0.88294737090E+02  0.98121957633E+02  0.00000000000E+00 0.  1.
</event>
<event>
 7    1  0.6235964E-006  0.5868597E+02  0.7818608E-02  0.1457724E+00
          2   -1    0    0  502    0  0.00000000000E+00  0.00000000000E+00  0.47989922504E+03  0.47989922504E+03  0.00000000000E+00 0. -1.
          1   -1    0    0  501    0 -0.00000000000E+00 -0.00000000000E+00 -0.39567074776E+03  0.39567074776E+03  0.00000000000E+00 0. -1.
         25    2    1    2    0    0 -0.17181674248E+02 -0.57673473765E+02  0.12552034604E+03  0.18708671533E+03  0.12499856909E+03 0.  0.
          2    1    1    2  501    0 -0.31329429988E+02  0.23046339977E+02 -0.36108995804E+03  0.36317850262E+03  0.00000000000E+00 0. -1.
          1    1    1    2  502    0  0.48511104236E+02  0.34627133788E+02  0.31979808927E+03  0.32530475485E+03  0.00000000000E+00 0. -1.
         22    1    3    3    0    0  0.63338320349E+01 -0.89183626164E+02  0.51260435160E+02  0.10306051046E+03  0.00000000000E+00 0. -1.
         22    1    3    3    0    0 -0.23515506283E+02  0.31510152399E+02  0.74259910879E+02  0.84026204863E+02  0.00000000000E+00 0. -1.
</event>
<event>
 7    1  0.6235964E-006  0.5295420E+02  0.7818608E-02  0.1534111E+00
          2   -1    0    0  502    0  0.00000000000E+00  0.00000000000E+00  0.47470816057E+03  0.47470816057E+03  0.00000000000E+00 0. -1.
          1   -1    0    0  501    0 -0.00000000000E+00 -0.00000000000E+00 -0.13549674364E+04  0.13549674364E+04  0.00000000000E+00 0. -1.
         25    2    1    2    0    0  0.40866268276E+02 -0.59412441966E+01 -0.54075938167E+03  0.55655220527E+03  0.12499719221E+03 0.  0.
          2    1    1    2  501    0 -0.52137022712E+02 -0.16840143193E+02 -0.80503383772E+03  0.80689611440E+03  0.00000000000E+00 0. -1.
          1    1    1    2  502    0  0.11270754436E+02  0.22781387389E+02  0.46553394355E+03  0.46622727732E+03  0.00000000000E+00 0. -1.
         22    1    3    3    0    0  0.22093672240E+01  0.38948053424E+02 -0.42237755401E+03  0.42417523537E+03  0.00000000000E+00 0. -1.
         22    1    3    3    0    0  0.38656901052E+02 -0.44889297621E+02 -0.11838182766E+03  0.13237696990E+03  0.00000000000E+00 0. -1.
</event>
<event>
 7    1  0.6235964E-006  0.4484304E+02  0.7818608E-02  0.1541758E+00
          2   -1    0    0  502    0  0.00000000000E+00  0.00000000000E+00  0.10108011505E+04  0.10108011505E+04  0.00000000000E+00 0. -1.
          1   -1    0    0  501    0 -0.00000000000E+00 -0.00000000000E+00 -0.25012926390E+02  0.25012926390E+02  0.00000000000E+00 0. -1.
         25    2    1    2    0    0  0.70021496338E+02  0.97218065862E+01  0.50259655921E+03  0.52271126061E+03  0.12500494856E+03 0.  0.
          2    1    1    2  501    0 -0.27632381641E+02 -0.71920583261E+01  0.51076194818E+00  0.28557575105E+02  0.00000000000E+00 0. -1.
          1    1    1    2  502    0 -0.42389114697E+02 -0.25297482601E+01  0.48268090292E+03  0.48454524114E+03  0.00000000000E+00 0. -1.
         22    1    3    3    0    0  0.86722680179E+02 -0.63280325772E+00  0.18298578431E+03  0.20249696530E+03  0.00000000000E+00 0.  1.
         22    1    3    3    0    0 -0.16701183841E+02  0.10354609844E+02  0.31961077490E+03  0.32021429531E+03  0.00000000000E+00 0.  1.
</event>
<event>
 7    1  0.6235964E-006  0.8963404E+02  0.7818608E-02  0.1349961E+00
          2   -1    0    0  502    0  0.00000000000E+00  0.00000000000E+00  0.49595403804E+03  0.49595403804E+03  0.00000000000E+00 0. -1.
          1   -1    0    0  501    0 -0.00000000000E+00 -0.00000000000E+00 -0.11375254505E+04  0.11375254505E+04  0.00000000000E+00 0. -1.
         25    2    1    2    0    0 -0.92927282136E+02  0.23863760191E+02 -0.65667208814E+02  0.17070495553E+03  0.12499216260E+03 0.  0.
          2    1    1    2  501    0  0.83084260587E+02  0.34880433684E+02 -0.10153348370E+04  0.10193254977E+04  0.00000000000E+00 0. -1.
          1    1    1    2  502    0  0.98430215495E+01 -0.58744193875E+02  0.43943063336E+03  0.44344903532E+03  0.00000000000E+00 0. -1.
         22    1    3    3    0    0  0.17323780777E+02 -0.25107877639E+02  0.49723531308E+01  0.30907008843E+02  0.00000000000E+00 0. -1.
         22    1    3    3    0    0 -0.11025106291E+03  0.48971637830E+02 -0.70639561945E+02  0.13979794668E+03  0.00000000000E+00 0. -1.
</event>
<event>
 7    1  0.6235964E-006  0.1907164E+03  0.7818608E-02  0.1204895E+00
          2   -1    0    0  502    0  0.00000000000E+00  0.00000000000E+00  0.90919600939E+03  0.90919600939E+03  0.00000000000E+00 0. -1.
          1   -1    0    0  501    0 -0.00000000000E+00 -0.00000000000E+00 -0.10830532204E+04  0.10830532204E+04  0.00000000000E+00 0. -1.
         25    2    1    2    0    0 -0.58601171502E+02  0.15395131908E+03 -0.10521073663E+03  0.23202145952E+03  0.12501820918E+03 0.  0.
          2    1    1    2  501    0  0.16375760304E+03 -0.11405911096E+03 -0.89971585292E+03  0.92158268719E+03  0.00000000000E+00 0. -1.
          1    1    1    2  502    0 -0.10515643153E+03 -0.39892208129E+02  0.83106937856E+03  0.83864508306E+03  0.00000000000E+00 0. -1.
         22    1    3    3    0    0 -0.22918422561E+02  0.15214524735E+03 -0.42130313360E+02  0.15952552676E+03  0.00000000000E+00 0.  1.
         22    1    3    3    0    0 -0.35682748940E+02  0.18060717350E+01 -0.63080423266E+02  0.72495932758E+02  0.00000000000E+00 0.  1.
</event>
<event>
 7    1  0.6235964E-006  0.6641022E+02  0.7818608E-02  0.1406330E+00
          2   -1    0    0  502    0  0.00000000000E+00  0.00000000000E+00  0.12035868666E+04  0.12035868666E+04  0.00000000000E+00 0. -1.
          1   -1    0    0  501    0 -0.00000000000E+00 -0.00000000000E+00 -0.26326491400E+02  0.26326491400E+02  0.00000000000E+00 0. -1.
         25    2    1    2    0    0  0.75371857631E+01  0.77343139371E+02  0.73971143003E+03  0.75421714256E+03  0.12502690927E+03 0.  0.
          2    1    1    2  501    0  0.37988994211E+02 -0.55050176121E+02  0.46704338201E+02  0.81578065550E+02  0.00000000000E+00 0. -1.
          1    1    1    2  502    0 -0.45526179974E+02 -0.22292963250E+02  0.39084460701E+03  0.39411814993E+03  0.00000000000E+00 0. -1.
         22    1    3    3    0    0 -0.43267641710E+02  0.68698211566E+02  0.59681070392E+03  0.60230768665E+03  0.00000000000E+00 0. -1.
         22    1    3    3    0    0  0.50804827473E+02  0.86449278049E+01  0.14290072611E+03  0.15190945591E+03  0.00000000000E+00 0. -1.
</event>
<event>
 7    1  0.6235964E-006  0.7441036E+02  0.7818608E-02  0.1359355E+00
          2   -1    0    0  502    0  0.00000000000E+00  0.00000000000E+00  0.41478371118E+04  0.41478371118E+04  0.00000000000E+00 0. -1.
          1   -1    0    0  501    0 -0.00000000000E+00 -0.00000000000E+00 -0.83147449459E+02  0.83147449459E+02  0.00000000000E+00 0. -1.
         25    2    1    2    0    0 -0.31928938484E+02 -0.12112998578E+03  0.61561490604E+03  0.64054543537E+03  0.12499924669E+03 0.  0.
          2    1    1    2  501    0 -0.14593550710E+02  0.64633622680E+02 -0.54686704311E+02  0.85913401350E+02  0.00000000000E+00 0. -1.
          1    1    1    2  502    0  0.46522489195E+02  0.56496363097E+02  0.35037614606E+04  0.35045257245E+04  0.00000000000E+00 0. -1.
         22    1    3    3    0    0  0.12443200381E+02 -0.37458654365E+02  0.43333922700E+03  0.43513316315E+03  0.00000000000E+00 0.  1.
         22    1    3    3    0    0 -0.44372138865E+02 -0.83671331413E+02  0.18227567904E+03  0.20541227222E+03  0.00000000000E+00 0.  1.
</event>
<event>
 7    1  0.6235964E-006  0.9021295E+02  0.7818608E-02  0.1358035E+00
          2   -1    0    0  502    0  0.00000000000E+00  0.00000000000E+00  0.12812097550E+04  0.12812097550E+04  0.00000000000E+00 0. -1.
          1   -1    0    0  501    0 -0.00000000000E+00 -0.00000000000E+00 -0.18534505312E+04  0.18534505312E+04  0.00000000000E+00 0. -1.
         25    2    1    2    0    0  0.95678906944E+02 -0.93955570511E+02  0.15187340156E+03  0.23806117760E+03  0.12500196684E+03 0.  0.
          2    1    1    2  501    0 -0.42364995566E+02  0.79401000839E+02 -0.18085340846E+04  0.18107718926E+04  0.00000000000E+00 0. -1.
          1    1    1    2  502    0 -0.53313911378E+02  0.14554569672E+02  0.10844199069E+04  0.10858272160E+04  0.00000000000E+00 0. -1.
         22    1    3    3    0    0  0.10505870487E+03 -0.30729275432E+02  0.13123731419E+03  0.17089427280E+03  0.00000000000E+00 0. -1.
         22    1    3    3    0    0 -0.93797979295E+01 -0.63226295079E+02  0.20636087368E+02  0.67166904801E+02  0.00000000000E+00 0. -1.
</event>
<event>
 7    1  0.6235964E-006  0.6694656E+02  0.7818608E-02  0.1425339E+00
          2   -1    0    0  502    0  0.00000000000E+00  0.00000000000E+00  0.34648463005E+03  0.34648463005E+03  0.00000000000E+00 0. -1.
          1   -1    0    0  501    0 -0.00000000000E+00 -0.00000000000E+00 -0.10382438547E+04  0.10382438547E+04  0.00000000000E+00 0. -1.
         25    2    1    2    0    0 -0.10867249984E+02 -0.68509504502E+02  0.65880674595E+02  0.15740425884E+03  0.12499675230E+03 0.  0.
          2    1    1    2  501    0 -0.31528010112E+02  0.59189851464E+02 -0.98933130368E+03  0.99160167526E+03  0.00000000000E+00 0. -1.
          1    1    1    2  502    0  0.42395260096E+02  0.93196530381E+01  0.23169140442E+03  0.23572255067E+03  0.00000000000E+00 0. -1.
         22    1    3    3    0    0 -0.17183182738E+02 -0.78721532888E+02  0.95791511259E+02  0.12517330042E+03  0.00000000000E+00 0.  1.
         22    1    3    3    0    0  0.63159327539E+01  0.10212028387E+02 -0.29910836664E+02  0.32230958414E+02  0.00000000000E+00 0.  1.
</event>
<event>
 7    1  0.6235964E-006  0.1285588E+03  0.7818608E-02  0.1374799E+00
          2   -1    0    0  502    0  0.00000000000E+00  0.00000000000E+00  0.16860294508E+04  0.16860294508E+04  0.00000000000E+00 0. -1.
          1   -1    0    0  501    0 -0.00000000000E+00 -0.00000000000E+00 -0.15244871371E+04  0.15244871371E+04  0.00000000000E+00 0. -1.
         25    2    1    2    0    0  0.80236862215E+02 -0.12567325589E+03  0.96481006290E+03  0.98423353700E+03  0.12500190629E+03 0.  0.
          2    1    1    2  501    0 -0.27339608451E+02  0.19755482294E+02 -0.15096607128E+04  0.15100374833E+04  0.00000000000E+00 0. -1.
          1    1    1    2  502    0 -0.52897253764E+02  0.10591777360E+03  0.70639296351E+03  0.71624556760E+03  0.00000000000E+00 0. -1.
         22    1    3    3    0    0  0.79671517170E+02 -0.14629909241E+02  0.33087386989E+03  0.34064512718E+03  0.00000000000E+00 0.  1.
         22    1    3    3    0    0  0.56534504454E+00 -0.11104334665E+03  0.63393619301E+03  0.64358840982E+03  0.00000000000E+00 0.  1.
</event>
<event>
 7    1  0.7596853E-006  0.8448566E+02  0.7818608E-02  0.1349380E+00
          2   -1    0    0  502    0  0.00000000000E+00  0.00000000000E+00  0.12113093819E+04  0.12113093819E+04  0.00000000000E+00 0. -1.
          1   -1    0    0  501    0 -0.00000000000E+00 -0.00000000000E+00 -0.64708530520E+03  0.64708530520E+03  0.00000000000E+00 0. -1.
         25    2    1    2    0    0  0.56696196785E+02 -0.39988020435E+02 -0.27128999491E+03  0.30665612519E+03  0.12500486900E+03 0.  0.
          2    1    1    2  501    0 -0.21182003010E+02  0.92636651604E+02 -0.35094399365E+03  0.36358205835E+03  0.00000000000E+00 0. -1.
          1    1    1    2  502    0 -0.35514193774E+02 -0.52648631169E+02  0.11864580653E+04  0.11881565036E+04  0.00000000000E+00 0. -1.
         22    1    3    3    0    0  0.73507221767E+00  0.88254054653E+01 -0.21050574970E+03  0.21069195231E+03  0.00000000000E+00 0. -1.
         22    1    3    3    0    0  0.55961124567E+02 -0.48813425900E+02 -0.60784245210E+02  0.95964172881E+02  0.00000000000E+00 0. -1.
</event>
<event>
 7    1  0.6235964E-006  0.1411300E+03  0.7818608E-02  0.1296637E+00
          2   -1    0    0  502    0  0.00000000000E+00  0.00000000000E+00  0.49617703916E+03  0.49617703916E+03  0.00000000000E+00 0. -1.
          1   -1    0    0  501    0 -0.00000000000E+00 -0.00000000000E+00 -0.39568271521E+03  0.39568271521E+03  0.00000000000E+00 0. -1.
         25    2    1    2    0    0 -0.17426920611E+02  0.19440609498E+03  0.33797473303E+03  0.40981626487E+03  0.12500009385E+03 0.  0.
          2    1    1    2  501    0  0.32162960711E+02 -0.13544008359E+03 -0.33745670322E+03  0.36504177683E+03  0.00000000000E+00 0. -1.
          1    1    1    2  502    0 -0.14736040100E+02 -0.58966011385E+02  0.99976294145E+02  0.11700171267E+03  0.00000000000E+00 0. -1.
         22    1    3    3    0    0 -0.70962729835E+01  0.20290214280E+03  0.34027854405E+03  0.39624376863E+03  0.00000000000E+00 0.  1.
         22    1    3    3    0    0 -0.10330647628E+02 -0.84960478158E+01 -0.23038110225E+01  0.13572496238E+02  0.00000000000E+00 0.  1.
</event>
<event>
 7    1  0.6235964E-006  0.6841016E+02  0.7818608E-02  0.1431464E+00
          2   -1    0    0  502    0  0.00000000000E+00  0.00000000000E+00  0.14030523470E+04  0.14030523470E+04  0.00000000000E+00 0. -1.
          1   -1    0    0  501    0 -0.00000000000E+00 -0.00000000000E+00 -0.21843036641E+03  0.21843036641E+03  0.00000000000E+00 0. -1.
         25    2    1    2    0    0  0.44853319683E+02 -0.59812932351E+02  0.31851273287E+03  0.35023600649E+03  0.12500196831E+03 0.  0.
          2    1    1    2  501    0 -0.52045345067E+01  0.68301704024E+02 -0.19638006046E+03  0.20798398520E+03  0.00000000000E+00 0. -1.
          1    1    1    2  502    0 -0.39648785176E+02 -0.84887716732E+01  0.10624893082E+04  0.10632627217E+04  0.00000000000E+00 0. -1.
         22    1    3    3    0    0 -0.37071146978E+02 -0.48656810025E+02  0.16319436121E+03  0.17428182530E+03  0.00000000000E+00 0. -1.
         22    1    3    3    0    0  0.81924466661E+02 -0.11156122326E+02  0.15531837166E+03  0.17595418119E+03  0.00000000000E+00 0. -1.
</event>
<event>
 7    1  0.6235964E-006  0.1258743E+03  0.7818608E-02  0.1316036E+00
          2   -1    0    0  502    0  0.00000000000E+00  0.00000000000E+00  0.44284668455E+03  0.44284668455E+03  0.00000000000E+00 0. -1.
          1   -1    0    0  501    0 -0.00000000000E+00 -0.00000000000E+00 -0.44233715023E+03  0.44233715023E+03  0.00000000000E+00 0. -1.
         25    2    1    2    0    0 -0.15517436261E+03 -0.45564656789E+02 -0.23177423241E+03  0.30903006395E+03  0.12500025943E+03 0.  0.
          2    1    1    2  501    0  0.51679689628E+02 -0.24253238986E+02 -0.15715037010E+03  0.16719823188E+03  0.00000000000E+00 0. -1.
          1    1    1    2  502    0  0.10349467298E+03  0.69817895774E+02  0.38943413683E+03  0.40895553895E+03  0.00000000000E+00 0. -1.
         22    1    3    3    0    0  0.67956646125E+01  0.26294796046E+02 -0.33129424912E+02  0.42838722572E+02  0.00000000000E+00 0. -1.
         22    1    3    3    0    0 -0.16197002722E+03 -0.71859452835E+02 -0.19864480750E+03  0.26619134138E+03  0.00000000000E+00 0. -1.
</event>
<event>
 7    1  0.6235964E-006  0.1047467E+03  0.7818608E-02  0.1348747E+00
          2   -1    0    0  502    0  0.00000000000E+00  0.00000000000E+00  0.42309086783E+03  0.42309086783E+03  0.00000000000E+00 0. -1.
          1   -1    0    0  501    0 -0.00000000000E+00 -0.00000000000E+00 -0.27721067744E+04  0.27721067744E+04  0.00000000000E+00 0. -1.
         25    2    1    2    0    0  0.11367309876E+03 -0.84762993204E+02  0.15615912090E+03  0.24518811884E+03  0.12500081673E+03 0.  0.
          2    1    1    2  501    0 -0.62176416340E+02  0.84104009387E+02 -0.27235937289E+04  0.27256012532E+04  0.00000000000E+00 0. -1.
          1    1    1    2  502    0 -0.51496682418E+02  0.65898381683E+00  0.21841870148E+03  0.22440827016E+03  0.00000000000E+00 0. -1.
         22    1    3    3    0    0  0.72958288643E+02 -0.16878264923E+02  0.56078330722E+01  0.75094843367E+02  0.00000000000E+00 0.  1.
         22    1    3    3    0    0  0.40714810115E+02 -0.67884728282E+02  0.15055128783E+03  0.17009327548E+03  0.00000000000E+00 0.  1.
</event>
<event>
 7    1  0.6235964E-006  0.8927712E+02  0.7818608E-02  0.1403997E+00
          2   -1    0    0  502    0  0.00000000000E+00  0.00000000000E+00  0.36784138717E+03  0.36784138717E+03  0.00000000000E+00 0. -1.
          1   -1    0    0  501    0 -0.00000000000E+00 -0.00000000000E+00 -0.12955539286E+04  0.12955539286E+04  0.00000000000E+00 0. -1.
         25    2    1    2    0    0  0.60164764723E+02  0.34967401341E+01 -0.43510487404E+03  0.45669836008E+03  0.12500045834E+03 0.  0.
          2    1    1    2  501    0  0.26045851320E+02 -0.28223627610E+02 -0.84357639145E+03  0.84445016889E+03  0.00000000000E+00 0. -1.
          1    1    1    2  502    0 -0.86210616043E+02  0.24726887476E+02  0.35096872405E+03  0.36224678680E+03  0.00000000000E+00 0. -1.
         22    1    3    3    0    0  0.66022000147E+02  0.35234782503E+02 -0.40724205226E+03  0.41406096596E+03  0.00000000000E+00 0.  1.
         22    1    3    3    0    0 -0.58572354242E+01 -0.31738042369E+02 -0.27862821778E+02  0.42637394124E+02  0.00000000000E+00 0.  1.
</event>
<event>
 7    1  0.6235964E-006  0.1312710E+03  0.7818608E-02  0.1282075E+00
          2   -1    0    0  502    0  0.00000000000E+00  0.00000000000E+00  0.49704739279E+03  0.49704739279E+03  0.00000000000E+00 0. -1.
          1   -1    0    0  501    0 -0.00000000000E+00 -0.00000000000E+00 -0.74011502697E+03  0.74011502697E+03  0.00000000000E+00 0. -1.
         25    2    1    2    0    0 -0.54939893860E+02  0.32671959699E+02  0.97212084658E+02  0.17076796361E+03  0.12500263639E+03 0.  0.
          2    1    1    2  501    0  0.12977481471E+03 -0.35847774361E+02 -0.69292432778E+03  0.70588291486E+03  0.00000000000E+00 0. -1.
          1    1    1    2  502    0 -0.74834920847E+02  0.31758146625E+01  0.35264460895E+03  0.36051154129E+03  0.00000000000E+00 0. -1.
         22    1    3    3    0    0 -0.53740263597E+02 -0.11822300304E+02 -0.88613670166E+01  0.55734249267E+02  0.00000000000E+00 0. -1.
         22    1    3    3    0    0 -0.11996302630E+01  0.44494260003E+02  0.10607345167E+03  0.11503371435E+03  0.00000000000E+00 0. -1.
</event>
<event>
 7    1  0.6235964E-006  0.4816165E+02  0.7818608E-02  0.1494670E+00
          2   -1    0    0  502    0  0.00000000000E+00  0.00000000000E+00  0.34065716071E+04  0.34065716071E+04  0.00000000000E+00 0. -1.
          1   -1    0    0  501    0 -0.00000000000E+00 -0.00000000000E+00 -0.44279945451E+02  0.44279945451E+02  0.00000000000E+00 0. -1.
         25    2    1    2    0    0  0.36486028505E+02 -0.63458211601E+02  0.11686972039E+04  0.11776404337E+04  0.12500264757E+03 0.  0.
          2    1    1    2  501    0 -0.32502581578E+02  0.16507429331E+02 -0.31160539178E+02  0.47957191684E+02  0.00000000000E+00 0. -1.
          1    1    1    2  502    0 -0.39834469264E+01  0.46950782270E+02  0.22247549970E+04  0.22252539272E+04  0.00000000000E+00 0. -1.
         22    1    3    3    0    0  0.12458961839E+02 -0.84110089767E+02  0.43345634085E+03  0.44171725386E+03  0.00000000000E+00 0.  1.
         22    1    3    3    0    0  0.24027066666E+02  0.20651878167E+02  0.73524086304E+03  0.73592317988E+03  0.00000000000E+00 0.  1.
</event>
<event>
 7    1  0.6235964E-006  0.1269802E+03  0.7818608E-02  0.1278589E+00
          2   -1    0    0  502    0  0.00000000000E+00  0.00000000000E+00  0.75552264074E+03  0.75552264074E+03  0.00000000000E+00 0. -1.
          1   -1    0    0  501    0 -0.00000000000E+00 -0.00000000000E+00 -0.14753196001E+04  0.14753196001E+04  0.00000000000E+00 0. -1.
         25    2    1    2    0    0 -0.15976170185E+03  0.12969812688E+03 -0.96171233394E+03  0.99139354332E+03  0.12500055594E+03 0.  0.
          2    1    1    2  501    0  0.56154022697E+02 -0.57040857165E+02 -0.49009110881E+03  0.49658456338E+03  0.00000000000E+00 0. -1.
          1    1    1    2  502    0  0.10360767915E+03 -0.72657269718E+02  0.73200648341E+03  0.74286413413E+03  0.00000000000E+00 0. -1.
         22    1    3    3    0    0  0.20851654362E+02  0.84493956095E+01 -0.11521603935E+03  0.11739216115E+03  0.00000000000E+00 0. -1.
         22    1    3    3    0    0 -0.18061335621E+03  0.12124873127E+03 -0.84649629459E+03  0.87400138217E+03  0.00000000000E+00 0. -1.
</event>
<event>
 7    1  0.6235964E-006  0.7777928E+02  0.7818608E-02  0.1382972E+00
          2   -1    0    0  502    0  0.00000000000E+00  0.00000000000E+00  0.10952561257E+04  0.10952561257E+04  0.00000000000E+00 0. -1.
          1   -1    0    0  501    0 -0.00000000000E+00 -0.00000000000E+00 -0.29091381664E+03  0.29091381664E+03  0.00000000000E+00 0. -1.
         25    2    1    2    0    0  0.64059238266E+02  0.10088509458E+03  0.66896480414E+03  0.69095340652E+03  0.12498524908E+03 0.  0.
          2    1    1    2  501    0 -0.27945816099E+02 -0.44031632767E+02 -0.27471929043E+03  0.27962553863E+03  0.00000000000E+00 0. -1.
          1    1    1    2  502    0 -0.36113422167E+02 -0.56853461810E+02  0.41009679534E+03  0.41559099717E+03  0.00000000000E+00 0. -1.
         22    1    3    3    0    0  0.30184853766E+02  0.66175399984E+02  0.61126727659E+03  0.61557939569E+03  0.00000000000E+00 0. -1.
         22    1    3    3    0    0  0.33874384500E+02  0.34709694594E+02  0.57697527544E+02  0.75374010831E+02  0.00000000000E+00 0. -1.
</event>
<event>
 7    1  0.6235964E-006  0.8805344E+02  0.7818608E-02  0.1388218E+00
          2   -1    0    0  502    0  0.00000000000E+00  0.00000000000E+00  0.71128632170E+02  0.71128632170E+02  0.00000000000E+00 0. -1.
          1   -1    0    0  501    0 -0.00000000000E+00 -0.00000000000E+00 -0.36507484040E+03  0.36507484040E+03  0.00000000000E+00 0. -1.
         25    2    1    2    0    0 -0.93781960765E+02 -0.49687339754E+02 -0.21651230031E+03  0.27160056883E+03  0.12500161962E+03 0.  0.
          2    1    1    2  501    0  0.81982024593E+01  0.43384747770E+02 -0.63984713986E+02  0.77739889931E+02  0.00000000000E+00 0. -1.
          1    1    1    2  502    0  0.85583758306E+02  0.63025919842E+01 -0.13449193941E+02  0.86863013815E+02  0.00000000000E+00 0. -1.
         22    1    3    3    0    0 -0.49149524490E+02  0.21645000789E+02 -0.19094178109E+02  0.56997977635E+02  0.00000000000E+00 0. -1.
         22    1    3    3    0    0 -0.44632436275E+02 -0.71332340543E+02 -0.19741812220E+03  0.21460259119E+03  0.00000000000E+00 0. -1.
</event>
<event>
 7    1  0.6235964E-006  0.1840329E+03  0.7818608E-02  0.1166528E+00
          2   -1    0    0  502    0  0.00000000000E+00  0.00000000000E+00  0.62784631914E+03  0.62784631914E+03  0.00000000000E+00 0. -1.
          1   -1    0    0  501    0 -0.00000000000E+00 -0.00000000000E+00 -0.14372739644E+04  0.14372739644E+04  0.00000000000E+00 0. -1.
         25    2    1    2    0    0 -0.75978982953E+02 -0.78463449950E+01  0.17454736727E+02  0.14752095618E+03  0.12499357463E+03 0.  0.
          2    1    1    2  501    0 -0.85732041077E+02  0.16284383696E+03 -0.13426956247E+04  0.13552489213E+04  0.00000000000E+00 0. -1.
          1    1    1    2  502    0  0.16171102403E+03 -0.15499749197E+03  0.51581324272E+03  0.56235040604E+03  0.00000000000E+00 0. -1.
         22    1    3    3    0    0 -0.78762090327E+02 -0.45649153405E+02 -0.21106132612E+02  0.93449349453E+02  0.00000000000E+00 0.  1.
         22    1    3    3    0    0  0.27831073748E+01  0.37802808410E+02  0.38560869339E+02  0.54071606731E+02  0.00000000000E+00 0.  1.
</event>
<event>
 7    1  0.6235964E-006  0.5349139E+02  0.7818608E-02  0.1447070E+00
          2   -1    0    0  502    0  0.00000000000E+00  0.00000000000E+00  0.31187738865E+02  0.31187738865E+02  0.00000000000E+00 0. -1.
          1   -1    0    0  501    0 -0.00000000000E+00 -0.00000000000E+00 -0.16151381080E+04  0.16151381080E+04  0.00000000000E+00 0. -1.
         25    2    1    2    0    0 -0.83798268662E+02  0.31589294772E+02 -0.11228109883E+04  0.11332917281E+04  0.12500236840E+03 0.  0.
          2    1    1    2  501    0  0.45860495632E+02  0.50895726647E+01 -0.45784253205E+03  0.46016178999E+03  0.00000000000E+00 0. -1.
          1    1    1    2  502    0  0.37937773031E+02 -0.36678867436E+02 -0.32968487639E+01  0.52872328781E+02  0.00000000000E+00 0. -1.
         22    1    3    3    0    0 -0.67869287565E+02  0.60399196603E+02 -0.42018858393E+03  0.42989853362E+03  0.00000000000E+00 0. -1.
         22    1    3    3    0    0 -0.15928981097E+02 -0.28809901832E+02 -0.70262240441E+03  0.70339319450E+03  0.00000000000E+00 0. -1.
</event>
<event>
 7    1  0.6235964E-006  0.8005280E+02  0.7818608E-02  0.1347422E+00
          2   -1    0    0  502    0  0.00000000000E+00  0.00000000000E+00  0.85299461317E+02  0.85299461317E+02  0.00000000000E+00 0. -1.
          1   -1    0    0  501    0 -0.00000000000E+00 -0.00000000000E+00 -0.40274027131E+03  0.40274027131E+03  0.00000000000E+00 0. -1.
         25    2    1    2    0    0 -0.79434678098E+01  0.22899826069E+02 -0.15018939300E+03  0.19689902146E+03  0.12499948067E+03 0.  0.
          2    1    1    2  501    0 -0.27608897481E+02  0.62312931366E+02 -0.18496738177E+03  0.19712454173E+03  0.00000000000E+00 0. -1.
          1    1    1    2  502    0  0.35552365291E+02 -0.85212757435E+02  0.17715964773E+02  0.94016169436E+02  0.00000000000E+00 0. -1.
         22    1    3    3    0    0 -0.22990469025E+02  0.63313002551E+02 -0.39451907417E+02  0.78061200073E+02  0.00000000000E+00 0.  1.
         22    1    3    3    0    0  0.15047001215E+02 -0.40413176482E+02 -0.11073748558E+03  0.11883782139E+03  0.00000000000E+00 0.  1.
</event>
<event>
 7    1  0.6235964E-006  0.1270929E+03  0.7818608E-02  0.1235638E+00
          2   -1    0    0  502    0  0.00000000000E+00  0.00000000000E+00  0.90318206951E+03  0.90318206951E+03  0.00000000000E+00 0. -1.
          1   -1    0    0  501    0 -0.00000000000E+00 -0.00000000000E+00 -0.17435797016E+04  0.17435797016E+04  0.00000000000E+00 0. -1.
         25    2    1    2    0    0  0.24856205669E+02  0.10810348933E+03 -0.68195211942E+02  0.18049807737E+03  0.12499909455E+03 0.  0.
          2    1    1    2  501    0 -0.12054793207E+03 -0.20197114204E+02 -0.16119222412E+04  0.16165497329E+04  0.00000000000E+00 0. -1.
          1    1    1    2  502    0  0.95691726405E+02 -0.87906375121E+02  0.83971982106E+03  0.84971396080E+03  0.00000000000E+00 0. -1.
         22    1    3    3    0    0  0.15639743458E+02  0.13562561575E+03 -0.46372634692E+02  0.14418505634E+03  0.00000000000E+00 0.  1.
         22    1    3    3    0    0  0.92164622110E+01 -0.27522126425E+02 -0.21822577250E+02  0.36313021032E+02  0.00000000000E+00 0.  1.
</event>
<event>
 7    1  0.6235964E-006  0.9115140E+02  0.7818608E-02  0.1304930E+00
          2   -1    0    0  502    0  0.00000000000E+00  0.00000000000E+00  0.27580062205E+04  0.27580062205E+04  0.00000000000E+00 0. -1.
          1   -1    0    0  501    0 -0.00000000000E+00 -0.00000000000E+00 -0.10702159117E+03  0.10702159117E+03  0.00000000000E+00 0. -1.
         25    2    1    2    0    0  0.95837385744E+02  0.49191128928E+01  0.57356107642E+03  0.59481620988E+03  0.12500005190E+03 0.  0.
          2    1    1    2  501    0 -0.48990348431E+02 -0.78451423060E+02 -0.73118755918E+02  0.11790263986E+03  0.00000000000E+00 0. -1.
          1    1    1    2  502    0 -0.46847037313E+02  0.73532310167E+02  0.21505423088E+04  0.21523089619E+04  0.00000000000E+00 0. -1.
         22    1    3    3    0    0  0.30073920353E+02  0.22745933022E+02  0.46578076157E+03  0.46730454310E+03  0.00000000000E+00 0. -1.
         22    1    3    3    0    0  0.65763465391E+02 -0.17826820129E+02  0.10778031486E+03  0.12751166679E+03  0.00000000000E+00 0. -1.
</event>
<event>
 7    1  0.6235964E-006  0.5778133E+02  0.7818608E-02  0.1497593E+00
          2   -1    0    0  502    0  0.00000000000E+00  0.00000000000E+00  0.40000327858E+03  0.40000327858E+03  0.00000000000E+00 0. -1.
          1   -1    0    0  501    0 -0.00000000000E+00 -0.00000000000E+00 -0.12754795990E+03  0.12754795990E+03  0.00000000000E+00 0. -1.
         25    2    1    2    0    0  0.46948472609E+02  0.76405910036E+01  0.26838390665E+02  0.13640716635E+03  0.12499631237E+03 0.  0.
          2    1    1    2  501    0 -0.18028535249E+01  0.29723206706E+02 -0.66874844263E+02  0.73204945823E+02  0.00000000000E+00 0. -1.
          1    1    1    2  502    0 -0.45145619084E+02 -0.37363797710E+02  0.31249177227E+03  0.31793912631E+03  0.00000000000E+00 0. -1.
         22    1    3    3    0    0  0.89450127067E+02  0.13308067588E+02  0.13077960252E+02  0.91375395701E+02  0.00000000000E+00 0.  1.
         22    1    3    3    0    0 -0.42501654458E+02 -0.56674765847E+01  0.13760430413E+02  0.45031770648E+02  0.00000000000E+00 0.  1.
</event>
<event>
 7    1  0.6235964E-006  0.8087835E+02  0.7818608E-02  0.1393862E+00
          2   -1    0    0  502    0  0.00000000000E+00  0.00000000000E+00  0.90331356563E+03  0.90331356563E+03  0.00000000000E+00 0. -1.
          1   -1    0    0  501    0 -0.00000000000E+00 -0.00000000000E+00 -0.24055174372E+03  0.24055174372E+03  0.00000000000E+00 0. -1.
         25    2    1    2    0    0  0.44843894083E+02 -0.10631376853E+03  0.92178553016E+02  0.19348373507E+03  0.12500191154E+03 0.  0.
          2    1    1    2  501    0  0.65675004528E+01  0.45469450676E+02 -0.18499595805E+03  0.19061507680E+03  0.00000000000E+00 0. -1.
          1    1    1    2  502    0 -0.51411394536E+02  0.60844317850E+02  0.75557922694E+03  0.75976649748E+03  0.00000000000E+00 0. -1.
         22    1    3    3    0    0  0.40132291887E+02 -0.13510348854E+03  0.75866486170E+02  0.16006022989E+03  0.00000000000E+00 0.  1.
         22    1    3    3    0    0  0.47116021960E+01  0.28789720018E+02  0.16312066846E+02  0.33423505184E+02  0.00000000000E+00 0.  1.
</event>
<event>
 7    1  0.6235964E-006  0.1439987E+03  0.7818608E-02  0.1323417E+00
          2   -1    0    0  502    0  0.00000000000E+00  0.00000000000E+00  0.11304091551E+03  0.11304091551E+03  0.00000000000E+00 0. -1.
          1   -1    0    0  501    0 -0.00000000000E+00 -0.00000000000E+00 -0.30971602428E+04  0.30971602428E+04  0.00000000000E+00 0. -1.
         25    2    1    2    0    0  0.11257151328E+03 -0.46126509486E+02 -0.32191535261E+03  0.36613489681E+03  0.12500107171E+03 0.  0.
          2    1    1    2  501    0  0.37172719622E+01 -0.46568555567E+02 -0.26919938795E+04  0.26923992081E+04  0.00000000000E+00 0. -1.
          1    1    1    2  502    0 -0.11628878525E+03  0.92695065054E+02  0.29789904825E+02  0.15166705341E+03  0.00000000000E+00 0. -1.
         22    1    3    3    0    0  0.11956863308E+03 -0.66585069271E+02 -0.20016442643E+03  0.24247892089E+03  0.00000000000E+00 0.  1.
         22    1    3    3    0    0 -0.69971197945E+01  0.20458559785E+02 -0.12175092618E+03  0.12365597592E+03  0.00000000000E+00 0.  1.
</event>
<event>
 7    1  0.6235964E-006  0.1109477E+03  0.7818608E-02  0.1264062E+00
          2   -1    0    0  502    0  0.00000000000E+00  0.00000000000E+00  0.27209666647E+04  0.27209666647E+04  0.00000000000E+00 0. -1.
          1   -1    0    0  501    0 -0.00000000000E+00 -0.00000000000E+00 -0.39962202235E+02  0.39962202235E+02  0.00000000000E+00 0. -1.
         25    2    1    2    0    0  0.47138714841E+02 -0.32285135622E+02  0.98462937749E+03  0.99417551795E+03  0.12500224425E+03 0.  0.
          2    1    1    2  501    0 -0.10673668723E+03 -0.54640963648E+02  0.73887975741E+02  0.14084668355E+03  0.00000000000E+00 0. -1.
          1    1    1    2  502    0  0.59597972386E+02  0.86926099270E+02  0.16224871092E+04  0.16259066654E+04  0.00000000000E+00 0. -1.
         22    1    3    3    0    0  0.68747683378E+01 -0.44109541385E+02  0.11245108099E+03  0.12098826264E+03  0.00000000000E+00 0.  1.
         22    1    3    3    0    0  0.40263946503E+02  0.11824405763E+02  0.87217829650E+03  0.87318725531E+03  0.00000000000E+00 0.  1.
</event>
<event>
 7    1  0.6235964E-006  0.7382201E+02  0.7818608E-02  0.1385915E+00
          2   -1    0    0  502    0  0.00000000000E+00  0.00000000000E+00  0.85701850559E+03  0.85701850559E+03  0.00000000000E+00 0. -1.
          1   -1    0    0  501    0 -0.00000000000E+00 -0.00000000000E+00 -0.72765533796E+03  0.72765533796E+03  0.00000000000E+00 0. -1.
         25    2    1    2    0    0  0.16668370707E+02  0.12338219725E+02 -0.25756495531E+03  0.28704514520E+03  0.12500057173E+03 0.  0.
          2    1    1    2  501    0  0.48199791910E+02  0.23566116824E+02 -0.45212950741E+03  0.45530173871E+03  0.00000000000E+00 0. -1.
          1    1    1    2  502    0 -0.64868162617E+02 -0.35904336549E+02  0.83905763034E+03  0.84232695964E+03  0.00000000000E+00 0. -1.
         22    1    3    3    0    0 -0.35706057829E+01 -0.27026429994E+02 -0.23642807744E+03  0.23799456495E+03  0.00000000000E+00 0. -1.
         22    1    3    3    0    0  0.20238976490E+02  0.39364649719E+02 -0.21136877869E+02  0.49050580251E+02  0.00000000000E+00 0. -1.
</event>
<event>
 7    1  0.6235964E-006  0.5786589E+02  0.7818608E-02  0.1479323E+00
          2   -1    0    0  502    0  0.00000000000E+00  0.00000000000E+00  0.86209665286E+03  0.86209665286E+03  0.00000000000E+00 0. -1.
          1   -1    0    0  501    0 -0.00000000000E+00 -0.00000000000E+00 -0.42323369074E+03  0.42323369074E+03  0.00000000000E+00 0. -1.
         25    2    1    2    0    0  0.19393910886E+02 -0.50351807475E+02  0.86604870586E+01  0.13640785177E+03  0.12498267757E+03 0.  0.
          2    1    1    2  501    0 -0.48227766283E+02  0.32754561141E+02 -0.35663077569E+03  0.36136448205E+03  0.00000000000E+00 0. -1.
          1    1    1    2  502    0  0.28833855397E+02  0.17597246334E+02  0.78683325075E+03  0.78755800979E+03  0.00000000000E+00 0. -1.
         22    1    3    3    0    0 -0.45956210795E+02 -0.15780129144E+02  0.32812580568E+02  0.58631486677E+02  0.00000000000E+00 0. -1.
         22    1    3    3    0    0  0.65350121681E+02 -0.34571678331E+02 -0.24152093509E+02  0.77776365094E+02  0.00000000000E+00 0. -1.
</event>
<event>
 7    1  0.6235964E-006  0.2496301E+03  0.7818608E-02  0.1203835E+00
          2   -1    0    0  502    0  0.00000000000E+00  0.00000000000E+00  0.62881317677E+03  0.62881317677E+03  0.00000000000E+00 0. -1.
          1   -1    0    0  501    0 -0.00000000000E+00 -0.00000000000E+00 -0.35607849672E+03  0.35607849672E+03  0.00000000000E+00 0. -1.
         25    2    1    2    0    0 -0.68075003121E+02  0.20065587768E+03  0.68198623097E+02  0.25528735624E+03  0.12499437895E+03 0.  0.
          2    1    1    2  501    0  0.13418644930E+02 -0.26823324093E+03 -0.18782600248E+03  0.32773119897E+03  0.00000000000E+00 0. -1.
          1    1    1    2  502    0  0.54656358191E+02  0.67577363256E+02  0.39236205942E+03  0.40187311827E+03  0.00000000000E+00 0. -1.
         22    1    3    3    0    0 -0.71151775112E+02  0.45363455064E+02  0.52009172457E+02  0.99123015373E+02  0.00000000000E+00 0. -1.
         22    1    3    3    0    0  0.30767719912E+01  0.15529242261E+03  0.16189450641E+02  0.15616434087E+03  0.00000000000E+00 0. -1.
</event>
<event>
 7    1  0.6235964E-006  0.1223695E+03  0.7818608E-02  0.1287479E+00
          2   -1    0    0  502    0  0.00000000000E+00  0.00000000000E+00  0.42694459190E+03  0.42694459190E+03  0.00000000000E+00 0. -1.
          1   -1    0    0  501    0 -0.00000000000E+00 -0.00000000000E+00 -0.22806873288E+04  0.22806873288E+04  0.00000000000E+00 0. -1.
         25    2    1    2    0    0 -0.68050584155E+01 -0.19200421683E+03 -0.51166240518E+03  0.56065614510E+03  0.12499987224E+03 0.  0.
          2    1    1    2  501    0 -0.57708447253E+01  0.11669375472E+03 -0.17389285401E+04  0.17428491623E+04  0.00000000000E+00 0. -1.
          1    1    1    2  502    0  0.12575903141E+02  0.75310462115E+02  0.39684820839E+03  0.40412661327E+03  0.00000000000E+00 0. -1.
         22    1    3    3    0    0  0.12946901939E+02  0.15673316679E+01 -0.14481176478E+03  0.14539781985E+03  0.00000000000E+00 0.  1.
         22    1    3    3    0    0 -0.19751960354E+02 -0.19357154850E+03 -0.36685064040E+03  0.41525832525E+03  0.00000000000E+00 0.  1.
</event>
<event>
 7    1  0.6235964E-006  0.7346736E+02  0.7818608E-02  0.1353583E+00
          2   -1    0    0  502    0  0.00000000000E+00  0.00000000000E+00  0.20489623606E+04  0.20489623606E+04  0.00000000000E+00 0. -1.
          1   -1    0    0  501    0 -0.00000000000E+00 -0.00000000000E+00 -0.18534854546E+04  0.18534854546E+04  0.00000000000E+00 0. -1.
         25    2    1    2    0    0 -0.10557947520E+03  0.28500574840E+02  0.36394437708E+03  0.40004904291E+03  0.12499767508E+03 0.  0.
          2    1    1    2  501    0  0.63316159444E+02  0.30925153030E+02 -0.18339586942E+04  0.18353119062E+04  0.00000000000E+00 0. -1.
          1    1    1    2  502    0  0.42263315756E+02 -0.59425727869E+02  0.16654912231E+04  0.16670868661E+04  0.00000000000E+00 0. -1.
         22    1    3    3    0    0 -0.80315475421E+02 -0.37868360424E+02  0.14657432540E+03  0.17137275507E+03  0.00000000000E+00 0. -1.
         22    1    3    3    0    0 -0.25263999779E+02  0.66368935263E+02  0.21737005169E+03  0.22867628785E+03  0.00000000000E+00 0. -1.
</event>
<event>
 7    1  0.6235964E-006  0.1178206E+03  0.7818608E-02  0.1365632E+00
          2   -1    0    0  502    0  0.00000000000E+00  0.00000000000E+00  0.11300887077E+04  0.11300887077E+04  0.00000000000E+00 0. -1.
          1   -1    0    0  501    0 -0.00000000000E+00 -0.00000000000E+00 -0.85620050845E+02  0.85620050845E+02  0.00000000000E+00 0. -1.
         25    2    1    2    0    0 -0.67139842082E+02 -0.73541562233E+02  0.15577887289E+03  0.22317733526E+03  0.12499978385E+03 0.  0.
          2    1    1    2  501    0  0.58082551329E+02  0.11219976041E+03  0.26077012558E+02  0.12900534714E+03  0.00000000000E+00 0. -1.
          1    1    1    2  502    0  0.90572907527E+01 -0.38658198180E+02  0.86261277136E+03  0.86352607611E+03  0.00000000000E+00 0. -1.
         22    1    3    3    0    0 -0.90954215260E+02 -0.11995838652E+02  0.72559060943E+02  0.11696746019E+03  0.00000000000E+00 0.  1.
         22    1    3    3    0    0  0.23814373179E+02 -0.61545723580E+02  0.83219811947E+02  0.10620987507E+03  0.00000000000E+00 0.  1.
</event>
<event>
 7    1  0.6235964E-006  0.1840652E+03  0.7818608E-02  0.1380950E+00
          2   -1    0    0  502    0  0.00000000000E+00  0.00000000000E+00  0.84244001049E+03  0.84244001049E+03  0.00000000000E+00 0. -1.
          1   -1    0    0  501    0 -0.00000000000E+00 -0.00000000000E+00 -0.83217412057E+03  0.83217412057E+03  0.00000000000E+00 0. -1.
         25    2    1    2    0    0  0.10981096749E+03  0.17000943396E+03  0.12614002984E+02  0.23821491886E+03  0.12500231311E+03 0.  0.
          2    1    1    2  501    0 -0.18825313696E+02 -0.12144249694E+02 -0.70761800218E+03  0.70797253636E+03  0.00000000000E+00 0. -1.
          1    1    1    2  502    0 -0.90985653792E+02 -0.15786518426E+03  0.70526988911E+03  0.72842667585E+03  0.00000000000E+00 0. -1.
         22    1    3    3    0    0  0.38825591013E+02  0.16011410332E+03 -0.33437431443E+01  0.16478814647E+03  0.00000000000E+00 0.  1.
         22    1    3    3    0    0  0.70985376475E+02  0.98953306339E+01  0.15957746129E+02  0.73426772386E+02  0.00000000000E+00 0.  1.
</event>
<event>
 7    1  0.6235964E-006  0.6372765E+02  0.7818608E-02  0.1434003E+00
          2   -1    0    0  502    0  0.00000000000E+00  0.00000000000E+00  0.19957558606E+04  0.19957558606E+04  0.00000000000E+00 0. -1.
          1   -1    0    0  501    0 -0.00000000000E+00 -0.00000000000E+00 -0.18123186302E+03  0.18123186302E+03  0.00000000000E+00 0. -1.
         25    2    1    2    0    0  0.80843610365E+02  0.53571955592E+02  0.16180070857E+03  0.22630024275E+03  0.12500674707E+03 0.  0.
          2    1    1    2  501    0 -0.42578755805E+02 -0.32154385065E+01 -0.14535508287E+03  0.15149716039E+03  0.00000000000E+00 0. -1.
          1    1    1    2  502    0 -0.38264854560E+02 -0.50356517086E+02  0.17980783718E+04  0.17991903204E+04  0.00000000000E+00 0. -1.
         22    1    3    3    0    0  0.10847623728E+03  0.66531896785E+02  0.13690702872E+03  0.18691474489E+03  0.00000000000E+00 0.  1.
         22    1    3    3    0    0 -0.27632626911E+02 -0.12959941193E+02  0.24893679841E+02  0.39385497861E+02  0.00000000000E+00 0.  1.
</event>
<event>
 7    1  0.6235964E-006  0.3330505E+02  0.7818608E-02  0.1583909E+00
          2   -1    0    0  502    0  0.00000000000E+00  0.00000000000E+00  0.87790508485E+03  0.87790508485E+03  0.00000000000E+00 0. -1.
          1   -1    0    0  501    0 -0.00000000000E+00 -0.00000000000E+00 -0.18545447251E+03  0.18545447251E+03  0.00000000000E+00 0. -1.
         25    2    1    2    0    0  0.34107585608E+02  0.21487413121E+01  0.17479026589E+03  0.21756551737E+03  0.12496068507E+03 0.  0.
          2    1    1    2  501    0 -0.19032573961E+02 -0.27458167646E+02 -0.16204367553E+03  0.16545193447E+03  0.00000000000E+00 0. -1.
          1    1    1    2  502    0 -0.15075011647E+02  0.25309426334E+02  0.67970402197E+03  0.68034210551E+03  0.00000000000E+00 0. -1.
         22    1    3    3    0    0  0.11157737046E+02  0.33097152496E+02 -0.35532232879E+01  0.35107577460E+02  0.00000000000E+00 0. -1.
         22    1    3    3    0    0  0.22949848562E+02 -0.30948411184E+02  0.17834348918E+03  0.18245793991E+03  0.00000000000E+00 0. -1.
</event>
<event>
 7    1  0.6235964E-006  0.3982821E+02  0.7818608E-02  0.1556409E+00
          2   -1    0    0  502    0  0.00000000000E+00  0.00000000000E+00  0.15223403621E+02  0.15223403621E+02  0.00000000000E+00 0. -1.
          1   -1    0    0  501    0 -0.00000000000E+00 -0.00000000000E+00 -0.46371136122E+04  0.46371136122E+04  0.00000000000E+00 0. -1.
         25    2    1    2    0    0 -0.89450362817E+01  0.16465155448E+02 -0.16545355012E+04  0.16593562883E+04  0.12499780747E+03 0.  0.
          2    1    1    2  501    0  0.38194875894E+02 -0.15798586549E+02 -0.29631318420E+04  0.29634201115E+04  0.00000000000E+00 0. -1.
          1    1    1    2  502    0 -0.29249839612E+02 -0.66656889904E+00 -0.42228654353E+01  0.29560616095E+02  0.00000000000E+00 0. -1.
         22    1    3    3    0    0  0.15076694833E+01  0.37206960148E+02 -0.14704048343E+03  0.15168234808E+03  0.00000000000E+00 0.  1.
         22    1    3    3    0    0 -0.10452705765E+02 -0.20741804700E+02 -0.15074950177E+04  0.15076739402E+04  0.00000000000E+00 0.  1.
</event>
<event>
 7    1  0.6235964E-006  0.5980480E+02  0.7818608E-02  0.1426112E+00
          2   -1    0    0  502    0  0.00000000000E+00  0.00000000000E+00  0.90319444758E+03  0.90319444758E+03  0.00000000000E+00 0. -1.
          1   -1    0    0  501    0 -0.00000000000E+00 -0.00000000000E+00 -0.15330182340E+04  0.15330182340E+04  0.00000000000E+00 0. -1.
         25    2    1    2    0    0 -0.68589970016E+02 -0.44139368247E+02 -0.62661665247E+02  0.16187909501E+03  0.12500195716E+03 0.  0.
          2    1    1    2  501    0  0.21676214714E+02  0.55650549866E+02 -0.14194360004E+04  0.14206918742E+04  0.00000000000E+00 0. -1.
          1    1    1    2  502    0  0.46913755302E+02 -0.11511181620E+02  0.85227387930E+03  0.85364171236E+03  0.00000000000E+00 0. -1.
         22    1    3    3    0    0 -0.48978123249E+02 -0.17245960985E+02  0.32368628305E+02  0.61188298110E+02  0.00000000000E+00 0.  1.
         22    1    3    3    0    0 -0.19611846768E+02 -0.26893407261E+02 -0.95030293552E+02  0.10069079690E+03  0.00000000000E+00 0.  1.
</event>
<event>
 7    1  0.6235964E-006  0.1255584E+03  0.7818608E-02  0.1255601E+00
          2   -1    0    0  502    0  0.00000000000E+00  0.00000000000E+00  0.84080265847E+03  0.84080265847E+03  0.00000000000E+00 0. -1.
          1   -1    0    0  501    0 -0.00000000000E+00 -0.00000000000E+00 -0.18754641082E+03  0.18754641082E+03  0.00000000000E+00 0. -1.
         25    2    1    2    0    0 -0.79395319518E+02  0.68246952675E+02  0.33122380982E+03  0.36917210777E+03  0.12497027506E+03 0.  0.
          2    1    1    2  501    0  0.12806821492E+03  0.20488435006E+02 -0.13727359860E+03  0.18885254702E+03  0.00000000000E+00 0. -1.
          1    1    1    2  502    0 -0.48672895398E+02 -0.88735387681E+02  0.45930603643E+03  0.47032441450E+03  0.00000000000E+00 0. -1.
         22    1    3    3    0    0  0.82260363926E+01  0.38397792008E+02  0.22445291082E+03  0.22786216729E+03  0.00000000000E+00 0. -1.
         22    1    3    3    0    0 -0.87621355910E+02  0.29849160667E+02  0.10677089900E+03  0.14130994048E+03  0.00000000000E+00 0. -1.
</event>
<event>
 7    1  0.6235964E-006  0.4088260E+02  0.7818608E-02  0.1562778E+00
          2   -1    0    0  502    0  0.00000000000E+00  0.00000000000E+00  0.86239883990E+03  0.86239883990E+03  0.00000000000E+00 0. -1.
          1   -1    0    0  501    0 -0.00000000000E+00 -0.00000000000E+00 -0.20967567403E+03  0.20967567403E+03  0.00000000000E+00 0. -1.
         25    2    1    2    0    0  0.38657552617E+02 -0.30675801278E+02  0.38823694872E+03  0.41083824378E+03  0.12499889215E+03 0.  0.
          2    1    1    2  501    0 -0.26127687321E+02 -0.81675024818E+01 -0.19652475931E+03  0.19842213880E+03  0.00000000000E+00 0. -1.
          1    1    1    2  502    0 -0.12529865296E+02  0.38843303760E+02  0.46101097645E+03  0.46281413135E+03  0.00000000000E+00 0. -1.
         22    1    3    3    0    0 -0.14734597944E+02  0.68998342022E+01  0.30316230126E+03  0.30359857870E+03  0.00000000000E+00 0. -1.
         22    1    3    3    0    0  0.53392150561E+02 -0.37575635480E+02  0.85074647468E+02  0.10723966507E+03  0.00000000000E+00 0. -1.
</event>
<event>
 7    1  0.6235964E-006  0.6717928E+02  0.7818608E-02  0.1432165E+00
          2   -1    0    0  502    0  0.00000000000E+00  0.00000000000E+00  0.28379126582E+03  0.28379126582E+03  0.00000000000E+00 0. -1.
          1   -1    0    0  501    0 -0.00000000000E+00 -0.00000000000E+00 -0.21126247515E+04  0.21126247515E+04  0.00000000000E+00 0. -1.
         25    2    1    2    0    0  0.55333699235E+02 -0.57705453900E+02  0.53878348993E+02  0.15786259047E+03  0.12500393313E+03 0.  0.
          2    1    1    2  501    0 -0.40391404738E+02 -0.74451910273E+01 -0.20541421912E+04  0.20545527587E+04  0.00000000000E+00 0. -1.
          1    1    1    2  502    0 -0.14942294498E+02  0.65150644927E+02  0.17143035661E+03  0.18400066811E+03  0.00000000000E+00 0. -1.
         22    1    3    3    0    0  0.60317465946E+02 -0.70690325922E+02 -0.90960884258E+01  0.93370539796E+02  0.00000000000E+00 0.  1.
         22    1    3    3    0    0 -0.49837667107E+01  0.12984872022E+02  0.62974437419E+02  0.64492050675E+02  0.00000000000E+00 0.  1.
</event>
<event>
 7    1  0.6235964E-006  0.5937214E+02  0.7818608E-02  0.1434069E+00
          2   -1    0    0  502    0  0.00000000000E+00  0.00000000000E+00  0.30640208558E+03  0.30640208558E+03  0.00000000000E+00 0. -1.
          1   -1    0    0  501    0 -0.00000000000E+00 -0.00000000000E+00 -0.16078334351E+04  0.16078334351E+04  0.00000000000E+00 0. -1.
         25    2    1    2    0    0 -0.20686355801E+02  0.69158592279E+01 -0.33039559387E+03  0.35392143189E+03  0.12499350817E+03 0.  0.
          2    1    1    2  501    0 -0.90683003545E+01  0.44902981811E+02 -0.12622255632E+04  0.12630565642E+04  0.00000000000E+00 0. -1.
          1    1    1    2  502    0  0.29754656156E+02 -0.51818841039E+02  0.29118980762E+03  0.29725752457E+03  0.00000000000E+00 0. -1.
         22    1    3    3    0    0 -0.60070694223E+02  0.18512200096E+02 -0.88412913779E+02  0.10848056591E+03  0.00000000000E+00 0.  1.
         22    1    3    3    0    0  0.39384338422E+02 -0.11596340868E+02 -0.24198268009E+03  0.24544086599E+03  0.00000000000E+00 0.  1.
</event>
<event>
 7    1  0.6235964E-006  0.1387592E+03  0.7818608E-02  0.1287843E+00
          2   -1    0    0  502    0  0.00000000000E+00  0.00000000000E+00  0.86374298335E+03  0.86374298335E+03  0.00000000000E+00 0. -1.
          1   -1    0    0  501    0 -0.00000000000E+00 -0.00000000000E+00 -0.11371764604E+03  0.11371764604E+03  0.00000000000E+00 0. -1.
         25    2    1    2    0    0  0.46490962277E+02 -0.77527015728E+02  0.16568878771E+03  0.22638335069E+03  0.12499919742E+03 0.  0.
          2    1    1    2  501    0  0.58897110704E+01 -0.66845722051E+02 -0.59189357664E+02  0.89478596959E+02  0.00000000000E+00 0. -1.
          1    1    1    2  502    0 -0.52380673348E+02  0.14437273778E+03  0.64352590726E+03  0.66159868174E+03  0.00000000000E+00 0. -1.
         22    1    3    3    0    0  0.83014936072E+02 -0.24466697508E+02  0.71426404537E+02  0.11221332436E+03  0.00000000000E+00 0.  1.
         22    1    3    3    0    0 -0.36523973795E+02 -0.53060318220E+02  0.94262383171E+02  0.11417002633E+03  0.00000000000E+00 0.  1.
</event>
<event>
 7    1  0.6235964E-006  0.5609249E+02  0.7818608E-02  0.1429768E+00
          2   -1    0    0  502    0  0.00000000000E+00  0.00000000000E+00  0.24969702932E+03  0.24969702932E+03  0.00000000000E+00 0. -1.
          1   -1    0    0  501    0 -0.00000000000E+00 -0.00000000000E+00 -0.70436354520E+03  0.70436354520E+03  0.00000000000E+00 0. -1.
         25    2    1    2    0    0  0.12600307028E+02  0.12737221885E+02  0.84489904869E+02  0.15193018136E+03  0.12499292549E+03 0.  0.
          2    1    1    2  501    0  0.48903426616E+02  0.10839827879E+02 -0.66138743465E+03  0.66328152825E+03  0.00000000000E+00 0. -1.
          1    1    1    2  502    0 -0.61503733644E+02 -0.23577049763E+02  0.12223101391E+03  0.13884886492E+03  0.00000000000E+00 0. -1.
         22    1    3    3    0    0  0.14994455587E+02 -0.76116709908E+01 -0.30661581675E+02  0.34970041814E+02  0.00000000000E+00 0.  1.
         22    1    3    3    0    0 -0.23941485593E+01  0.20348892876E+02  0.11515148654E+03  0.11696013954E+03  0.00000000000E+00 0.  1.
</event>
<event>
 7    1  0.6235964E-006  0.5557177E+02  0.7818608E-02  0.1457306E+00
          2   -1    0    0  502    0  0.00000000000E+00  0.00000000000E+00  0.13512974548E+04  0.13512974548E+04  0.00000000000E+00 0. -1.
          1   -1    0    0  501    0 -0.00000000000E+00 -0.00000000000E+00 -0.35210837669E+02  0.35210837669E+02  0.00000000000E+00 0. -1.
         25    2    1    2    0    0  0.28125011151E+02 -0.52090672900E+01  0.12485202445E+03  0.17896788391E+03  0.12499329912E+03 0.  0.
          2    1    1    2  501    0  0.18774535157E+02  0.36671538849E+02  0.49462859290E+02  0.64372815544E+02  0.00000000000E+00 0. -1.
          1    1    1    2  502    0 -0.46899546308E+02 -0.31462471559E+02  0.11417717334E+04  0.11431675930E+04  0.00000000000E+00 0. -1.
         22    1    3    3    0    0 -0.47688163119E+02  0.13275248345E+02  0.39578719531E+02  0.63378767422E+02  0.00000000000E+00 0.  1.
         22    1    3    3    0    0  0.75813174270E+02 -0.18484315635E+02  0.85273304920E+02  0.11558911648E+03  0.00000000000E+00 0.  1.
</event>
<event>
 7    1  0.6235964E-006  0.9174832E+02  0.7818608E-02  0.1308373E+00
          2   -1    0    0  502    0  0.00000000000E+00  0.00000000000E+00  0.10933919879E+03  0.10933919879E+03  0.00000000000E+00 0. -1.
          1   -1    0    0  501    0 -0.00000000000E+00 -0.00000000000E+00 -0.11481367516E+04  0.11481367516E+04  0.00000000000E+00 0. -1.
         25    2    1    2    0    0 -0.12712456928E+03  0.10870077994E+03 -0.24577437676E+03  0.32250310999E+03  0.12500678386E+03 0.  0.
          2    1    1    2  501    0  0.55668037098E+02 -0.62827143131E+02 -0.83572231706E+03  0.83992736085E+03  0.00000000000E+00 0. -1.
          1    1    1    2  502    0  0.71456532179E+02 -0.45873636812E+02  0.42699140990E+02  0.95045479570E+02  0.00000000000E+00 0. -1.
         22    1    3    3    0    0 -0.12260700338E+03  0.10197042281E+03 -0.12809606415E+03  0.20454595097E+03  0.00000000000E+00 0. -1.
         22    1    3    3    0    0 -0.45175658975E+01  0.67303571374E+01 -0.11767831260E+03  0.11795715903E+03  0.00000000000E+00 0. -1.
</event>
<event>
 7    1  0.6235964E-006  0.1383735E+03  0.7818608E-02  0.1299854E+00
          2   -1    0    0  502    0  0.00000000000E+00  0.00000000000E+00  0.20077467655E+04  0.20077467655E+04  0.00000000000E+00 0. -1.
          1   -1    0    0  501    0 -0.00000000000E+00 -0.00000000000E+00 -0.74782495338E+03  0.74782495338E+03  0.00000000000E+00 0. -1.
         25    2    1    2    0    0 -0.12406119911E+03  0.15121817655E+03  0.59828903584E+02  0.23971314995E+03  0.12499911405E+03 0.  0.
          2    1    1    2  501    0  0.82284804610E+02 -0.10791000869E+03 -0.65039061226E+03  0.66439695030E+03  0.00000000000E+00 0. -1.
          1    1    1    2  502    0  0.41776394505E+02 -0.43308167861E+02  0.18504835208E+04  0.18514616186E+04  0.00000000000E+00 0. -1.
         22    1    3    3    0    0 -0.21622391737E+02  0.16364405858E+02  0.64848010094E+02  0.70289302292E+02  0.00000000000E+00 0. -1.
         22    1    3    3    0    0 -0.10243880738E+03  0.13485377069E+03 -0.50191065105E+01  0.16942384766E+03  0.00000000000E+00 0. -1.
</event>
<event>
 7    1  0.6235964E-006  0.7906861E+02  0.7818608E-02  0.1368695E+00
          2   -1    0    0  502    0  0.00000000000E+00  0.00000000000E+00  0.25422250579E+04  0.25422250579E+04  0.00000000000E+00 0. -1.
          1   -1    0    0  501    0 -0.00000000000E+00 -0.00000000000E+00 -0.15823007606E+02  0.15823007606E+02  0.00000000000E+00 0. -1.
         25    2    1    2    0    0 -0.18257828130E+02 -0.42293863516E+02  0.12639584286E+04  0.12709597378E+04  0.12500250713E+03 0.  0.
          2    1    1    2  501    0 -0.47475495246E+02 -0.32753406885E+02  0.71000121827E+02  0.91475273221E+02  0.00000000000E+00 0. -1.
          1    1    1    2  502    0  0.65733323376E+02  0.75047270400E+02  0.11914434998E+04  0.11956130544E+04  0.00000000000E+00 0. -1.
         22    1    3    3    0    0  0.53467083337E+02 -0.24256899390E+02  0.61727948835E+03  0.62006539406E+03  0.00000000000E+00 0. -1.
         22    1    3    3    0    0 -0.71724911467E+02 -0.18036964126E+02  0.64667894023E+03  0.65089434376E+03  0.00000000000E+00 0. -1.
</event>
<event>
 7    1  0.6235964E-006  0.5072664E+02  0.7818608E-02  0.1546090E+00
          2   -1    0    0  502    0  0.00000000000E+00  0.00000000000E+00  0.14129661291E+03  0.14129661291E+03  0.00000000000E+00 0. -1.
          1   -1    0    0  501    0 -0.00000000000E+00 -0.00000000000E+00 -0.17918371178E+04  0.17918371178E+04  0.00000000000E+00 0. -1.
         25    2    1    2    0    0  0.40003489874E+02  0.23856851997E+02 -0.33945309728E+02  0.13764557839E+03  0.12499837042E+03 0.  0.
          2    1    1    2  501    0 -0.25713040635E+02 -0.43810324023E+02 -0.17039724307E+04  0.17047294652E+04  0.00000000000E+00 0. -1.
          1    1    1    2  502    0 -0.14290449238E+02  0.19953472026E+02  0.87377235576E+02  0.90758687089E+02  0.00000000000E+00 0. -1.
         22    1    3    3    0    0  0.10185178522E+02  0.66599836746E+02  0.11680735674E+02  0.68379205187E+02  0.00000000000E+00 0.  1.
         22    1    3    3    0    0  0.29818311352E+02 -0.42742984749E+02 -0.45626045402E+02  0.69266373199E+02  0.00000000000E+00 0.  1.
</event>
<event>
 7    1  0.6235964E-006  0.1426689E+03  0.7818608E-02  0.1211927E+00
          2   -1    0    0  502    0  0.00000000000E+00  0.00000000000E+00  0.20246932043E+04  0.20246932043E+04  0.00000000000E+00 0. -1.
          1   -1    0    0  501    0 -0.00000000000E+00 -0.00000000000E+00 -0.95055556775E+03  0.95055556775E+03  0.00000000000E+00 0. -1.
         25    2    1    2    0    0  0.10929613449E+03 -0.42103192456E+02  0.18944701207E+03  0.25540927765E+03  0.12500161958E+03 0.  0.
          2    1    1    2  501    0 -0.10743566491E+03 -0.97327886738E+02 -0.90912591781E+03  0.92061125024E+03  0.00000000000E+00 0. -1.
          1    1    1    2  502    0 -0.18604695821E+01  0.13943107919E+03  0.17938165423E+04  0.17992282442E+04  0.00000000000E+00 0. -1.
         22    1    3    3    0    0  0.19402113627E+02 -0.40444500406E+01  0.14805837676E+03  0.14937898955E+03  0.00000000000E+00 0.  1.
         22    1    3    3    0    0  0.89894020866E+02 -0.38058742416E+02  0.41388635302E+02  0.10603028810E+03  0.00000000000E+00 0.  1.
</event>
<event>
 7    1  0.6235964E-006  0.1293585E+03  0.7818608E-02  0.1270012E+00
          2   -1    0    0  502    0  0.00000000000E+00  0.00000000000E+00  0.23925454887E+04  0.23925454887E+04  0.00000000000E+00 0. -1.
          1   -1    0    0  501    0 -0.00000000000E+00 -0.00000000000E+00 -0.54518293649E+03  0.54518293649E+03  0.00000000000E+00 0. -1.
         25    2    1    2    0    0  0.14643157447E+03  0.56806287631E+02 -0.27188790831E+03  0.33796135929E+03  0.12500274145E+03 0.  0.
          2    1    1    2  501    0 -0.12109901395E+03  0.24663407562E+02 -0.22353774357E+03  0.25542587506E+03  0.00000000000E+00 0. -1.
          1    1    1    2  502    0 -0.25332560517E+02 -0.81469695193E+02  0.23427882041E+04  0.23443411909E+04  0.00000000000E+00 0. -1.
         22    1    3    3    0    0  0.20008975304E+02  0.70658308690E+02 -0.10519390179E+03  0.12829151435E+03  0.00000000000E+00 0.  1.
         22    1    3    3    0    0  0.12642259916E+03 -0.13852021059E+02 -0.16669400652E+03  0.20966984494E+03  0.00000000000E+00 0.  1.
</event>
<event>
 7    1  0.6235964E-006  0.6424720E+02  0.7818608E-02  0.1445053E+00
          2   -1    0    0  502    0  0.00000000000E+00  0.00000000000E+00  0.25061224390E+04  0.25061224390E+04  0.00000000000E+00 0. -1.
          1   -1    0    0  501    0 -0.00000000000E+00 -0.00000000000E+00 -0.67019188666E+02  0.67019188666E+02  0.00000000000E+00 0. -1.
         25    2    1    2    0    0 -0.29979911247E+02 -0.65395071334E+01  0.86438393633E+03  0.87391489018E+03  0.12500434254E+03 0.  0.
          2    1    1    2  501    0 -0.36365402805E+02 -0.14078483455E+02 -0.55333659111E+02  0.67693870093E+02  0.00000000000E+00 0. -1.
          1    1    1    2  502    0  0.66345314052E+02  0.20617990589E+02  0.16300529732E+04  0.16315328674E+04  0.00000000000E+00 0. -1.
         22    1    3    3    0    0  0.21309465121E+02  0.29357042585E+02  0.90451766714E+02  0.97454868297E+02  0.00000000000E+00 0.  1.
         22    1    3    3    0    0 -0.51289376368E+02 -0.35896549719E+02  0.77393216962E+03  0.77646002188E+03  0.00000000000E+00 0.  1.
</event>
<event>
 7    1  0.6235964E-006  0.1242361E+03  0.7818608E-02  0.1276689E+00
          2   -1    0    0  502    0  0.00000000000E+00  0.00000000000E+00  0.30979032621E+03  0.30979032621E+03  0.00000000000E+00 0. -1.
          1   -1    0    0  501    0 -0.00000000000E+00 -0.00000000000E+00 -0.95710355005E+03  0.95710355005E+03  0.00000000000E+00 0. -1.
         25    2    1    2    0    0  0.61312178038E+02 -0.19309228263E+03 -0.11127535623E+03  0.26277450237E+03  0.12499768560E+03 0.  0.
          2    1    1    2  501    0 -0.39419030812E+02  0.11271106736E+03 -0.75783925477E+03  0.76718836069E+03  0.00000000000E+00 0. -1.
          1    1    1    2  502    0 -0.21893147226E+02  0.80381215273E+02  0.22180138717E+03  0.23693101320E+03  0.00000000000E+00 0. -1.
         22    1    3    3    0    0  0.74490440837E+02 -0.11819734781E+03 -0.15631975542E+02  0.14058377383E+03  0.00000000000E+00 0.  1.
         22    1    3    3    0    0 -0.13178262799E+02 -0.74894934820E+02 -0.95643380690E+02  0.12219072854E+03  0.00000000000E+00 0.  1.
</event>
<event>
 7    1  0.6235964E-006  0.3249059E+02  0.7818608E-02  0.1611344E+00
          2   -1    0    0  502    0  0.00000000000E+00  0.00000000000E+00  0.19492136399E+04  0.19492136399E+04  0.00000000000E+00 0. -1.
          1   -1    0    0  501    0 -0.00000000000E+00 -0.00000000000E+00 -0.23617097877E+02  0.23617097877E+02  0.00000000000E+00 0. -1.
         25    2    1    2    0    0  0.33903061207E+02  0.30780396512E+02  0.39847251298E+03  0.42012372199E+03  0.12500699105E+03 0.  0.
          2    1    1    2  501    0 -0.25583952237E+02  0.52673549772E+00  0.35242334689E+00  0.25591800729E+02  0.00000000000E+00 0. -1.
          1    1    1    2  502    0 -0.83191089709E+01 -0.31307132010E+02  0.15267716057E+04  0.15271152150E+04  0.00000000000E+00 0. -1.
         22    1    3    3    0    0 -0.65207030769E+01 -0.90119797483E+01  0.33426178038E+03  0.33444681665E+03  0.00000000000E+00 0.  1.
         22    1    3    3    0    0  0.40423764284E+02  0.39792376261E+02  0.64210732599E+02  0.85676905338E+02  0.00000000000E+00 0.  1.
</event>
<event>
 7    1  0.6235964E-006  0.9173174E+02  0.7818608E-02  0.1300771E+00
          2   -1    0    0  502    0  0.00000000000E+00  0.00000000000E+00  0.68747447498E+03  0.68747447498E+03  0.00000000000E+00 0. -1.
          1   -1    0    0  501    0 -0.00000000000E+00 -0.00000000000E+00 -0.47748807851E+03  0.47748807851E+03  0.00000000000E+00 0. -1.
         25    2    1    2    0    0  0.46079498259E+02 -0.31911152240E+02 -0.67445850043E+02  0.15269170842E+03  0.12499669330E+03 0.  0.
          2    1    1    2  501    0  0.16417241915E+02  0.99059275620E+02 -0.35719931207E+03  0.37104395219E+03  0.00000000000E+00 0. -1.
          1    1    1    2  502    0 -0.62496740174E+02 -0.67148123380E+02  0.63463155858E+03  0.64122689288E+03  0.00000000000E+00 0. -1.
         22    1    3    3    0    0 -0.40966509102E+02  0.48201497062E+01 -0.11217919707E+02  0.42747285688E+02  0.00000000000E+00 0. -1.
         22    1    3    3    0    0  0.87046007361E+02 -0.36731301946E+02 -0.56227930336E+02  0.10994442273E+03  0.00000000000E+00 0. -1.
</event>
<event>
 7    1  0.6235964E-006  0.1718692E+03  0.7818608E-02  0.1340986E+00
          2   -1    0    0  502    0  0.00000000000E+00  0.00000000000E+00  0.18807483599E+04  0.18807483599E+04  0.00000000000E+00 0. -1.
          1   -1    0    0  501    0 -0.00000000000E+00 -0.00000000000E+00 -0.15701140298E+03  0.15701140298E+03  0.00000000000E+00 0. -1.
         25    2    1    2    0    0  0.11275408290E+03 -0.16915046402E+03  0.58966869044E+02  0.24582686211E+03  0.12501356648E+03 0.  0.
          2    1    1    2  501    0 -0.23559955486E+02  0.23890752299E+02 -0.54625984829E+02  0.64108016398E+02  0.00000000000E+00 0. -1.
          1    1    1    2  502    0 -0.89194127412E+02  0.14525971172E+03  0.17193960727E+04  0.17278248844E+04  0.00000000000E+00 0. -1.
         22    1    3    3    0    0  0.75233873454E+02 -0.98625850756E+02  0.96887830078E+02  0.15739900181E+03  0.00000000000E+00 0.  1.
         22    1    3    3    0    0  0.37520209444E+02 -0.70524613262E+02 -0.37920961034E+02  0.88427860305E+02  0.00000000000E+00 0.  1.
</event>
<event>
 7    1  0.6235964E-006  0.6417459E+02  0.7818608E-02  0.1538458E+00
          2   -1    0    0  502    0  0.00000000000E+00  0.00000000000E+00  0.19814714173E+04  0.19814714173E+04  0.00000000000E+00 0. -1.
          1   -1    0    0  501    0 -0.00000000000E+00 -0.00000000000E+00 -0.26050816280E+03  0.26050816280E+03  0.00000000000E+00 0. -1.
         25    2    1    2    0    0  0.97931758679E+01  0.43284618800E+02  0.13295343994E+03  0.18781100256E+03  0.12500756367E+03 0.  0.
          2    1    1    2  501    0  0.13119276981E+01  0.20342696046E+02 -0.23205972837E+03  0.23295335148E+03  0.00000000000E+00 0. -1.
          1    1    1    2  502    0 -0.11105103566E+02 -0.63627314846E+02  0.18200695430E+04  0.18212152261E+04  0.00000000000E+00 0. -1.
         22    1    3    3    0    0  0.56371503537E+02  0.11129365061E+02  0.11479077859E+03  0.12836873462E+03  0.00000000000E+00 0.  1.
         22    1    3    3    0    0 -0.46578327669E+02  0.32155253739E+02  0.18162661345E+02  0.59442267946E+02  0.00000000000E+00 0.  1.
</event>
<event>
 7    1  0.6235964E-006  0.7992706E+02  0.7818608E-02  0.1373985E+00
          2   -1    0    0  502    0  0.00000000000E+00  0.00000000000E+00  0.25219615811E+03  0.25219615811E+03  0.00000000000E+00 0. -1.
          1   -1    0    0  501    0 -0.00000000000E+00 -0.00000000000E+00 -0.65954855507E+03  0.65954855507E+03  0.00000000000E+00 0. -1.
         25    2    1    2    0    0  0.17930839188E+02  0.68453146495E+02 -0.14972448969E+03  0.20748450560E+03  0.12500019598E+03 0.  0.
          2    1    1    2  501    0  0.36335317770E+02 -0.74645286930E+02 -0.47394150684E+03  0.48115769357E+03  0.00000000000E+00 0. -1.
          1    1    1    2  502    0 -0.54266156958E+02  0.61921404345E+01  0.21631359957E+03  0.22310251400E+03  0.00000000000E+00 0. -1.
         22    1    3    3    0    0  0.38603649933E+01  0.45662547169E+02 -0.16860052999E+03  0.17471722681E+03  0.00000000000E+00 0.  1.
         22    1    3    3    0    0  0.14070474194E+02  0.22790599326E+02  0.18876040304E+02  0.32767278789E+02  0.00000000000E+00 0.  1.
</event>
<event>
 7    1  0.6235964E-006  0.4070055E+02  0.7818608E-02  0.1523397E+00
          2   -1    0    0  502    0  0.00000000000E+00  0.00000000000E+00  0.14912170250E+04  0.14912170250E+04  0.00000000000E+00 0. -1.
          1   -1    0    0  501    0 -0.00000000000E+00 -0.00000000000E+00 -0.23617179897E+03  0.23617179897E+03  0.00000000000E+00 0. -1.
         25    2    1    2    0    0 -0.25134126789E+02 -0.27803647839E+01  0.12588173915E+04  0.12652608423E+04  0.12499727674E+03 0.  0.
          2    1    1    2  501    0 -0.32069907533E+02 -0.15212830691E+02 -0.22762818516E+03  0.23037903522E+03  0.00000000000E+00 0. -1.
          1    1    1    2  502    0  0.57204034322E+02  0.17993195475E+02  0.22385601974E+03  0.23174894649E+03  0.00000000000E+00 0. -1.
         22    1    3    3    0    0 -0.34802212718E+02 -0.19808209491E+02  0.12464797982E+03  0.13092241232E+03  0.00000000000E+00 0.  1.
         22    1    3    3    0    0  0.96680859287E+01  0.17027844707E+02  0.11341694116E+04  0.11343384300E+04  0.00000000000E+00 0.  1.
</event>
<event>
 7    1  0.6235964E-006  0.4911956E+02  0.7818608E-02  0.1482493E+00
          2   -1    0    0  502    0  0.00000000000E+00  0.00000000000E+00  0.26536758229E+04  0.26536758229E+04  0.00000000000E+00 0. -1.
          1   -1    0    0  501    0 -0.00000000000E+00 -0.00000000000E+00 -0.14095703511E+03  0.14095703511E+03  0.00000000000E+00 0. -1.
         25    2    1    2    0    0 -0.29949379433E+01 -0.25647987106E+02  0.98581117195E+03  0.99404028376E+03  0.12500252038E+03 0.  0.
          2    1    1    2  501    0  0.35996201027E+02 -0.14785150843E+02 -0.13365762549E+03  0.13920735622E+03  0.00000000000E+00 0. -1.
          1    1    1    2  502    0 -0.33001263084E+02  0.40433137949E+02  0.16605652413E+04  0.16613852180E+04  0.00000000000E+00 0. -1.
         22    1    3    3    0    0  0.20245910239E+02 -0.41305008392E+02  0.13229401183E+03  0.14006322203E+03  0.00000000000E+00 0. -1.
         22    1    3    3    0    0 -0.23240848183E+02  0.15657021286E+02  0.85351716012E+03  0.85397706173E+03  0.00000000000E+00 0. -1.
</event>
<event>
 7    1  0.6235964E-006  0.2772190E+03  0.7818608E-02  0.1209612E+00
          2   -1    0    0  502    0  0.00000000000E+00  0.00000000000E+00  0.50268255666E+03  0.50268255666E+03  0.00000000000E+00 0. -1.
          1   -1    0    0  501    0 -0.00000000000E+00 -0.00000000000E+00 -0.19139471549E+04  0.19139471549E+04  0.00000000000E+00 0. -1.
         25    2    1    2    0    0 -0.25334791513E+03  0.77687301173E+02 -0.27073829475E+03  0.39892861750E+03  0.12499733896E+03 0.  0.
          2    1    1    2  501    0  0.23800126121E+03 -0.14962553521E+03 -0.15634014674E+04  0.15884761722E+04  0.00000000000E+00 0. -1.
          1    1    1    2  502    0  0.15346653919E+02  0.71938234037E+02  0.42287516395E+03  0.42922492191E+03  0.00000000000E+00 0. -1.
         22    1    3    3    0    0 -0.13637124032E+02  0.43827890205E+02 -0.19015057287E+02  0.49683271987E+02  0.00000000000E+00 0.  1.
         22    1    3    3    0    0 -0.23971079110E+03  0.33859410968E+02 -0.25172323746E+03  0.34924534551E+03  0.00000000000E+00 0.  1.
</event>
<event>
 7    1  0.6235964E-006  0.1263317E+03  0.7818608E-02  0.1320828E+00
          2   -1    0    0  502    0  0.00000000000E+00  0.00000000000E+00  0.16097697319E+04  0.16097697319E+04  0.00000000000E+00 0. -1.
          1   -1    0    0  501    0 -0.00000000000E+00 -0.00000000000E+00 -0.28954238204E+03  0.28954238204E+03  0.00000000000E+00 0. -1.
         25    2    1    2    0    0  0.60021464504E+02 -0.51735906338E+02  0.79344357460E+02  0.16790653331E+03  0.12497158342E+03 0.  0.
          2    1    1    2  501    0 -0.94688094507E+02  0.93778160498E+02 -0.22661489379E+03  0.26289634595E+03  0.00000000000E+00 0. -1.
          1    1    1    2  502    0  0.34666630003E+02 -0.42042254161E+02  0.14674978862E+04  0.14685092347E+04  0.00000000000E+00 0. -1.
         22    1    3    3    0    0  0.35206603354E+02  0.38225937326E+01  0.98048830057E+02  0.10424821446E+03  0.00000000000E+00 0. -1.
         22    1    3    3    0    0  0.24814861150E+02 -0.55558500070E+02 -0.18704472597E+02  0.63658318853E+02  0.00000000000E+00 0. -1.
</event>
<event>
 7    1  0.6235964E-006  0.1111279E+03  0.7818608E-02  0.1449880E+00
          2   -1    0    0  502    0  0.00000000000E+00  0.00000000000E+00  0.42040230586E+03  0.42040230586E+03  0.00000000000E+00 0. -1.
          1   -1    0    0  501    0 -0.00000000000E+00 -0.00000000000E+00 -0.21112653786E+04  0.21112653786E+04  0.00000000000E+00 0. -1.
         25    2    1    2    0    0  0.74551662381E+02 -0.59230381808E+02 -0.32407621113E+03  0.36016136443E+03  0.12499851724E+03 0.  0.
          2    1    1    2  501    0 -0.78952803784E+02  0.80534877675E+02 -0.17670535298E+04  0.17706489174E+04  0.00000000000E+00 0. -1.
          1    1    1    2  502    0  0.44011414039E+01 -0.21304495867E+02  0.40026666815E+03  0.40085740260E+03  0.00000000000E+00 0. -1.
         22    1    3    3    0    0  0.61875524665E+02 -0.97093844913E+02 -0.26415088378E+03  0.28815184309E+03  0.00000000000E+00 0.  1.
         22    1    3    3    0    0  0.12676137716E+02  0.37863463106E+02 -0.59925327352E+02  0.72009521342E+02  0.00000000000E+00 0.  1.
</event>
<event>
 7    1  0.6235964E-006  0.1268101E+03  0.7818608E-02  0.1319127E+00
          2   -1    0    0  502    0  0.00000000000E+00  0.00000000000E+00  0.24023688148E+04  0.24023688148E+04  0.00000000000E+00 0. -1.
          1   -1    0    0  501    0 -0.00000000000E+00 -0.00000000000E+00 -0.38067947661E+03  0.38067947661E+03  0.00000000000E+00 0. -1.
         25    2    1    2    0    0  0.31108754250E+02  0.84696047752E+02  0.15810920922E+02  0.15497098902E+03  0.12499938848E+03 0.  0.
          2    1    1    2  501    0 -0.82219941869E+02 -0.10532563679E+03 -0.29640719223E+03  0.32513202274E+03  0.00000000000E+00 0. -1.
          1    1    1    2  502    0  0.51111187618E+02  0.20629589037E+02  0.23022856095E+04  0.23029452797E+04  0.00000000000E+00 0. -1.
         22    1    3    3    0    0 -0.23082889234E+02  0.30986588014E+02 -0.43609033042E+02  0.58264364538E+02  0.00000000000E+00 0. -1.
         22    1    3    3    0    0  0.54191643485E+02  0.53709459737E+02  0.59419953964E+02  0.96706624478E+02  0.00000000000E+00 0. -1.
</event>
<event>
 7    1  0.6235964E-006  0.1225085E+03  0.7818608E-02  0.1327553E+00
          2   -1    0    0  502    0  0.00000000000E+00  0.00000000000E+00  0.18827978392E+03  0.18827978392E+03  0.00000000000E+00 0. -1.
          1   -1    0    0  501    0 -0.00000000000E+00 -0.00000000000E+00 -0.35140900076E+04  0.35140900076E+04  0.00000000000E+00 0. -1.
         25    2    1    2    0    0  0.10195592450E+03 -0.60243349313E+02 -0.50710461255E+03  0.53554113751E+03  0.12499980087E+03 0.  0.
          2    1    1    2  501    0 -0.32741375844E+02 -0.41596464710E+02 -0.29707250014E+04  0.29711966104E+04  0.00000000000E+00 0. -1.
          1    1    1    2  502    0 -0.69214548653E+02  0.10183981402E+03  0.15201939029E+03  0.19563204362E+03  0.00000000000E+00 0. -1.
         22    1    3    3    0    0 -0.28861198584E+02 -0.98665122489E+01 -0.66212280441E+02  0.72899814326E+02  0.00000000000E+00 0. -1.
         22    1    3    3    0    0  0.13081712308E+03 -0.50376837064E+02 -0.44089233211E+03  0.46264132319E+03  0.00000000000E+00 0. -1.
</event>
<event>
 7    1  0.6235964E-006  0.3849892E+03  0.7818608E-02  0.1210439E+00
          2   -1    0    0  502    0  0.00000000000E+00  0.00000000000E+00  0.21993889982E+04  0.21993889982E+04  0.00000000000E+00 0. -1.
          1   -1    0    0  501    0 -0.00000000000E+00 -0.00000000000E+00 -0.72757036091E+03  0.72757036091E+03  0.00000000000E+00 0. -1.
         25    2    1    2    0    0 -0.17954975324E+03  0.32125768947E+03  0.70007280250E+02  0.39493111800E+03  0.12499980699E+03 0.  0.
          2    1    1    2  501    0  0.23161237704E+03 -0.31448843989E+03 -0.49721645633E+03  0.63227484251E+03  0.00000000000E+00 0. -1.
          1    1    1    2  502    0 -0.52062623799E+02 -0.67692495795E+01  0.18990278134E+04  0.18997533986E+04  0.00000000000E+00 0. -1.
         22    1    3    3    0    0 -0.19743519922E+02  0.12361695777E+03  0.64231190203E+02  0.14070040733E+03  0.00000000000E+00 0.  1.
         22    1    3    3    0    0 -0.15980623332E+03  0.19764073170E+03  0.57760900467E+01  0.25423071067E+03  0.00000000000E+00 0.  1.
</event>
<event>
 7    1  0.6235964E-006  0.4994386E+02  0.7818608E-02  0.1458075E+00
          2   -1    0    0  502    0  0.00000000000E+00  0.00000000000E+00  0.10710343068E+02  0.10710343068E+02  0.00000000000E+00 0. -1.
          1   -1    0    0  501    0 -0.00000000000E+00 -0.00000000000E+00 -0.21215321845E+04  0.21215321845E+04  0.00000000000E+00 0. -1.
         25    2    1    2    0    0  0.97610857665E+01 -0.27083707964E+01 -0.70290873574E+03  0.71400992963E+03  0.12500749879E+03 0.  0.
          2    1    1    2  501    0  0.30723383523E+02  0.39375915701E+02 -0.12525881186E+04  0.12535834172E+04  0.00000000000E+00 0. -1.
          1    1    1    2  502    0 -0.40484469289E+02 -0.36667544905E+02 -0.15532498709E+03  0.16464918074E+03  0.00000000000E+00 0. -1.
         22    1    3    3    0    0 -0.19486961925E+02  0.45184284750E+02 -0.14166734471E+03  0.14996998977E+03  0.00000000000E+00 0. -1.
         22    1    3    3    0    0  0.29248047691E+02 -0.47892655546E+02 -0.56124139103E+03  0.56403993986E+03  0.00000000000E+00 0. -1.
</event>
<event>
 7    1  0.6235964E-006  0.2731954E+02  0.7818608E-02  0.1664628E+00
          2   -1    0    0  502    0  0.00000000000E+00  0.00000000000E+00  0.89460725228E+02  0.89460725228E+02  0.00000000000E+00 0. -1.
          1   -1    0    0  501    0 -0.00000000000E+00 -0.00000000000E+00 -0.44556729398E+03  0.44556729398E+03  0.00000000000E+00 0. -1.
         25    2    1    2    0    0 -0.15028521914E+02 -0.46450085640E+02 -0.14943469505E+02  0.13502567034E+03  0.12500062977E+03 0.  0.
          2    1    1    2  501    0  0.12305053364E+02  0.24195142325E+02 -0.36573364847E+03  0.36673958182E+03  0.00000000000E+00 0. -1.
          1    1    1    2  502    0  0.27234685496E+01  0.22254943315E+02  0.24570549220E+02  0.33262767051E+02  0.00000000000E+00 0. -1.
         22    1    3    3    0    0 -0.47834980753E+01 -0.62573787723E+02 -0.59542091873E+02  0.86507927200E+02  0.00000000000E+00 0. -1.
         22    1    3    3    0    0 -0.10245023838E+02  0.16123702083E+02  0.44598622368E+02  0.48517743140E+02  0.00000000000E+00 0. -1.
</event>
<event>
 7    1  0.6235964E-006  0.4813303E+02  0.7818608E-02  0.1520778E+00
          2   -1    0    0  502    0  0.00000000000E+00  0.00000000000E+00  0.34365895423E+03  0.34365895423E+03  0.00000000000E+00 0. -1.
          1   -1    0    0  501    0 -0.00000000000E+00 -0.00000000000E+00 -0.77921038414E+03  0.77921038414E+03  0.00000000000E+00 0. -1.
         25    2    1    2    0    0  0.36010564875E+02 -0.24959223981E+02 -0.56522351802E+02  0.14401426395E+03  0.12500243327E+03 0.  0.
          2    1    1    2  501    0 -0.21865350107E+02 -0.21325565071E+02 -0.67664279628E+03  0.67733178503E+03  0.00000000000E+00 0. -1.
          1    1    1    2  502    0 -0.14145214769E+02  0.46284789053E+02  0.29761371817E+03  0.30152328939E+03  0.00000000000E+00 0. -1.
         22    1    3    3    0    0  0.69017681123E+00 -0.71785417910E+02 -0.43476508119E+02  0.83927524250E+02  0.00000000000E+00 0.  1.
         22    1    3    3    0    0  0.35320388064E+02  0.46826193928E+02 -0.13045843683E+02  0.60086739704E+02  0.00000000000E+00 0.  1.
</event>
<event>
 7    1  0.6235964E-006  0.6725729E+02  0.7818608E-02  0.1512748E+00
          2   -1    0    0  502    0  0.00000000000E+00  0.00000000000E+00  0.12666999729E+04  0.12666999729E+04  0.00000000000E+00 0. -1.
          1   -1    0    0  501    0 -0.00000000000E+00 -0.00000000000E+00 -0.87774367907E+03  0.87774367907E+03  0.00000000000E+00 0. -1.
         25    2    1    2    0    0  0.51921889290E+02  0.18242065132E+02  0.15104524900E+03  0.20363769678E+03  0.12499995512E+03 0.  0.
          2    1    1    2  501    0 -0.53247204135E+02 -0.41273274059E+02 -0.84999232314E+03  0.85265801896E+03  0.00000000000E+00 0. -1.
          1    1    1    2  502    0  0.13253148444E+01  0.23031208928E+02  0.10879033680E+04  0.10881479362E+04  0.00000000000E+00 0. -1.
         22    1    3    3    0    0  0.71641930791E+02 -0.12596189937E+02  0.32685389284E+02  0.79746880322E+02  0.00000000000E+00 0. -1.
         22    1    3    3    0    0 -0.19720041501E+02  0.30838255068E+02  0.11835985971E+03  0.12389081646E+03  0.00000000000E+00 0. -1.
</event>
<event>
 7    1  0.6235964E-006  0.4708191E+02  0.7818608E-02  0.1523952E+00
          2   -1    0    0  502    0  0.00000000000E+00  0.00000000000E+00  0.41198951227E+03  0.41198951227E+03  0.00000000000E+00 0. -1.
          1   -1    0    0  501    0 -0.00000000000E+00 -0.00000000000E+00 -0.11995082508E+03  0.11995082508E+03  0.00000000000E+00 0. -1.
         25    2    1    2    0    0  0.39480589089E+02  0.57057172311E+02  0.26522866831E+03  0.30130538988E+03  0.12499781457E+03 0.  0.
          2    1    1    2  501    0 -0.25874616605E+02 -0.16282107069E+02 -0.95878362265E+02  0.10063430402E+03  0.00000000000E+00 0. -1.
          1    1    1    2  502    0 -0.13605972484E+02 -0.40775065242E+02  0.12268838114E+03  0.13000064346E+03  0.00000000000E+00 0. -1.
         22    1    3    3    0    0  0.31216922402E+01  0.19174413400E+01  0.22274196177E+03  0.22277208774E+03  0.00000000000E+00 0. -1.
         22    1    3    3    0    0  0.36358896849E+02  0.55139730971E+02  0.42486706542E+02  0.78533302137E+02  0.00000000000E+00 0. -1.
</event>
<event>
 7    1  0.6235964E-006  0.1417003E+03  0.7818608E-02  0.1290268E+00
          2   -1    0    0  502    0  0.00000000000E+00  0.00000000000E+00  0.85639968597E+03  0.85639968597E+03  0.00000000000E+00 0. -1.
          1   -1    0    0  501    0 -0.00000000000E+00 -0.00000000000E+00 -0.13921373417E+04  0.13921373417E+04  0.00000000000E+00 0. -1.
         25    2    1    2    0    0 -0.19628238040E+03 -0.43969774040E+02  0.30800822444E+02  0.23881814478E+03  0.12500120691E+03 0.  0.
          2    1    1    2  501    0  0.64071150298E+02  0.45757117371E+01 -0.12807227421E+04  0.12823325589E+04  0.00000000000E+00 0. -1.
          1    1    1    2  502    0  0.13221123010E+03  0.39394062302E+02  0.71418426393E+03  0.72738632401E+03  0.00000000000E+00 0. -1.
         22    1    3    3    0    0 -0.42946584157E+02  0.41471228081E+02 -0.41244774036E+01  0.59843823099E+02  0.00000000000E+00 0.  1.
         22    1    3    3    0    0 -0.15333579624E+03 -0.85441002120E+02  0.34925299847E+02  0.17897432168E+03  0.00000000000E+00 0.  1.
</event>
<event>
 7    1  0.6235964E-006  0.2836475E+03  0.7818608E-02  0.1171287E+00
          2   -1    0    0  502    0  0.00000000000E+00  0.00000000000E+00  0.34371085018E+04  0.34371085018E+04  0.00000000000E+00 0. -1.
          1   -1    0    0  501    0 -0.00000000000E+00 -0.00000000000E+00 -0.44478442941E+03  0.44478442941E+03  0.00000000000E+00 0. -1.
         25    2    1    2    0    0  0.11465022781E+03  0.23357052806E+03  0.19280731807E+03  0.34713140028E+03  0.12500272335E+03 0.  0.
          2    1    1    2  501    0 -0.96109547621E+02  0.53014296392E+02 -0.35275402426E+03  0.36943600582E+03  0.00000000000E+00 0. -1.
          1    1    1    2  502    0 -0.18540680185E+02 -0.28658482445E+03  0.31522707786E+04  0.31653255251E+04  0.00000000000E+00 0. -1.
         22    1    3    3    0    0  0.39907009839E+02  0.13623084049E+03  0.33183380865E+02  0.14578253702E+03  0.00000000000E+00 0.  1.
         22    1    3    3    0    0  0.74743217967E+02  0.97339687576E+02  0.15962393720E+03  0.20134886326E+03  0.00000000000E+00 0.  1.
</event>
<event>
 7    1  0.6235964E-006  0.2051124E+03  0.7818608E-02  0.1236879E+00
          2   -1    0    0  502    0  0.00000000000E+00  0.00000000000E+00  0.13996284576E+04  0.13996284576E+04  0.00000000000E+00 0. -1.
          1   -1    0    0  501    0 -0.00000000000E+00 -0.00000000000E+00 -0.54477900841E+03  0.54477900841E+03  0.00000000000E+00 0. -1.
         25    2    1    2    0    0  0.13930776895E+02  0.15177287196E+03 -0.16097663569E+02  0.19776903437E+03  0.12499753987E+03 0.  0.
          2    1    1    2  501    0 -0.51127158763E+02  0.54573952809E+02 -0.42617149764E+03  0.43268284931E+03  0.00000000000E+00 0. -1.
          1    1    1    2  502    0  0.37196381868E+02 -0.20634682477E+03  0.12971186103E+04  0.13139555823E+04  0.00000000000E+00 0. -1.
         22    1    3    3    0    0 -0.12183546662E+02  0.14604626563E+03  0.25069691075E+02  0.14868234571E+03  0.00000000000E+00 0.  1.
         22    1    3    3    0    0  0.26114323558E+02  0.57266063242E+01 -0.41167354644E+02  0.49086688656E+02  0.00000000000E+00 0.  1.
</event>
<event>
 7    1  0.6235964E-006  0.1227224E+03  0.7818608E-02  0.1436015E+00
          2   -1    0    0  502    0  0.00000000000E+00  0.00000000000E+00  0.22403161568E+04  0.22403161568E+04  0.00000000000E+00 0. -1.
          1   -1    0    0  501    0 -0.00000000000E+00 -0.00000000000E+00 -0.14585898296E+04  0.14585898296E+04  0.00000000000E+00 0. -1.
         25    2    1    2    0    0 -0.11406540559E+03  0.52505403186E+02 -0.76851631296E+02  0.19312795843E+03  0.12499800390E+03 0.  0.
          2    1    1    2  501    0  0.13209043807E+02  0.17392795455E+02 -0.13217846686E+04  0.13219650897E+04  0.00000000000E+00 0. -1.
          1    1    1    2  502    0  0.10085636178E+03 -0.69898198642E+02  0.21803626271E+04  0.21838129383E+04  0.00000000000E+00 0. -1.
         22    1    3    3    0    0 -0.99967860253E+02  0.90248571320E+02 -0.71507358964E+02  0.15248501597E+03  0.00000000000E+00 0. -1.
         22    1    3    3    0    0 -0.14097545335E+02 -0.37743168134E+02 -0.53442723316E+01  0.40642942462E+02  0.00000000000E+00 0. -1.
</event>
<event>
 7    1  0.6235964E-006  0.9051009E+02  0.7818608E-02  0.1332221E+00
          2   -1    0    0  502    0  0.00000000000E+00  0.00000000000E+00  0.12484757630E+04  0.12484757630E+04  0.00000000000E+00 0. -1.
          1   -1    0    0  501    0 -0.00000000000E+00 -0.00000000000E+00 -0.43604297902E+02  0.43604297902E+02  0.00000000000E+00 0. -1.
         25    2    1    2    0    0 -0.82180997316E+02 -0.83128088253E+02  0.30126357718E+03  0.34646229488E+03  0.12494952365E+03 0.  0.
          2    1    1    2  501    0  0.13488521689E+02  0.86351747575E+02  0.77977328758E+02  0.11712825589E+03  0.00000000000E+00 0. -1.
          1    1    1    2  502    0  0.68692475628E+02 -0.32236593220E+01  0.82563055917E+03  0.82848951015E+03  0.00000000000E+00 0. -1.
         22    1    3    3    0    0 -0.11215547792E+03 -0.48994074468E+02  0.24726443313E+03  0.27589666626E+03  0.00000000000E+00 0.  1.
         22    1    3    3    0    0  0.29974480605E+02 -0.34134013785E+02  0.53999144046E+02  0.70565628618E+02  0.00000000000E+00 0.  1.
</event>
<event>
 7    1  0.6235964E-006  0.5138568E+02  0.7818608E-02  0.1463334E+00
          2   -1    0    0  502    0  0.00000000000E+00  0.00000000000E+00  0.22077682579E+04  0.22077682579E+04  0.00000000000E+00 0. -1.
          1   -1    0    0  501    0 -0.00000000000E+00 -0.00000000000E+00 -0.15915680424E+03  0.15915680424E+03  0.00000000000E+00 0. -1.
         25    2    1    2    0    0 -0.19021376180E+02 -0.12009025933E+02  0.11749404317E+04  0.11817868768E+04  0.12501669784E+03 0.  0.
          2    1    1    2  501    0  0.47652265279E+02 -0.19597547983E+02 -0.15101611073E+03  0.15956399335E+03  0.00000000000E+00 0. -1.
          1    1    1    2  502    0 -0.28630889099E+02  0.31606573917E+02  0.10246871327E+04  0.10255741920E+04  0.00000000000E+00 0. -1.
         22    1    3    3    0    0  0.24043363439E+02 -0.10603880724E+02  0.10356736112E+04  0.10360069279E+04  0.00000000000E+00 0. -1.
         22    1    3    3    0    0 -0.43064739619E+02 -0.14051452096E+01  0.13926682045E+03  0.14577994893E+03  0.00000000000E+00 0. -1.
</event>
<event>
 7    1  0.6235964E-006  0.8278100E+02  0.7818608E-02  0.1341885E+00
          2   -1    0    0  502    0  0.00000000000E+00  0.00000000000E+00  0.15151622610E+03  0.15151622610E+03  0.00000000000E+00 0. -1.
          1   -1    0    0  501    0 -0.00000000000E+00 -0.00000000000E+00 -0.11558744412E+04  0.11558744412E+04  0.00000000000E+00 0. -1.
         25    2    1    2    0    0 -0.19969849830E+02  0.12906318259E+01 -0.20849347074E+03  0.24391636403E+03  0.12500081867E+03 0.  0.
          2    1    1    2  501    0 -0.61230612699E+02 -0.32077220029E+02 -0.91413571751E+03  0.91674546413E+03  0.00000000000E+00 0. -1.
          1    1    1    2  502    0  0.81200462529E+02  0.30786588203E+02  0.11827097318E+03  0.14672883910E+03  0.00000000000E+00 0. -1.
         22    1    3    3    0    0  0.48749144700E+02  0.14570179064E+02 -0.53383743135E+02  0.73746818629E+02  0.00000000000E+00 0.  1.
         22    1    3    3    0    0 -0.68718994529E+02 -0.13279547238E+02 -0.15510972761E+03  0.17016954540E+03  0.00000000000E+00 0.  1.
</event>
<event>
 7    1  0.6235964E-006  0.6443522E+02  0.7818608E-02  0.1464164E+00
          2   -1    0    0  502    0  0.00000000000E+00  0.00000000000E+00  0.15486597260E+04  0.15486597260E+04  0.00000000000E+00 0. -1.
          1   -1    0    0  501    0 -0.00000000000E+00 -0.00000000000E+00 -0.24824932334E+02  0.24824932334E+02  0.00000000000E+00 0. -1.
         25    2    1    2    0    0  0.29701529255E+02  0.20425667831E+02  0.73850793082E+03  0.74987950852E+03  0.12500369862E+03 0.  0.
          2    1    1    2  501    0 -0.63505752873E+02 -0.20776040948E+02  0.40754892951E+02  0.78266121821E+02  0.00000000000E+00 0. -1.
          1    1    1    2  502    0  0.33804223618E+02  0.35037311740E+00  0.74457196994E+03  0.74533902804E+03  0.00000000000E+00 0. -1.
         22    1    3    3    0    0  0.46490403472E+02  0.57458938043E+02  0.62408862044E+03  0.62845007227E+03  0.00000000000E+00 0.  1.
         22    1    3    3    0    0 -0.16788874217E+02 -0.37033270212E+02  0.11441931038E+03  0.12142943625E+03  0.00000000000E+00 0.  1.
</event>
<event>
 7    1  0.6235964E-006  0.5479191E+02  0.7818608E-02  0.1511093E+00
          2   -1    0    0  502    0  0.00000000000E+00  0.00000000000E+00  0.10757783802E+04  0.10757783802E+04  0.00000000000E+00 0. -1.
          1   -1    0    0  501    0 -0.00000000000E+00 -0.00000000000E+00 -0.88379488474E+02  0.88379488474E+02  0.00000000000E+00 0. -1.
         25    2    1    2    0    0 -0.34921071331E+02  0.66660550890E+02  0.58216110524E+03  0.60016683177E+03  0.12500225289E+03 0.  0.
          2    1    1    2  501    0  0.23807476456E+02 -0.15913643062E+02 -0.75347695510E+02  0.80605925275E+02  0.00000000000E+00 0. -1.
          1    1    1    2  502    0  0.11113594875E+02 -0.50746907828E+02  0.48058548203E+03  0.48338511167E+03  0.00000000000E+00 0. -1.
         22    1    3    3    0    0 -0.66372522193E+02 -0.58842040253E+00  0.19599688206E+03  0.20693099265E+03  0.00000000000E+00 0. -1.
         22    1    3    3    0    0  0.31451450862E+02  0.67248971293E+02  0.38616422318E+03  0.39323583912E+03  0.00000000000E+00 0. -1.
</event>
<event>
 7    1  0.6235964E-006  0.5314269E+02  0.7818608E-02  0.1557641E+00
          2   -1    0    0  502    0  0.00000000000E+00  0.00000000000E+00  0.13911737459E+03  0.13911737459E+03  0.00000000000E+00 0. -1.
          1   -1    0    0  501    0 -0.00000000000E+00 -0.00000000000E+00 -0.11588632679E+04  0.11588632679E+04  0.00000000000E+00 0. -1.
         25    2    1    2    0    0  0.30141089011E+01  0.71707700142E+02 -0.37519889135E+03  0.40193299267E+03  0.12499937366E+03 0.  0.
          2    1    1    2  501    0 -0.97947610557E+01 -0.51035331730E+02 -0.76847217271E+03  0.77022725390E+03  0.00000000000E+00 0. -1.
          1    1    1    2  502    0  0.67806521546E+01 -0.20672368412E+02  0.12392517080E+03  0.12582039587E+03  0.00000000000E+00 0. -1.
         22    1    3    3    0    0 -0.59246102233E+02  0.21915676361E+02 -0.19244682217E+03  0.20254919615E+03  0.00000000000E+00 0. -1.
         22    1    3    3    0    0  0.62260211134E+02  0.49792023781E+02 -0.18275206918E+03  0.19938379652E+03  0.00000000000E+00 0. -1.
</event>
<event>
 7    1  0.6235964E-006  0.1511049E+03  0.7818608E-02  0.1207323E+00
          2   -1    0    0  502    0  0.00000000000E+00  0.00000000000E+00  0.84439437213E+03  0.84439437213E+03  0.00000000000E+00 0. -1.
          1   -1    0    0  501    0 -0.00000000000E+00 -0.00000000000E+00 -0.10787742672E+03  0.10787742672E+03  0.00000000000E+00 0. -1.
         25    2    1    2    0    0  0.49996721180E+01 -0.45145488967E+02  0.10972450241E+03  0.17241670407E+03  0.12499976608E+03 0.  0.
          2    1    1    2  501    0 -0.10654221303E+03 -0.10715146883E+03  0.27957590594E+02  0.15366947420E+03  0.00000000000E+00 0. -1.
          1    1    1    2  502    0  0.10154254091E+03  0.15229695779E+03  0.59883485240E+03  0.62618562058E+03  0.00000000000E+00 0. -1.
         22    1    3    3    0    0  0.42606869445E+02  0.19083433577E+02  0.79274691345E+02  0.91999997005E+02  0.00000000000E+00 0.  1.
         22    1    3    3    0    0 -0.37607197326E+02 -0.64228922544E+02  0.30449811065E+02  0.80416707069E+02  0.00000000000E+00 0.  1.
</event>
<event>
 7    1  0.6235964E-006  0.5547742E+02  0.7818608E-02  0.1426179E+00
          2   -1    0    0  502    0  0.00000000000E+00  0.00000000000E+00  0.29371368385E+03  0.29371368385E+03  0.00000000000E+00 0. -1.
          1   -1    0    0  501    0 -0.00000000000E+00 -0.00000000000E+00 -0.19586260235E+03  0.19586260235E+03  0.00000000000E+00 0. -1.
         25    2    1    2    0    0  0.74319689069E+02 -0.16951746793E+02 -0.67002480967E+02  0.16101883137E+03  0.12500781455E+03 0.  0.
          2    1    1    2  501    0 -0.43238276821E+02 -0.28970930746E+02 -0.70009775108E+02  0.87236643800E+02  0.00000000000E+00 0. -1.
          1    1    1    2  502    0 -0.31081412248E+02  0.45922677539E+02  0.23486333758E+03  0.24132081103E+03  0.00000000000E+00 0. -1.
         22    1    3    3    0    0 -0.19872169090E+02 -0.24475048392E+02 -0.58107707013E+02  0.66109278566E+02  0.00000000000E+00 0.  1.
         22    1    3    3    0    0  0.94191858159E+02  0.75233015992E+01 -0.88947739541E+01  0.94909552807E+02  0.00000000000E+00 0.  1.
</event>
<event>
 7    1  0.6235964E-006  0.1849833E+03  0.7818608E-02  0.1267533E+00
          2   -1    0    0  502    0  0.00000000000E+00  0.00000000000E+00  0.30940627133E+04  0.30940627133E+04  0.00000000000E+00 0. -1.
          1   -1    0    0  501    0 -0.00000000000E+00 -0.00000000000E+00 -0.51299375454E+02  0.51299375454E+02  0.00000000000E+00 0. -1.
         25    2    1    2    0    0 -0.11903503227E+03 -0.52573139073E+02  0.20250751950E+03  0.27123104160E+03  0.12499483435E+03 0.  0.
          2    1    1    2  501    0 -0.60002016348E+02 -0.11595611510E+02  0.54479763186E+02  0.81870292347E+02  0.00000000000E+00 0. -1.
          1    1    1    2  502    0  0.17903704862E+03  0.64168750583E+02  0.27857760551E+04  0.27922607548E+04  0.00000000000E+00 0. -1.
         22    1    3    3    0    0 -0.88255850082E+02 -0.90021508087E+02  0.17441192986E+03  0.21520336491E+03  0.00000000000E+00 0. -1.
         22    1    3    3    0    0 -0.30779182190E+02  0.37448369014E+02  0.28095589646E+02  0.56027676693E+02  0.00000000000E+00 0. -1.
</event>
<event>
 7    1  0.6235964E-006  0.8159059E+02  0.7818608E-02  0.1409667E+00
          2   -1    0    0  502    0  0.00000000000E+00  0.00000000000E+00  0.18072010914E+04  0.18072010914E+04  0.00000000000E+00 0. -1.
          1   -1    0    0  501    0 -0.00000000000E+00 -0.00000000000E+00 -0.11407057630E+03  0.11407057630E+03  0.00000000000E+00 0. -1.
         25    2    1    2    0    0  0.41333071088E+02 -0.24864706798E+02  0.38790654935E+03  0.41039467308E+03  0.12500248097E+03 0.  0.
          2    1    1    2  501    0 -0.81017772834E+02  0.18471225564E+02 -0.85700481818E+02  0.11937184874E+03  0.00000000000E+00 0. -1.
          1    1    1    2  502    0  0.39684701746E+02  0.63934812338E+01  0.13909244476E+04  0.13915051459E+04  0.00000000000E+00 0. -1.
         22    1    3    3    0    0  0.28352488563E+02 -0.59891087607E+02  0.35334386145E+03  0.35950339416E+03  0.00000000000E+00 0. -1.
         22    1    3    3    0    0  0.12980582525E+02  0.35026380809E+02  0.34562687900E+02  0.50891278920E+02  0.00000000000E+00 0. -1.
</event>
<event>
 7    1  0.6235964E-006  0.1021769E+03  0.7818608E-02  0.1424851E+00
          2   -1    0    0  502    0  0.00000000000E+00  0.00000000000E+00  0.15809464512E+03  0.15809464512E+03  0.00000000000E+00 0. -1.
          1   -1    0    0  501    0 -0.00000000000E+00 -0.00000000000E+00 -0.36134489643E+03  0.36134489643E+03  0.00000000000E+00 0. -1.
         25    2    1    2    0    0  0.11987236974E+03  0.90169376289E+01 -0.17041527226E+03  0.24314053623E+03  0.12500106058E+03 0.  0.
          2    1    1    2  501    0 -0.22806167554E+02  0.17169729101E+02 -0.13202013607E+03  0.13507123011E+03  0.00000000000E+00 0. -1.
          1    1    1    2  502    0 -0.97066202186E+02 -0.26186666730E+02  0.99185157012E+02  0.14122777522E+03  0.00000000000E+00 0. -1.
         22    1    3    3    0    0  0.11097028302E+03 -0.27615185587E+02 -0.65786506008E+02  0.13192750495E+03  0.00000000000E+00 0.  1.
         22    1    3    3    0    0  0.89020867204E+01  0.36632123215E+02 -0.10462876625E+03  0.11121303128E+03  0.00000000000E+00 0.  1.
</event>
<event>
 7    1  0.6235964E-006  0.1120540E+03  0.7818608E-02  0.1264587E+00
          2   -1    0    0  502    0  0.00000000000E+00  0.00000000000E+00  0.86268118619E+03  0.86268118619E+03  0.00000000000E+00 0. -1.
          1   -1    0    0  501    0 -0.00000000000E+00 -0.00000000000E+00 -0.20334141954E+03  0.20334141954E+03  0.00000000000E+00 0. -1.
         25    2    1    2    0    0  0.51492357519E+02 -0.34940158616E+02  0.13856920657E+03  0.19671937482E+03  0.12499923942E+03 0.  0.
          2    1    1    2  501    0 -0.47825161076E+02 -0.92149012808E+02 -0.15230505124E+03  0.18432448352E+03  0.00000000000E+00 0. -1.
          1    1    1    2  502    0 -0.36671964425E+01  0.12708917142E+03  0.67307561132E+03  0.68497874739E+03  0.00000000000E+00 0. -1.
         22    1    3    3    0    0  0.48156031116E+02 -0.80353653802E+02  0.10023431454E+03  0.13719559331E+03  0.00000000000E+00 0. -1.
         22    1    3    3    0    0  0.33363264025E+01  0.45413495186E+02  0.38334892023E+02  0.59523781510E+02  0.00000000000E+00 0. -1.
</event>
<event>
 7    1  0.6235964E-006  0.7848582E+02  0.7818608E-02  0.1391317E+00
          2   -1    0    0  502    0  0.00000000000E+00  0.00000000000E+00  0.27459359524E+04  0.27459359524E+04  0.00000000000E+00 0. -1.
          1   -1    0    0  501    0 -0.00000000000E+00 -0.00000000000E+00 -0.30461754515E+03  0.30461754515E+03  0.00000000000E+00 0. -1.
         25    2    1    2    0    0 -0.55890840768E+02  0.70332623067E+02  0.37338353144E+03  0.40386801793E+03  0.12499460152E+03 0.  0.
          2    1    1    2  501    0  0.47680483855E+02  0.78128034964E+01 -0.28669856064E+03  0.29074135088E+03  0.00000000000E+00 0. -1.
          1    1    1    2  502    0  0.82103569134E+01 -0.78145426564E+02  0.23546334364E+04  0.23559441287E+04  0.00000000000E+00 0. -1.
         22    1    3    3    0    0  0.32583534013E+02  0.64329008279E+01  0.34692579873E+02  0.48027533771E+02  0.00000000000E+00 0.  1.
         22    1    3    3    0    0 -0.88474374782E+02  0.63899722239E+02  0.33869095157E+03  0.35584048416E+03  0.00000000000E+00 0.  1.
</event>
<event>
 7    1  0.6235964E-006  0.3491804E+02  0.7818608E-02  0.1569015E+00
          2   -1    0    0  502    0  0.00000000000E+00  0.00000000000E+00  0.12577688133E+04  0.12577688133E+04  0.00000000000E+00 0. -1.
          1   -1    0    0  501    0 -0.00000000000E+00 -0.00000000000E+00 -0.18319372058E+03  0.18319372058E+03  0.00000000000E+00 0. -1.
         25    2    1    2    0    0  0.13090493839E+02 -0.62016291880E+02 -0.49058265583E+02  0.14848937754E+03  0.12500000133E+03 0.  0.
          2    1    1    2  501    0 -0.28024600839E+01  0.32966672128E+02 -0.80973545683E+02  0.87472111865E+02  0.00000000000E+00 0. -1.
          1    1    1    2  502    0 -0.10288033755E+02  0.29049619753E+02  0.12046069039E+04  0.12050010444E+04  0.00000000000E+00 0. -1.
         22    1    3    3    0    0 -0.32957214679E+02 -0.74464819271E+02 -0.57976295512E+02  0.99962183598E+02  0.00000000000E+00 0. -1.
         22    1    3    3    0    0  0.46047708518E+02  0.12448527390E+02  0.89180299291E+01  0.48527193940E+02  0.00000000000E+00 0. -1.
</event>
<event>
 7    1  0.6235964E-006  0.1033727E+03  0.7818608E-02  0.1350043E+00
          2   -1    0    0  502    0  0.00000000000E+00  0.00000000000E+00  0.16195623070E+04  0.16195623070E+04  0.00000000000E+00 0. -1.
          1   -1    0    0  501    0 -0.00000000000E+00 -0.00000000000E+00 -0.88041919806E+03  0.88041919806E+03  0.00000000000E+00 0. -1.
         25    2    1    2    0    0 -0.54851421630E+02 -0.41942872010E+02  0.25951214484E+03  0.29620926466E+03  0.12500196871E+03 0.  0.
          2    1    1    2  501    0  0.82414584899E+00 -0.51604435908E+02 -0.85912047116E+03  0.86066932151E+03  0.00000000000E+00 0. -1.
          1    1    1    2  502    0  0.54027275781E+02  0.93547307918E+02  0.13387514353E+04  0.13431029189E+04  0.00000000000E+00 0. -1.
         22    1    3    3    0    0 -0.71730973932E+02  0.15519277682E+02  0.19414956602E+03  0.20755778614E+03  0.00000000000E+00 0.  1.
         22    1    3    3    0    0  0.16879552302E+02 -0.57462149692E+02  0.65362578823E+02  0.88651478519E+02  0.00000000000E+00 0.  1.
</event>
<event>
 7    1  0.6235964E-006  0.3039495E+03  0.7818608E-02  0.1133012E+00
          2   -1    0    0  502    0  0.00000000000E+00  0.00000000000E+00  0.19492449328E+04  0.19492449328E+04  0.00000000000E+00 0. -1.
          1   -1    0    0  501    0 -0.00000000000E+00 -0.00000000000E+00 -0.19009262474E+04  0.19009262474E+04  0.00000000000E+00 0. -1.
         25    2    1    2    0    0 -0.34595467774E+03 -0.26459574200E+03 -0.69347868624E+02  0.45839818933E+03  0.12499690943E+03 0.  0.
          2    1    1    2  501    0  0.15737924965E+03  0.33657952638E+02 -0.16203731912E+04  0.16283458984E+04  0.00000000000E+00 0. -1.
          1    1    1    2  502    0  0.18857542808E+03  0.23093778937E+03  0.17380397452E+04  0.17634270925E+04  0.00000000000E+00 0. -1.
         22    1    3    3    0    0 -0.47013558605E+02 -0.30352216958E+02  0.33129371588E+02  0.65031431083E+02  0.00000000000E+00 0. -1.
         22    1    3    3    0    0 -0.29894111913E+03 -0.23424352505E+03 -0.10247724021E+03  0.39336675825E+03  0.00000000000E+00 0. -1.
</event>
<event>
 7    1  0.6235964E-006  0.7824964E+02  0.7818608E-02  0.1391794E+00
          2   -1    0    0  502    0  0.00000000000E+00  0.00000000000E+00  0.16307111388E+04  0.16307111388E+04  0.00000000000E+00 0. -1.
          1   -1    0    0  501    0 -0.00000000000E+00 -0.00000000000E+00 -0.17188700066E+04  0.17188700066E+04  0.00000000000E+00 0. -1.
         25    2    1    2    0    0 -0.47990019460E+02  0.17419761296E+02  0.67462693763E+02  0.15093173767E+03  0.12499073700E+03 0.  0.
          2    1    1    2  501    0 -0.28094753732E+02 -0.39260222258E+02 -0.16757580662E+04  0.16764533326E+04  0.00000000000E+00 0. -1.
          1    1    1    2  502    0  0.76084773192E+02  0.21840460962E+02  0.15201365046E+04  0.15221960751E+04  0.00000000000E+00 0. -1.
         22    1    3    3    0    0  0.11731916736E+02  0.35140213572E+02  0.79295124587E+02  0.87522507182E+02  0.00000000000E+00 0. -1.
         22    1    3    3    0    0 -0.59721936196E+02 -0.17720452276E+02 -0.11832430824E+02  0.63409230488E+02  0.00000000000E+00 0. -1.
</event>
<event>
 7    1  0.6235964E-006  0.6815338E+02  0.7818608E-02  0.1408283E+00
          2   -1    0    0  502    0  0.00000000000E+00  0.00000000000E+00  0.22397535061E+04  0.22397535061E+04  0.00000000000E+00 0. -1.
          1   -1    0    0  501    0 -0.00000000000E+00 -0.00000000000E+00 -0.39883358765E+02  0.39883358765E+02  0.00000000000E+00 0. -1.
         25    2    1    2    0    0 -0.63647755326E+02  0.24518755524E+02  0.49012421584E+03  0.51038997018E+03  0.12499587425E+03 0.  0.
          2    1    1    2  501    0  0.32130761798E+02 -0.61572725244E+02  0.11611662786E+02  0.70416028433E+02  0.00000000000E+00 0. -1.
          1    1    1    2  502    0  0.31516993528E+02  0.37053969720E+02  0.16981342687E+04  0.16988308663E+04  0.00000000000E+00 0. -1.
         22    1    3    3    0    0  0.23402518408E+02 -0.29026614057E+01  0.28383694221E+03  0.28481487509E+03  0.00000000000E+00 0. -1.
         22    1    3    3    0    0 -0.87050273734E+02  0.27421416929E+02  0.20628727363E+03  0.22557509509E+03  0.00000000000E+00 0. -1.
</event>
<event>
 7    1  0.6235964E-006  0.1078594E+03  0.7818608E-02  0.1341251E+00
          2   -1    0    0  502    0  0.00000000000E+00  0.00000000000E+00  0.11973686175E+04  0.11973686175E+04  0.00000000000E+00 0. -1.
          1   -1    0    0  501    0 -0.00000000000E+00 -0.00000000000E+00 -0.51600888373E+03  0.51600888373E+03  0.00000000000E+00 0. -1.
         25    2    1    2    0    0  0.31748607225E+02  0.12690912886E+03  0.11554942821E+03  0.21468743137E+03  0.12500048711E+03 0.  0.
          2    1    1    2  501    0  0.17316634793E+02 -0.10597719825E+03 -0.45955702216E+03  0.47193610691E+03  0.00000000000E+00 0. -1.
          1    1    1    2  502    0 -0.49065242019E+02 -0.20931930609E+02  0.10253673277E+04  0.10267539630E+04  0.00000000000E+00 0. -1.
         22    1    3    3    0    0  0.45360559139E+02  0.14857873837E+03  0.99362621725E+02  0.18440757147E+03  0.00000000000E+00 0.  1.
         22    1    3    3    0    0 -0.13611951913E+02 -0.21669609507E+02  0.16186806485E+02  0.30279859895E+02  0.00000000000E+00 0.  1.
</event>
<event>
 7    1  0.6235964E-006  0.7121880E+02  0.7818608E-02  0.1419108E+00
          2   -1    0    0  502    0  0.00000000000E+00  0.00000000000E+00  0.15496356214E+04  0.15496356214E+04  0.00000000000E+00 0. -1.
          1   -1    0    0  501    0 -0.00000000000E+00 -0.00000000000E+00 -0.72161894519E+03  0.72161894519E+03  0.00000000000E+00 0. -1.
         25    2    1    2    0    0  0.23902708293E+02  0.17704045248E+02 -0.47719080973E+03  0.49418672432E+03  0.12499870769E+03 0.  0.
          2    1    1    2  501    0  0.41375150453E+02  0.10951551489E+02 -0.23315679060E+03  0.23705258606E+03  0.00000000000E+00 0. -1.
          1    1    1    2  502    0 -0.65277858745E+02 -0.28655596736E+02  0.15383642765E+04  0.15400152562E+04  0.00000000000E+00 0. -1.
         22    1    3    3    0    0  0.61042524431E+02 -0.26507087941E+02 -0.19191247856E+03  0.20312364443E+03  0.00000000000E+00 0.  1.
         22    1    3    3    0    0 -0.37139816138E+02  0.44211133189E+02 -0.28527833117E+03  0.29106307989E+03  0.00000000000E+00 0.  1.
</event>
<event>
 7    1  0.6235964E-006  0.3171948E+02  0.7818608E-02  0.1614975E+00
          2   -1    0    0  502    0  0.00000000000E+00  0.00000000000E+00  0.11520019703E+04  0.11520019703E+04  0.00000000000E+00 0. -1.
          1   -1    0    0  501    0 -0.00000000000E+00 -0.00000000000E+00 -0.28153766158E+02  0.28153766158E+02  0.00000000000E+00 0. -1.
         25    2    1    2    0    0  0.21109792173E+02 -0.24862475040E+02  0.17845598200E+03  0.22029682345E+03  0.12498154632E+03 0.  0.
          2    1    1    2  501    0  0.10693753949E+02  0.23319391829E+02  0.16678223329E+02  0.30599240876E+02  0.00000000000E+00 0. -1.
          1    1    1    2  502    0 -0.31803546121E+02  0.15430832106E+01  0.92871399885E+03  0.92925967217E+03  0.00000000000E+00 0. -1.
         22    1    3    3    0    0 -0.40887741546E+02  0.12789729049E+02  0.11910055651E+03  0.12657143098E+03  0.00000000000E+00 0. -1.
         22    1    3    3    0    0  0.61997533719E+02 -0.37652204089E+02  0.59355425483E+02  0.93725392473E+02  0.00000000000E+00 0. -1.
</event>
<event>
 7    1  0.6235964E-006  0.5648767E+02  0.7818608E-02  0.1482410E+00
          2   -1    0    0  502    0  0.00000000000E+00  0.00000000000E+00  0.28001790099E+04  0.28001790099E+04  0.00000000000E+00 0. -1.
          1   -1    0    0  501    0 -0.00000000000E+00 -0.00000000000E+00 -0.12276659968E+04  0.12276659968E+04  0.00000000000E+00 0. -1.
         25    2    1    2    0    0  0.20296560280E+02 -0.18050023933E+02  0.86740602579E+03  0.87678470716E+03  0.12498182029E+03 0.  0.
          2    1    1    2  501    0  0.32656712860E+02 -0.89400886557E+01 -0.12222841347E+04  0.12227529971E+04  0.00000000000E+00 0. -1.
          1    1    1    2  502    0 -0.52953273140E+02  0.26990112589E+02  0.19273911220E+04  0.19283073024E+04  0.00000000000E+00 0. -1.
         22    1    3    3    0    0  0.64950461376E+02  0.18378591566E+02  0.37597582279E+03  0.38198711285E+03  0.00000000000E+00 0. -1.
         22    1    3    3    0    0 -0.44653901096E+02 -0.36428615499E+02  0.49143020300E+03  0.49479759430E+03  0.00000000000E+00 0. -1.
</event>
<event>
 7    1  0.6235964E-006  0.1088506E+03  0.7818608E-02  0.1409358E+00
          2   -1    0    0  502    0  0.00000000000E+00  0.00000000000E+00  0.17871680615E+04  0.17871680615E+04  0.00000000000E+00 0. -1.
          1   -1    0    0  501    0 -0.00000000000E+00 -0.00000000000E+00 -0.58347013431E+03  0.58347013431E+03  0.00000000000E+00 0. -1.
         25    2    1    2    0    0 -0.10180840537E+03  0.33971145307E+01  0.12294706219E+03  0.20278155474E+03  0.12501154767E+03 0.  0.
          2    1    1    2  501    0 -0.42776119126E+01 -0.29898041724E+02 -0.54129117865E+03  0.54213313027E+03  0.00000000000E+00 0. -1.
          1    1    1    2  502    0  0.10608601728E+03  0.26500927193E+02  0.16220420436E+04  0.16257235108E+04  0.00000000000E+00 0. -1.
         22    1    3    3    0    0  0.72569099017E+01 -0.87195936819E+00  0.87814057951E+02  0.88117715746E+02  0.00000000000E+00 0. -1.
         22    1    3    3    0    0 -0.10906531527E+03  0.42690738989E+01  0.35133004240E+02  0.11466383900E+03  0.00000000000E+00 0. -1.
</event>
<event>
 7    1  0.6235964E-006  0.6626460E+02  0.7818608E-02  0.1493324E+00
          2   -1    0    0  502    0  0.00000000000E+00  0.00000000000E+00  0.10786451709E+03  0.10786451709E+03  0.00000000000E+00 0. -1.
          1   -1    0    0  501    0 -0.00000000000E+00 -0.00000000000E+00 -0.20281327527E+04  0.20281327527E+04  0.00000000000E+00 0. -1.
         25    2    1    2    0    0  0.72918386776E+01  0.42149675712E+02 -0.66499172741E+02  0.14790851498E+03  0.12500009102E+03 0.  0.
          2    1    1    2  501    0  0.37478383574E+01 -0.66508334226E+02 -0.19176650929E+04  0.19188217253E+04  0.00000000000E+00 0. -1.
          1    1    1    2  502    0 -0.11039677035E+02  0.24358658513E+02  0.63896030088E+02  0.69267029492E+02  0.00000000000E+00 0. -1.
         22    1    3    3    0    0 -0.14544268561E+02 -0.42128581852E+02 -0.16588512884E+02  0.47555566620E+02  0.00000000000E+00 0. -1.
         22    1    3    3    0    0  0.21836107239E+02  0.84278257564E+02 -0.49910659857E+02  0.10035294836E+03  0.00000000000E+00 0. -1.
</event>
<event>
 7    1  0.6235964E-006  0.1438864E+03  0.7818608E-02  0.1247496E+00
          2   -1    0    0  502    0  0.00000000000E+00  0.00000000000E+00  0.35858740688E+04  0.35858740688E+04  0.00000000000E+00 0. -1.
          1   -1    0    0  501    0 -0.00000000000E+00 -0.00000000000E+00 -0.41016291646E+03  0.41016291646E+03  0.00000000000E+00 0. -1.
         25    2    1    2    0    0  0.30997990511E+01  0.19123334471E+03  0.21469279510E+03  0.31352527929E+03  0.12500121440E+03 0.  0.
          2    1    1    2  501    0  0.66876921298E+02 -0.12588684022E+03 -0.34594480400E+03  0.37416283428E+03  0.00000000000E+00 0. -1.
          1    1    1    2  502    0 -0.69976720349E+02 -0.65346504490E+02  0.33069631613E+04  0.33083488717E+04  0.00000000000E+00 0. -1.
         22    1    3    3    0    0  0.14265883540E+01  0.10177477332E+03  0.26549883434E+02  0.10519047462E+03  0.00000000000E+00 0. -1.
         22    1    3    3    0    0  0.16732106971E+01  0.89458571390E+02  0.18814291167E+03  0.20833480468E+03  0.00000000000E+00 0. -1.
</event>
<event>
 7    1  0.6235964E-006  0.8083790E+02  0.7818608E-02  0.1487483E+00
          2   -1    0    0  502    0  0.00000000000E+00  0.00000000000E+00  0.15013967780E+04  0.15013967780E+04  0.00000000000E+00 0. -1.
          1   -1    0    0  501    0 -0.00000000000E+00 -0.00000000000E+00 -0.46278616479E+02  0.46278616479E+02  0.00000000000E+00 0. -1.
         25    2    1    2    0    0 -0.60325951290E+02  0.46591732714E+02  0.33879153482E+03  0.36907412814E+03  0.12500399209E+03 0.  0.
          2    1    1    2  501    0  0.48445183607E+02 -0.66089271992E+02  0.23101276568E+02  0.85137516209E+02  0.00000000000E+00 0. -1.
          1    1    1    2  502    0  0.11880767683E+02  0.19497539278E+02  0.10932253501E+04  0.10934637501E+04  0.00000000000E+00 0. -1.
         22    1    3    3    0    0  0.30429332036E+02 -0.14443599567E+02  0.11746737446E+03  0.12220125155E+03  0.00000000000E+00 0. -1.
         22    1    3    3    0    0 -0.90755283326E+02  0.61035332281E+02  0.22132416036E+03  0.24687287659E+03  0.00000000000E+00 0. -1.
</event>
<event>
 7    1  0.6235964E-006  0.7743307E+02  0.7818608E-02  0.1343846E+00
          2   -1    0    0  502    0  0.00000000000E+00  0.00000000000E+00  0.41785122960E+03  0.41785122960E+03  0.00000000000E+00 0. -1.
          1   -1    0    0  501    0 -0.00000000000E+00 -0.00000000000E+00 -0.28128599031E+03  0.28128599031E+03  0.00000000000E+00 0. -1.
         25    2    1    2    0    0  0.17089767284E+02  0.11987402322E+02  0.27966324292E+02  0.12978150652E+03  0.12500146471E+03 0.  0.
          2    1    1    2  501    0 -0.48533750292E+01 -0.83608511073E+02 -0.21864851069E+03  0.23413908175E+03  0.00000000000E+00 0. -1.
          1    1    1    2  502    0 -0.12236392255E+02  0.71621108751E+02  0.32724742569E+03  0.33521663165E+03  0.00000000000E+00 0. -1.
         22    1    3    3    0    0  0.19058137835E+02  0.41286748546E+02  0.66976117609E+02  0.80954360928E+02  0.00000000000E+00 0. -1.
         22    1    3    3    0    0 -0.19683705512E+01 -0.29299346224E+02 -0.39009793316E+02  0.48827145589E+02  0.00000000000E+00 0. -1.
</event>
<event>
 7    1  0.6235964E-006  0.3203452E+03  0.7818608E-02  0.1298439E+00
          2   -1    0    0  502    0  0.00000000000E+00  0.00000000000E+00  0.17969532942E+04  0.17969532942E+04  0.00000000000E+00 0. -1.
          1   -1    0    0  501    0 -0.00000000000E+00 -0.00000000000E+00 -0.37193164271E+03  0.37193164271E+03  0.00000000000E+00 0. -1.
         25    2    1    2    0    0 -0.16881261169E+03  0.24849396903E+03  0.23207905230E+03  0.39966574543E+03  0.12500028416E+03 0.  0.
          2    1    1    2  501    0  0.17860632877E+03 -0.27293886949E+03 -0.19566026612E+03  0.38036664798E+03  0.00000000000E+00 0. -1.
          1    1    1    2  502    0 -0.97937170816E+01  0.24444900463E+02  0.13886028653E+04  0.13888525435E+04  0.00000000000E+00 0. -1.
         22    1    3    3    0    0 -0.27301625844E+02  0.14623466485E+03  0.12908296654E+03  0.19695778286E+03  0.00000000000E+00 0. -1.
         22    1    3    3    0    0 -0.14151098585E+03  0.10225930418E+03  0.10299608576E+03  0.20270796257E+03  0.00000000000E+00 0. -1.
</event>
<event>
 7    1  0.6644535E-006  0.9857585E+02  0.7818608E-02  0.1389190E+00
          2   -1    0    0  502    0  0.00000000000E+00  0.00000000000E+00  0.21622074149E+04  0.21622074149E+04  0.00000000000E+00 0. -1.
          1   -1    0    0  501    0 -0.00000000000E+00 -0.00000000000E+00 -0.78460198747E+03  0.78460198747E+03  0.00000000000E+00 0. -1.
         25    2    1    2    0    0 -0.39900733299E+02 -0.90121312369E+02 -0.30918181788E+03  0.34775454974E+03  0.12500364354E+03 0.  0.
          2    1    1    2  501    0  0.21075945501E+01  0.10027072308E+03 -0.45043952850E+03  0.46146985676E+03  0.00000000000E+00 0. -1.
          1    1    1    2  502    0  0.37793138749E+02 -0.10149410706E+02  0.21372267738E+04  0.21375849958E+04  0.00000000000E+00 0. -1.
         22    1    3    3    0    0  0.11520220043E+02  0.17970654826E+02 -0.65787448582E+01  0.22336960147E+02  0.00000000000E+00 0.  1.
         22    1    3    3    0    0 -0.51420953342E+02 -0.10809196720E+03 -0.30260307303E+03  0.32541758960E+03  0.00000000000E+00 0.  1.
</event>
<event>
 7    1  0.6235964E-006  0.5353435E+02  0.7818608E-02  0.1454219E+00
          2   -1    0    0  502    0  0.00000000000E+00  0.00000000000E+00  0.74058627480E+03  0.74058627480E+03  0.00000000000E+00 0. -1.
          1   -1    0    0  501    0 -0.00000000000E+00 -0.00000000000E+00 -0.57091916810E+02  0.57091916810E+02  0.00000000000E+00 0. -1.
         25    2    1    2    0    0 -0.84529818660E+02  0.35095007911E+02  0.31484706903E+03  0.35090016681E+03  0.12500120145E+03 0.  0.
          2    1    1    2  501    0  0.40933266886E+02 -0.31537614161E+02 -0.20197615093E+02  0.55480601117E+02  0.00000000000E+00 0. -1.
          1    1    1    2  502    0  0.43596551774E+02 -0.35573937507E+01  0.38884490405E+03  0.39129742368E+03  0.00000000000E+00 0. -1.
         22    1    3    3    0    0  0.83011452199E+01 -0.18404475686E+02  0.20879562213E+01  0.20297618048E+02  0.00000000000E+00 0. -1.
         22    1    3    3    0    0 -0.92830963879E+02  0.53499483597E+02  0.31275911281E+03  0.33060254876E+03  0.00000000000E+00 0. -1.
</event>
<event>
 7    1  0.6235964E-006  0.1039217E+03  0.7818608E-02  0.1416750E+00
          2   -1    0    0  502    0  0.00000000000E+00  0.00000000000E+00  0.17379054784E+04  0.17379054784E+04  0.00000000000E+00 0. -1.
          1   -1    0    0  501    0 -0.00000000000E+00 -0.00000000000E+00 -0.12570186379E+04  0.12570186379E+04  0.00000000000E+00 0. -1.
         25    2    1    2    0    0  0.63656742166E+02 -0.56667284330E+02  0.77408150818E+02  0.16994051557E+03  0.12499758031E+03 0.  0.
          2    1    1    2  501    0 -0.42793486959E+01 -0.29561487196E+02 -0.12088702106E+04  0.12092391742E+04  0.00000000000E+00 0. -1.
          1    1    1    2  502    0 -0.59377393470E+02  0.86228771526E+02  0.16123489003E+04  0.16157444266E+04  0.00000000000E+00 0. -1.
         22    1    3    3    0    0  0.54608717072E+02  0.24504208653E+02  0.37732838285E+01  0.59973376533E+02  0.00000000000E+00 0.  1.
         22    1    3    3    0    0  0.90480250939E+01 -0.81171492984E+02  0.73634866990E+02  0.10996713904E+03  0.00000000000E+00 0.  1.
</event>
<event>
 7    1  0.6235964E-006  0.7023686E+02  0.7818608E-02  0.1441089E+00
          2   -1    0    0  502    0  0.00000000000E+00  0.00000000000E+00  0.78233596038E+03  0.78233596038E+03  0.00000000000E+00 0. -1.
          1   -1    0    0  501    0 -0.00000000000E+00 -0.00000000000E+00 -0.12294342437E+03  0.12294342437E+03  0.00000000000E+00 0. -1.
         25    2    1    2    0    0 -0.68250249595E+02 -0.20699234021E+02  0.18016271006E+03  0.23058820774E+03  0.12500305835E+03 0.  0.
          2    1    1    2  501    0  0.48380443064E+02  0.51600076585E+02 -0.84255160034E+02  0.11000985032E+03  0.00000000000E+00 0. -1.
          1    1    1    2  502    0  0.19869806532E+02 -0.30900842564E+02  0.56348498599E+03  0.56468132669E+03  0.00000000000E+00 0. -1.
         22    1    3    3    0    0 -0.95546044727E+02  0.14673849673E+02  0.10180744729E+03  0.14038919064E+03  0.00000000000E+00 0. -1.
         22    1    3    3    0    0  0.27295795132E+02 -0.35373083694E+02  0.78355262770E+02  0.90199017099E+02  0.00000000000E+00 0. -1.
</event>
<event>
 7    1  0.6235964E-006  0.1579933E+03  0.7818608E-02  0.1341050E+00
          2   -1    0    0  502    0  0.00000000000E+00  0.00000000000E+00  0.25760297187E+04  0.25760297187E+04  0.00000000000E+00 0. -1.
          1   -1    0    0  501    0 -0.00000000000E+00 -0.00000000000E+00 -0.89353778046E+03  0.89353778046E+03  0.00000000000E+00 0. -1.
         25    2    1    2    0    0  0.14871662530E+03  0.10840658319E+03 -0.90435620043E+02  0.24014565399E+03  0.12499084701E+03 0.  0.
          2    1    1    2  501    0 -0.11225395894E+03 -0.10727752002E+03 -0.71983564389E+03  0.73639172443E+03  0.00000000000E+00 0. -1.
          1    1    1    2  502    0 -0.36462666359E+02 -0.11290631728E+01  0.24927632022E+04  0.24930301207E+04  0.00000000000E+00 0. -1.
         22    1    3    3    0    0 -0.99472469514E+00 -0.13788110115E+02 -0.37219297475E+02  0.39703621526E+02  0.00000000000E+00 0.  1.
         22    1    3    3    0    0  0.14971135000E+03  0.12219469330E+03 -0.53216322568E+02  0.20044203246E+03  0.00000000000E+00 0.  1.
</event>
<event>
 7    1  0.6235964E-006  0.1323590E+03  0.7818608E-02  0.1290552E+00
          2   -1    0    0  502    0  0.00000000000E+00  0.00000000000E+00  0.18130331226E+04  0.18130331226E+04  0.00000000000E+00 0. -1.
          1   -1    0    0  501    0 -0.00000000000E+00 -0.00000000000E+00 -0.50929137063E+02  0.50929137063E+02  0.00000000000E+00 0. -1.
         25    2    1    2    0    0  0.29453683935E+02  0.69453335125E+02  0.61127179834E+03  0.62845513351E+03  0.12494542060E+03 0.  0.
          2    1    1    2  501    0 -0.50807033609E+02 -0.13462950423E+03  0.84300326030E+02  0.16677230898E+03  0.00000000000E+00 0. -1.
          1    1    1    2  502    0  0.21353349674E+02  0.65176169104E+02  0.10665318611E+04  0.10687348171E+04  0.00000000000E+00 0. -1.
         22    1    3    3    0    0  0.51501192175E+02 -0.94616360432E+01  0.12816438792E+03  0.13844856692E+03  0.00000000000E+00 0. -1.
         22    1    3    3    0    0 -0.22047508240E+02  0.78914971169E+02  0.48310741042E+03  0.49000656658E+03  0.00000000000E+00 0. -1.
</event>
<event>
 7    1  0.6235964E-006  0.1526476E+03  0.7818608E-02  0.1260551E+00
          2   -1    0    0  502    0  0.00000000000E+00  0.00000000000E+00  0.11517062840E+03  0.11517062840E+03  0.00000000000E+00 0. -1.
          1   -1    0    0  501    0 -0.00000000000E+00 -0.00000000000E+00 -0.49955270984E+03  0.49955270984E+03  0.00000000000E+00 0. -1.
         25    2    1    2    0    0  0.10951160887E+03 -0.13965607029E+03 -0.29949753101E+03  0.36989241520E+03  0.12500006918E+03 0.  0.
          2    1    1    2  501    0 -0.30640863309E+02  0.13159161476E+03 -0.94626468632E+02  0.16495267244E+03  0.00000000000E+00 0. -1.
          1    1    1    2  502    0 -0.78870745564E+02  0.80644555287E+01  0.97419181961E+01  0.79878250600E+02  0.00000000000E+00 0. -1.
         22    1    3    3    0    0  0.15747584147E+02 -0.11630324923E+03 -0.19476413851E+03  0.22739283594E+03  0.00000000000E+00 0.  1.
         22    1    3    3    0    0  0.93764024726E+02 -0.23352821053E+02 -0.10473339250E+03  0.14249957926E+03  0.00000000000E+00 0.  1.
</event>
<event>
 7    1  0.6235964E-006  0.1010009E+03  0.7818608E-02  0.1362558E+00
          2   -1    0    0  502    0  0.00000000000E+00  0.00000000000E+00  0.39593782401E+03  0.39593782401E+03  0.00000000000E+00 0. -1.
          1   -1    0    0  501    0 -0.00000000000E+00 -0.00000000000E+00 -0.41529777239E+03  0.41529777239E+03  0.00000000000E+00 0. -1.
         25    2    1    2    0    0 -0.10594847478E+03 -0.10009690517E+03  0.14019472335E+03  0.23774591505E+03  0.12499635969E+03 0.  0.
          2    1    1    2  501    0  0.66027646931E+02  0.74316383563E+02 -0.35690870318E+03  0.37049480082E+03  0.00000000000E+00 0. -1.
          1    1    1    2  502    0  0.39920827854E+02  0.25780521603E+02  0.19735403146E+03  0.20299488053E+03  0.00000000000E+00 0. -1.
         22    1    3    3    0    0 -0.15860074334E+02 -0.75225836215E+02  0.11938712499E+03  0.14199913382E+03  0.00000000000E+00 0. -1.
         22    1    3    3    0    0 -0.90088400451E+02 -0.24871068952E+02  0.20807598358E+02  0.95746781230E+02  0.00000000000E+00 0. -1.
</event>
<event>
 7    1  0.6235964E-006  0.7180858E+02  0.7818608E-02  0.1412126E+00
          2   -1    0    0  502    0  0.00000000000E+00  0.00000000000E+00  0.20500068104E+03  0.20500068104E+03  0.00000000000E+00 0. -1.
          1   -1    0    0  501    0 -0.00000000000E+00 -0.00000000000E+00 -0.37764311846E+03  0.37764311846E+03  0.00000000000E+00 0. -1.
         25    2    1    2    0    0  0.71374477476E+02  0.59275574218E+02 -0.15117613638E+03  0.21699635398E+03  0.12500113478E+03 0.  0.
          2    1    1    2  501    0 -0.26820393256E+02 -0.64013317884E+02 -0.18420871557E+03  0.19684991555E+03  0.00000000000E+00 0. -1.
          1    1    1    2  502    0 -0.44554084219E+02  0.47377436666E+01  0.16274241453E+03  0.16879752996E+03  0.00000000000E+00 0. -1.
         22    1    3    3    0    0  0.98873342469E+02  0.14878172088E+02 -0.11991530898E+03  0.15613128829E+03  0.00000000000E+00 0. -1.
         22    1    3    3    0    0 -0.27498864994E+02  0.44397402130E+02 -0.31260827395E+02  0.60865065688E+02  0.00000000000E+00 0. -1.
</event>
<event>
 7    1  0.6235964E-006  0.5592382E+02  0.7818608E-02  0.1454317E+00
          2   -1    0    0  502    0  0.00000000000E+00  0.00000000000E+00  0.49603949951E+03  0.49603949951E+03  0.00000000000E+00 0. -1.
          1   -1    0    0  501    0 -0.00000000000E+00 -0.00000000000E+00 -0.78732874631E+03  0.78732874631E+03  0.00000000000E+00 0. -1.
         25    2    1    2    0    0 -0.16651460739E+02 -0.63807823961E+02 -0.37540211515E+02  0.14622995472E+03  0.12500089053E+03 0.  0.
          2    1    1    2  501    0 -0.28487130426E+02  0.30647819585E+02 -0.69303453298E+03  0.69429652840E+03  0.00000000000E+00 0. -1.
          1    1    1    2  502    0  0.45138591165E+02  0.33160004375E+02  0.43928549769E+03  0.44284176269E+03  0.00000000000E+00 0. -1.
         22    1    3    3    0    0 -0.46515240148E+02 -0.85096989542E+02 -0.47836982656E+02  0.10813668251E+03  0.00000000000E+00 0.  1.
         22    1    3    3    0    0  0.29863779409E+02  0.21289165582E+02  0.10296771141E+02  0.38093272210E+02  0.00000000000E+00 0.  1.
</event>
<event>
 7    1  0.6235964E-006  0.4913109E+02  0.7818608E-02  0.1450753E+00
          2   -1    0    0  502    0  0.00000000000E+00  0.00000000000E+00  0.32335678950E+03  0.32335678950E+03  0.00000000000E+00 0. -1.
          1   -1    0    0  501    0 -0.00000000000E+00 -0.00000000000E+00 -0.43389005793E+03  0.43389005793E+03  0.00000000000E+00 0. -1.
         25    2    1    2    0    0 -0.60089431838E+01 -0.13836802050E+02 -0.44003475251E+02  0.13337777828E+03  0.12500304562E+03 0.  0.
          2    1    1    2  501    0  0.46670522608E+02 -0.15353372473E+02 -0.34117778039E+03  0.34469717370E+03  0.00000000000E+00 0. -1.
          1    1    1    2  502    0 -0.40661579424E+02  0.29190174523E+02  0.27464798721E+03  0.27917189545E+03  0.00000000000E+00 0. -1.
         22    1    3    3    0    0 -0.29761663793E+02  0.53456095489E+01 -0.80384236126E+02  0.85883395314E+02  0.00000000000E+00 0. -1.
         22    1    3    3    0    0  0.23752720609E+02 -0.19182411599E+02  0.36380760875E+02  0.47494382962E+02  0.00000000000E+00 0. -1.
</event>
<event>
 7    1  0.6235964E-006  0.6706783E+02  0.7818608E-02  0.1456112E+00
          2   -1    0    0  502    0  0.00000000000E+00  0.00000000000E+00  0.56715659409E+03  0.56715659409E+03  0.00000000000E+00 0. -1.
          1   -1    0    0  501    0 -0.00000000000E+00 -0.00000000000E+00 -0.22420874297E+03  0.22420874297E+03  0.00000000000E+00 0. -1.
         25    2    1    2    0    0  0.74609828919E+02  0.62387255021E+02 -0.10937378166E+03  0.19247735035E+03  0.12500444041E+03 0.  0.
          2    1    1    2  501    0 -0.32810831922E+02 -0.10450687709E+02 -0.66985959537E+02  0.75318565706E+02  0.00000000000E+00 0. -1.
          1    1    1    2  502    0 -0.41798996996E+02 -0.51936567312E+02  0.51930759231E+03  0.52356942100E+03  0.00000000000E+00 0. -1.
         22    1    3    3    0    0 -0.54724371619E+01  0.75620497197E+02 -0.65596499747E+02  0.10025621150E+03  0.00000000000E+00 0.  1.
         22    1    3    3    0    0  0.80082266080E+02 -0.13233242176E+02 -0.43777281911E+02  0.92221138849E+02  0.00000000000E+00 0.  1.
</event>
<event>
 7    1  0.6235964E-006  0.3898331E+02  0.7818608E-02  0.1544222E+00
          2   -1    0    0  502    0  0.00000000000E+00  0.00000000000E+00  0.71253587113E+03  0.71253587113E+03  0.00000000000E+00 0. -1.
          1   -1    0    0  501    0 -0.00000000000E+00 -0.00000000000E+00 -0.18308153508E+04  0.18308153508E+04  0.00000000000E+00 0. -1.
         25    2    1    2    0    0  0.13897567082E+02  0.21304447104E+02  0.85795540415E+02  0.15373102180E+03  0.12500132188E+03 0.  0.
          2    1    1    2  501    0  0.14845604944E+02 -0.36092893948E+02 -0.17961948193E+04  0.17966187459E+04  0.00000000000E+00 0. -1.
          1    1    1    2  502    0 -0.28743172026E+02  0.14788446845E+02  0.59211979925E+03  0.59300145427E+03  0.00000000000E+00 0. -1.
         22    1    3    3    0    0  0.60472921984E+02  0.68778788355E+01  0.72649344015E+01  0.61294851190E+02  0.00000000000E+00 0. -1.
         22    1    3    3    0    0 -0.46575354902E+02  0.14426568268E+02  0.78530606014E+02  0.92436170611E+02  0.00000000000E+00 0. -1.
</event>
<event>
 7    1  0.6235964E-006  0.5728069E+02  0.7818608E-02  0.1478599E+00
          2   -1    0    0  502    0  0.00000000000E+00  0.00000000000E+00  0.56790320085E+03  0.56790320085E+03  0.00000000000E+00 0. -1.
          1   -1    0    0  501    0 -0.00000000000E+00 -0.00000000000E+00 -0.45046630044E+03  0.45046630044E+03  0.00000000000E+00 0. -1.
         25    2    1    2    0    0 -0.67873648511E+02 -0.24449685056E+01  0.16173509723E+03  0.21540107635E+03  0.12500628778E+03 0.  0.
          2    1    1    2  501    0  0.50448155631E+02 -0.27098738947E+02 -0.42091514777E+03  0.42479279617E+03  0.00000000000E+00 0. -1.
          1    1    1    2  502    0  0.17425492879E+02  0.29543707453E+02  0.37661695095E+03  0.37817562877E+03  0.00000000000E+00 0. -1.
         22    1    3    3    0    0 -0.10261308904E+02  0.12537691514E+02  0.15459968374E+03  0.15544629421E+03  0.00000000000E+00 0. -1.
         22    1    3    3    0    0 -0.57612339607E+02 -0.14982660020E+02  0.71354134813E+01  0.59954782143E+02  0.00000000000E+00 0. -1.
</event>
<event>
 7    1  0.6235964E-006  0.1795728E+03  0.7818608E-02  0.1351387E+00
          2   -1    0    0  502    0  0.00000000000E+00  0.00000000000E+00  0.15390800403E+04  0.15390800403E+04  0.00000000000E+00 0. -1.
          1   -1    0    0  501    0 -0.00000000000E+00 -0.00000000000E+00 -0.35299091755E+03  0.35299091755E+03  0.00000000000E+00 0. -1.
         25    2    1    2    0    0 -0.16509484546E+03 -0.50302460268E+02  0.11008212631E+03  0.23985602010E+03  0.12500476125E+03 0.  0.
          2    1    1    2  501    0  0.17933536132E+03  0.24613553885E+02 -0.25949323816E+03  0.31639175006E+03  0.00000000000E+00 0. -1.
          1    1    1    2  502    0 -0.14240515860E+02  0.25688906383E+02  0.13355002346E+04  0.13358231877E+04  0.00000000000E+00 0. -1.
         22    1    3    3    0    0 -0.90276170858E+02 -0.22583348843E+02 -0.12190770933E+02  0.93853127629E+02  0.00000000000E+00 0.  1.
         22    1    3    3    0    0 -0.74818674603E+02 -0.27719111425E+02  0.12227289725E+03  0.14600289247E+03  0.00000000000E+00 0.  1.
</event>
<event>
 7    1  0.6235964E-006  0.8648452E+02  0.7818608E-02  0.1351481E+00
          2   -1    0    0  502    0  0.00000000000E+00  0.00000000000E+00  0.36724629234E+04  0.36724629234E+04  0.00000000000E+00 0. -1.
          1   -1    0    0  501    0 -0.00000000000E+00 -0.00000000000E+00 -0.13822942729E+03  0.13822942729E+03  0.00000000000E+00 0. -1.
         25    2    1    2    0    0  0.13723177442E+03  0.14936906012E+02  0.60260911836E+03  0.63072850698E+03  0.12500011563E+03 0.  0.
          2    1    1    2  501    0 -0.53810896406E+02 -0.28597114212E+02 -0.11607176586E+03  0.13109562290E+03  0.00000000000E+00 0. -1.
          1    1    1    2  502    0 -0.83420878012E+02  0.13660208200E+02  0.30476961436E+04  0.30488682208E+04  0.00000000000E+00 0. -1.
         22    1    3    3    0    0  0.24621339579E+02 -0.79967881272E+01  0.37365541660E+03  0.37455110377E+03  0.00000000000E+00 0.  1.
         22    1    3    3    0    0  0.11261043484E+03  0.22933694139E+02  0.22895370177E+03  0.25617740321E+03  0.00000000000E+00 0.  1.
</event>
<event>
 7    1  0.6235964E-006  0.6150635E+02  0.7818608E-02  0.1413536E+00
          2   -1    0    0  502    0  0.00000000000E+00  0.00000000000E+00  0.95965707947E+03  0.95965707947E+03  0.00000000000E+00 0. -1.
          1   -1    0    0  501    0 -0.00000000000E+00 -0.00000000000E+00 -0.16670757608E+04  0.16670757608E+04  0.00000000000E+00 0. -1.
         25    2    1    2    0    0  0.18754966563E+02  0.34040393291E+02  0.16773902362E+03  0.21277362519E+03  0.12500295351E+03 0.  0.
          2    1    1    2  501    0  0.28766887099E+02 -0.54502305707E+02 -0.16431102986E+04  0.16442656380E+04  0.00000000000E+00 0. -1.
          1    1    1    2  502    0 -0.47521853663E+02  0.20461912417E+02  0.76795259364E+03  0.76969357703E+03  0.00000000000E+00 0. -1.
         22    1    3    3    0    0 -0.36834845145E+01  0.71611964170E+02  0.14862630514E+03  0.16502005954E+03  0.00000000000E+00 0.  1.
         22    1    3    3    0    0  0.22438451078E+02 -0.37571570879E+02  0.19112718480E+02  0.47753565655E+02  0.00000000000E+00 0.  1.
</event>
<event>
 7    1  0.6235964E-006  0.5352093E+02  0.7818608E-02  0.1432339E+00
          2   -1    0    0  502    0  0.00000000000E+00  0.00000000000E+00  0.10153187832E+04  0.10153187832E+04  0.00000000000E+00 0. -1.
          1   -1    0    0  501    0 -0.00000000000E+00 -0.00000000000E+00 -0.81948558556E+02  0.81948558556E+02  0.00000000000E+00 0. -1.
         25    2    1    2    0    0  0.19995307449E+02 -0.55604083474E+01  0.24567235081E+02  0.12907103297E+03  0.12500020820E+03 0.  0.
          2    1    1    2  501    0 -0.67010270518E+02 -0.20014651958E+02  0.13415323289E+02  0.71210487619E+02  0.00000000000E+00 0. -1.
          1    1    1    2  502    0  0.47014963069E+02  0.25575060306E+02  0.89538766623E+03  0.89698582113E+03  0.00000000000E+00 0. -1.
         22    1    3    3    0    0  0.45953904372E+02 -0.24929651295E+01  0.65772304310E+02  0.80274355908E+02  0.00000000000E+00 0. -1.
         22    1    3    3    0    0 -0.25958596923E+02 -0.30674432179E+01 -0.41205069229E+02  0.48796677061E+02  0.00000000000E+00 0. -1.
</event>
<event>
 7    1  0.6235964E-006  0.6676794E+02  0.7818608E-02  0.1394779E+00
          2   -1    0    0  502    0  0.00000000000E+00  0.00000000000E+00  0.45024922784E+03  0.45024922784E+03  0.00000000000E+00 0. -1.
          1   -1    0    0  501    0 -0.00000000000E+00 -0.00000000000E+00 -0.11130487692E+03  0.11130487692E+03  0.00000000000E+00 0. -1.
         25    2    1    2    0    0 -0.40467563526E+01  0.31380449380E+01  0.19476528242E+03  0.23148514712E+03  0.12500253814E+03 0.  0.
          2    1    1    2  501    0 -0.14716044652E+02  0.65126002411E+02 -0.74602919457E+02  0.10011769949E+03  0.00000000000E+00 0. -1.
          1    1    1    2  502    0  0.18762801005E+02 -0.68264047349E+02  0.21878198796E+03  0.22995125814E+03  0.00000000000E+00 0. -1.
         22    1    3    3    0    0  0.52079276928E+02  0.22949205317E+02  0.13783496836E+03  0.14912208292E+03  0.00000000000E+00 0.  1.
         22    1    3    3    0    0 -0.56126033280E+02 -0.19811160379E+02  0.56930314055E+02  0.82363064208E+02  0.00000000000E+00 0.  1.
</event>
<event>
 7    1  0.6235964E-006  0.2028630E+03  0.7818608E-02  0.1308216E+00
          2   -1    0    0  502    0  0.00000000000E+00  0.00000000000E+00  0.30349947800E+03  0.30349947800E+03  0.00000000000E+00 0. -1.
          1   -1    0    0  501    0 -0.00000000000E+00 -0.00000000000E+00 -0.18869630346E+04  0.18869630346E+04  0.00000000000E+00 0. -1.
         25    2    1    2    0    0 -0.16785079640E+03  0.15458023065E+03 -0.23700321559E+03  0.35194389939E+03  0.12500018622E+03 0.  0.
          2    1    1    2  501    0  0.16256234728E+03 -0.11693129914E+03 -0.15846810820E+04  0.15972831863E+04  0.00000000000E+00 0. -1.
          1    1    1    2  502    0  0.52884491178E+01 -0.37648931512E+02  0.23822074103E+03  0.24123542690E+03  0.00000000000E+00 0. -1.
         22    1    3    3    0    0 -0.13026170329E+03  0.16399043224E+03 -0.23252665996E+03  0.31293708761E+03  0.00000000000E+00 0. -1.
         22    1    3    3    0    0 -0.37589093111E+02 -0.94102015871E+01 -0.44765556330E+01  0.39006811779E+02  0.00000000000E+00 0. -1.
</event>
<event>
 7    1  0.6235964E-006  0.8962676E+02  0.7818608E-02  0.1343268E+00
          2   -1    0    0  502    0  0.00000000000E+00  0.00000000000E+00  0.78205695363E+03  0.78205695363E+03  0.00000000000E+00 0. -1.
          1   -1    0    0  501    0 -0.00000000000E+00 -0.00000000000E+00 -0.35025332819E+03  0.35025332819E+03  0.00000000000E+00 0. -1.
         25    2    1    2    0    0 -0.70073773458E+02  0.12633883915E+02  0.85165842792E+02  0.16717444348E+03  0.12499650005E+03 0.  0.
          2    1    1    2  501    0 -0.78253740577E+01 -0.62600076420E+02 -0.30271615830E+03  0.30922011342E+03  0.00000000000E+00 0. -1.
          1    1    1    2  502    0  0.77899147516E+02  0.49966192504E+02  0.64935394095E+03  0.65591572492E+03  0.00000000000E+00 0. -1.
         22    1    3    3    0    0 -0.70237158674E+02  0.52080446738E+02  0.92240500541E+02  0.12709815628E+03  0.00000000000E+00 0. -1.
         22    1    3    3    0    0  0.16338521508E+00 -0.39446562823E+02 -0.70746577489E+01  0.40076287197E+02  0.00000000000E+00 0. -1.
</event>
<event>
 7    1  0.6235964E-006  0.1572322E+03  0.7818608E-02  0.1310925E+00
          2   -1    0    0  502    0  0.00000000000E+00  0.00000000000E+00  0.20445044564E+04  0.20445044564E+04  0.00000000000E+00 0. -1.
          1   -1    0    0  501    0 -0.00000000000E+00 -0.00000000000E+00 -0.26861690553E+03  0.26861690553E+03  0.00000000000E+00 0. -1.
         25    2    1    2    0    0 -0.53034096456E+02 -0.11140521382E+03  0.46312853546E+03  0.49531421683E+03  0.12499758388E+03 0.  0.
          2    1    1    2  501    0  0.34269810495E+02  0.15543316256E+03 -0.22703461184E+03  0.27726990985E+03  0.00000000000E+00 0. -1.
          1    1    1    2  502    0  0.18764285961E+02 -0.44027948740E+02  0.15397936272E+04  0.15405372352E+04  0.00000000000E+00 0. -1.
         22    1    3    3    0    0 -0.68733050541E+02 -0.27165571431E+02  0.32061152174E+03  0.32901967780E+03  0.00000000000E+00 0. -1.
         22    1    3    3    0    0  0.15698954084E+02 -0.84239642389E+02  0.14251701373E+03  0.16629453903E+03  0.00000000000E+00 0. -1.
</event>
<event>
 7    1  0.6235964E-006  0.1317751E+03  0.7818608E-02  0.1265270E+00
          2   -1    0    0  502    0  0.00000000000E+00  0.00000000000E+00  0.36763081515E+03  0.36763081515E+03  0.00000000000E+00 0. -1.
          1   -1    0    0  501    0 -0.00000000000E+00 -0.00000000000E+00 -0.64617694972E+03  0.64617694972E+03  0.00000000000E+00 0. -1.
         25    2    1    2    0    0 -0.88597703648E+02  0.10042845151E+03 -0.27907356048E+03  0.33381294215E+03  0.12495439655E+03 0.  0.
          2    1    1    2  501    0 -0.42182604753E+02 -0.76885737820E+02 -0.32064331674E+03  0.33241980295E+03  0.00000000000E+00 0. -1.
          1    1    1    2  502    0  0.13078030840E+03 -0.23542713695E+02  0.32117074265E+03  0.34757501977E+03  0.00000000000E+00 0. -1.
         22    1    3    3    0    0 -0.66497624443E+02  0.38352009135E+02 -0.25048764710E+03  0.26198639661E+03  0.00000000000E+00 0. -1.
         22    1    3    3    0    0 -0.22100079204E+02  0.62076442379E+02 -0.28585913387E+02  0.71826545535E+02  0.00000000000E+00 0. -1.
</event>
<event>
 7    1  0.6235964E-006  0.1082138E+03  0.7818608E-02  0.1297816E+00
          2   -1    0    0  502    0  0.00000000000E+00  0.00000000000E+00  0.23144282083E+03  0.23144282083E+03  0.00000000000E+00 0. -1.
          1   -1    0    0  501    0 -0.00000000000E+00 -0.00000000000E+00 -0.43080194638E+03  0.43080194638E+03  0.00000000000E+00 0. -1.
         25    2    1    2    0    0 -0.20512180711E+02  0.14162017101E+03 -0.14010037617E+03  0.23607071374E+03  0.12499697632E+03 0.  0.
          2    1    1    2  501    0 -0.49537126175E+02 -0.60775348595E+02 -0.21973968434E+03  0.23330901985E+03  0.00000000000E+00 0. -1.
          1    1    1    2  502    0  0.70049306886E+02 -0.80844822411E+02  0.16048093497E+03  0.19286503362E+03  0.00000000000E+00 0. -1.
         22    1    3    3    0    0 -0.34386959815E+02  0.11695360940E+00  0.27817066262E+01  0.34499486593E+02  0.00000000000E+00 0. -1.
         22    1    3    3    0    0  0.13874779104E+02  0.14150321740E+03 -0.14288208280E+03  0.20157122715E+03  0.00000000000E+00 0. -1.
</event>
<event>
 7    1  0.6235964E-006  0.9341061E+02  0.7818608E-02  0.1321864E+00
          2   -1    0    0  502    0  0.00000000000E+00  0.00000000000E+00  0.26403791104E+03  0.26403791104E+03  0.00000000000E+00 0. -1.
          1   -1    0    0  501    0 -0.00000000000E+00 -0.00000000000E+00 -0.53198433582E+03  0.53198433582E+03  0.00000000000E+00 0. -1.
         25    2    1    2    0    0  0.23560072974E+02  0.12556428416E+02 -0.87733991577E+01  0.12812270540E+03  0.12500285666E+03 0.  0.
          2    1    1    2  501    0 -0.92537669138E+02 -0.36512109395E+02 -0.45142059696E+03  0.46225199805E+03  0.00000000000E+00 0. -1.
          1    1    1    2  502    0  0.68977596164E+02  0.23955680978E+02  0.19224757134E+03  0.20564754341E+03  0.00000000000E+00 0. -1.
         22    1    3    3    0    0  0.62264342711E+02  0.62827380458E+01  0.33068722127E+02  0.70780375484E+02  0.00000000000E+00 0.  1.
         22    1    3    3    0    0 -0.38704269737E+02  0.62736903705E+01 -0.41842121284E+02  0.57342329917E+02  0.00000000000E+00 0.  1.
</event>
<event>
 7    1  0.6235964E-006  0.6224413E+02  0.7818608E-02  0.1404492E+00
          2   -1    0    0  502    0  0.00000000000E+00  0.00000000000E+00  0.37457243578E+03  0.37457243578E+03  0.00000000000E+00 0. -1.
          1   -1    0    0  501    0 -0.00000000000E+00 -0.00000000000E+00 -0.73962462711E+03  0.73962462711E+03  0.00000000000E+00 0. -1.
         25    2    1    2    0    0  0.17636561358E+02  0.90442380057E+02 -0.25426219129E+03  0.29793619185E+03  0.12500336031E+03 0.  0.
          2    1    1    2  501    0  0.24749210186E+02 -0.55596401506E+02 -0.45937258989E+03  0.46338608050E+03  0.00000000000E+00 0. -1.
          1    1    1    2  502    0 -0.42385771543E+02 -0.34845978551E+02  0.34858258985E+03  0.35287479054E+03  0.00000000000E+00 0. -1.
         22    1    3    3    0    0 -0.32631042273E+01  0.11547217382E+03 -0.15404130198E+03  0.19254400404E+03  0.00000000000E+00 0.  1.
         22    1    3    3    0    0  0.20899665585E+02 -0.25029793764E+02 -0.10022088931E+03  0.10539218781E+03  0.00000000000E+00 0.  1.
</event>
<event>
 7    1  0.6235964E-006  0.7753273E+02  0.7818608E-02  0.1346228E+00
          2   -1    0    0  502    0  0.00000000000E+00  0.00000000000E+00  0.11892424640E+04  0.11892424640E+04  0.00000000000E+00 0. -1.
          1   -1    0    0  501    0 -0.00000000000E+00 -0.00000000000E+00 -0.20130742336E+04  0.20130742336E+04  0.00000000000E+00 0. -1.
         25    2    1    2    0    0 -0.94646714637E+02  0.43718103931E+02 -0.73742889964E+02  0.17869695710E+03  0.12500126180E+03 0.  0.
          2    1    1    2  501    0  0.20980734194E+02 -0.67928818753E+02 -0.18848610024E+04  0.18862013451E+04  0.00000000000E+00 0. -1.
          1    1    1    2  502    0  0.73665980443E+02  0.24210714822E+02  0.11347721228E+04  0.11374183953E+04  0.00000000000E+00 0. -1.
         22    1    3    3    0    0 -0.43703967776E+01 -0.17539710171E+02 -0.66994931180E+02  0.69390652142E+02  0.00000000000E+00 0. -1.
         22    1    3    3    0    0 -0.90276317859E+02  0.61257814102E+02 -0.67479587835E+01  0.10930630495E+03  0.00000000000E+00 0. -1.
</event>
<event>
 7    1  0.6235964E-006  0.1259662E+03  0.7818608E-02  0.1309520E+00
          2   -1    0    0  502    0  0.00000000000E+00  0.00000000000E+00  0.16283831459E+04  0.16283831459E+04  0.00000000000E+00 0. -1.
          1   -1    0    0  501    0 -0.00000000000E+00 -0.00000000000E+00 -0.88901245820E+02  0.88901245820E+02  0.00000000000E+00 0. -1.
         25    2    1    2    0    0 -0.14080610180E+03  0.60543315367E+02  0.50750321714E+03  0.54468030458E+03  0.12500106981E+03 0.  0.
          2    1    1    2  501    0  0.54428124025E+02  0.26429023831E+02 -0.53173800227E+02  0.80550400472E+02  0.00000000000E+00 0. -1.
          1    1    1    2  502    0  0.86377977779E+02 -0.86972339198E+02  0.10851524831E+04  0.10920536866E+04  0.00000000000E+00 0. -1.
         22    1    3    3    0    0 -0.16427323407E+03  0.51018189448E+02  0.45371887152E+03  0.48523124947E+03  0.00000000000E+00 0.  1.
         22    1    3    3    0    0  0.23467132267E+02  0.95251259189E+01  0.53784345620E+02  0.59449055118E+02  0.00000000000E+00 0.  1.
</event>
<event>
 7    1  0.9531329E-006  0.1685477E+03  0.7818608E-02  0.1223386E+00
          2   -1    0    0  502    0  0.00000000000E+00  0.00000000000E+00  0.17007675456E+04  0.17007675456E+04  0.00000000000E+00 0. -1.
          1   -1    0    0  501    0 -0.00000000000E+00 -0.00000000000E+00 -0.10836575383E+04  0.10836575383E+04  0.00000000000E+00 0. -1.
         25    2    1    2    0    0 -0.20862997088E+03 -0.97875127548E+02 -0.30817178000E+03  0.40459506084E+03  0.12498524683E+03 0.  0.
          2    1    1    2  501    0  0.40584293953E+02  0.96410676696E+02 -0.71920829852E+03  0.72677553630E+03  0.00000000000E+00 0. -1.
          1    1    1    2  502    0  0.16804567693E+03  0.14644508522E+01  0.16444900858E+04  0.16530544868E+04  0.00000000000E+00 0. -1.
         22    1    3    3    0    0 -0.17358250385E+03 -0.12386234112E+03 -0.22095178571E+03  0.30707076838E+03  0.00000000000E+00 0.  1.
         22    1    3    3    0    0 -0.35047467030E+02  0.25987213567E+02 -0.87219994292E+02  0.97524292453E+02  0.00000000000E+00 0.  1.
</event>
<event>
 7    1  0.6235964E-006  0.1841067E+03  0.7818608E-02  0.1196413E+00
          2   -1    0    0  502    0  0.00000000000E+00  0.00000000000E+00  0.19363024675E+04  0.19363024675E+04  0.00000000000E+00 0. -1.
          1   -1    0    0  501    0 -0.00000000000E+00 -0.00000000000E+00 -0.87639606619E+03  0.87639606619E+03  0.00000000000E+00 0. -1.
         25    2    1    2    0    0 -0.29678382640E+03  0.48206948272E+01 -0.33346563185E+03  0.46360329389E+03  0.12499923106E+03 0.  0.
          2    1    1    2  501    0  0.11877484610E+03 -0.46998167729E+02 -0.46475268940E+03  0.48198688171E+03  0.00000000000E+00 0. -1.
          1    1    1    2  502    0  0.17800898029E+03  0.42177472901E+02  0.18581247226E+04  0.18671083581E+04  0.00000000000E+00 0. -1.
         22    1    3    3    0    0 -0.22150215413E+02 -0.30002414413E+02 -0.11582073080E+02  0.39050241104E+02  0.00000000000E+00 0.  1.
         22    1    3    3    0    0 -0.27463361098E+03  0.34823109241E+02 -0.32188355877E+03  0.42455305278E+03  0.00000000000E+00 0.  1.
</event>
<event>
 7    1  0.6235964E-006  0.1070894E+03  0.7818608E-02  0.1345711E+00
          2   -1    0    0  502    0  0.00000000000E+00  0.00000000000E+00  0.46813547990E+04  0.46813547990E+04  0.00000000000E+00 0. -1.
          1   -1    0    0  501    0 -0.00000000000E+00 -0.00000000000E+00 -0.10285893877E+03  0.10285893877E+03  0.00000000000E+00 0. -1.
         25    2    1    2    0    0  0.60124168837E+02  0.51621617800E+02  0.67773103457E+03  0.69370344516E+03  0.12500163002E+03 0.  0.
          2    1    1    2  501    0 -0.15387187745E+02  0.49358701128E+02 -0.87007142746E+02  0.10120913898E+03  0.00000000000E+00 0. -1.
          1    1    1    2  502    0 -0.44736981093E+02 -0.10098031893E+03  0.39877719684E+04  0.39893011536E+04  0.00000000000E+00 0. -1.
         22    1    3    3    0    0  0.68771571061E+02  0.26203673637E+02  0.65320874988E+03  0.65734148843E+03  0.00000000000E+00 0.  1.
         22    1    3    3    0    0 -0.86474022237E+01  0.25417944163E+02  0.24522284694E+02  0.36361956731E+02  0.00000000000E+00 0.  1.
</event>
<event>
 7    1  0.6235964E-006  0.9446679E+02  0.7818608E-02  0.1339043E+00
          2   -1    0    0  502    0  0.00000000000E+00  0.00000000000E+00  0.93393697230E+03  0.93393697230E+03  0.00000000000E+00 0. -1.
          1   -1    0    0  501    0 -0.00000000000E+00 -0.00000000000E+00 -0.17809957250E+04  0.17809957250E+04  0.00000000000E+00 0. -1.
         25    2    1    2    0    0  0.15147830959E+03 -0.13658482452E+02 -0.27524814593E+02  0.19878417008E+03  0.12500119375E+03 0.  0.
          2    1    1    2  501    0 -0.58535915290E+02  0.20681107851E+02 -0.16647006025E+04  0.16658578143E+04  0.00000000000E+00 0. -1.
          1    1    1    2  502    0 -0.92942394297E+02 -0.70226253987E+01  0.84516666436E+03  0.85029071291E+03  0.00000000000E+00 0. -1.
         22    1    3    3    0    0  0.11868896186E+03  0.46145242571E+02 -0.28839599194E+02  0.13056866225E+03  0.00000000000E+00 0. -1.
         22    1    3    3    0    0  0.32789347727E+02 -0.59803725023E+02  0.13147846010E+01  0.68215507837E+02  0.00000000000E+00 0. -1.
</event>
<event>
 7    1  0.6235964E-006  0.9416499E+02  0.7818608E-02  0.1467988E+00
          2   -1    0    0  502    0  0.00000000000E+00  0.00000000000E+00  0.10944429446E+04  0.10944429446E+04  0.00000000000E+00 0. -1.
          1   -1    0    0  501    0 -0.00000000000E+00 -0.00000000000E+00 -0.15589314927E+03  0.15589314927E+03  0.00000000000E+00 0. -1.
         25    2    1    2    0    0  0.89142549888E+02  0.27351971237E+02  0.14323535277E+03  0.21174586733E+03  0.12500168606E+03 0.  0.
          2    1    1    2  501    0  0.51089290014E+01 -0.21916861266E+02 -0.11814290494E+03  0.12026718568E+03  0.00000000000E+00 0. -1.
          1    1    1    2  502    0 -0.94251478890E+02 -0.54351099711E+01  0.91345734750E+03  0.91832304087E+03  0.00000000000E+00 0. -1.
         22    1    3    3    0    0  0.60832111194E+02  0.39693009987E+02  0.16063784654E+03  0.17629690450E+03  0.00000000000E+00 0. -1.
         22    1    3    3    0    0  0.28310438695E+02 -0.12341038750E+02 -0.17402493773E+02  0.35448962834E+02  0.00000000000E+00 0. -1.
</event>
<event>
 7    1  0.6235964E-006  0.3875938E+02  0.7818608E-02  0.1589629E+00
          2   -1    0    0  502    0  0.00000000000E+00  0.00000000000E+00  0.23113584225E+04  0.23113584225E+04  0.00000000000E+00 0. -1.
          1   -1    0    0  501    0 -0.00000000000E+00 -0.00000000000E+00 -0.76085624997E+02  0.76085624997E+02  0.00000000000E+00 0. -1.
         25    2    1    2    0    0  0.57382211057E+02  0.12786396241E+02  0.48784215794E+02  0.14649577306E+03  0.12499960695E+03 0.  0.
          2    1    1    2  501    0 -0.23648897372E+02  0.61777367954E+01 -0.21540822456E+02  0.32579776103E+02  0.00000000000E+00 0. -1.
          1    1    1    2  502    0 -0.33733313685E+02 -0.18964133036E+02  0.22080294041E+04  0.22083684983E+04  0.00000000000E+00 0. -1.
         22    1    3    3    0    0  0.67918480424E+02  0.52982148404E+02  0.52291793152E+01  0.86298159592E+02  0.00000000000E+00 0. -1.
         22    1    3    3    0    0 -0.10536269367E+02 -0.40195752164E+02  0.43555036479E+02  0.60197613465E+02  0.00000000000E+00 0. -1.
</event>
<event>
 7    1  0.6235964E-006  0.5584483E+02  0.7818608E-02  0.1441273E+00
          2   -1    0    0  502    0  0.00000000000E+00  0.00000000000E+00  0.70896504460E+03  0.70896504460E+03  0.00000000000E+00 0. -1.
          1   -1    0    0  501    0 -0.00000000000E+00 -0.00000000000E+00 -0.16244498224E+04  0.16244498224E+04  0.00000000000E+00 0. -1.
         25    2    1    2    0    0  0.65930007163E+02 -0.36997652359E+02 -0.40328869740E+02  0.15154302743E+03  0.12499311703E+03 0.  0.
          2    1    1    2  501    0 -0.55244244306E+02 -0.78901223711E+01 -0.15271889432E+04  0.15282081824E+04  0.00000000000E+00 0. -1.
          1    1    1    2  502    0 -0.10685762857E+02  0.44887774730E+02  0.65203303511E+03  0.65366365719E+03  0.00000000000E+00 0. -1.
         22    1    3    3    0    0  0.67308669015E+02 -0.78205265409E+02 -0.38951538377E+02  0.11028935943E+03  0.00000000000E+00 0.  1.
         22    1    3    3    0    0 -0.13786618518E+01  0.41207613050E+02 -0.13773313630E+01  0.41253668000E+02  0.00000000000E+00 0.  1.
</event>
<event>
 7    1  0.6235964E-006  0.6600915E+02  0.7818608E-02  0.1377556E+00
          2   -1    0    0  502    0  0.00000000000E+00  0.00000000000E+00  0.65705129350E+03  0.65705129350E+03  0.00000000000E+00 0. -1.
          1   -1    0    0  501    0 -0.00000000000E+00 -0.00000000000E+00 -0.72055393961E+02  0.72055393961E+02  0.00000000000E+00 0. -1.
         25    2    1    2    0    0 -0.37069648212E+02 -0.45224775202E+02  0.20739941336E+03  0.24911656186E+03  0.12500042248E+03 0.  0.
          2    1    1    2  501    0  0.66453685375E+02 -0.13883478493E+02 -0.24754176689E+02  0.72260726115E+02  0.00000000000E+00 0. -1.
          1    1    1    2  502    0 -0.29384037164E+02  0.59108253695E+02  0.40235066287E+03  0.40772939949E+03  0.00000000000E+00 0. -1.
         22    1    3    3    0    0 -0.49870600938E+02  0.30201694407E+01  0.17770154069E+02  0.53028074045E+02  0.00000000000E+00 0. -1.
         22    1    3    3    0    0  0.12800952726E+02 -0.48244944643E+02  0.18962925929E+03  0.19608848782E+03  0.00000000000E+00 0. -1.
</event>
<event>
 7    1  0.6235964E-006  0.2447403E+03  0.7818608E-02  0.1292406E+00
          2   -1    0    0  502    0  0.00000000000E+00  0.00000000000E+00  0.11629400231E+04  0.11629400231E+04  0.00000000000E+00 0. -1.
          1   -1    0    0  501    0 -0.00000000000E+00 -0.00000000000E+00 -0.87525675467E+03  0.87525675467E+03  0.00000000000E+00 0. -1.
         25    2    1    2    0    0  0.24754619371E+03  0.17821216717E+02  0.50106997915E+03  0.57296639370E+03  0.12499060170E+03 0.  0.
          2    1    1    2  501    0 -0.23885405612E+03 -0.53224596365E+02 -0.82091321211E+03  0.85661112507E+03  0.00000000000E+00 0. -1.
          1    1    1    2  502    0 -0.86921375969E+01  0.35403379648E+02  0.60752650143E+03  0.60861925905E+03  0.00000000000E+00 0. -1.
         22    1    3    3    0    0  0.13365252770E+03  0.24365525802E+02  0.14336467088E+03  0.19750976144E+03  0.00000000000E+00 0. -1.
         22    1    3    3    0    0  0.11389366601E+03 -0.65443090855E+01  0.35770530828E+03  0.37545663226E+03  0.00000000000E+00 0. -1.
</event>
<event>
 7    1  0.6235964E-006  0.7641910E+02  0.7818608E-02  0.1492576E+00
          2   -1    0    0  502    0  0.00000000000E+00  0.00000000000E+00  0.31196237633E+03  0.31196237633E+03  0.00000000000E+00 0. -1.
          1   -1    0    0  501    0 -0.00000000000E+00 -0.00000000000E+00 -0.11391730497E+03  0.11391730497E+03  0.00000000000E+00 0. -1.
         25    2    1    2    0    0 -0.41020586924E+02 -0.76900081645E+02  0.54458410604E+02  0.16182204892E+03  0.12499738367E+03 0.  0.
          2    1    1    2  501    0  0.23003320675E+02  0.37716526133E+01 -0.50635712163E+02  0.55743640640E+02  0.00000000000E+00 0. -1.
          1    1    1    2  502    0  0.18017266248E+02  0.73128429032E+02  0.19422237292E+03  0.20831399175E+03  0.00000000000E+00 0. -1.
         22    1    3    3    0    0  0.25434149089E+02 -0.30947996099E+02 -0.26033621311E+02  0.47774719685E+02  0.00000000000E+00 0.  1.
         22    1    3    3    0    0 -0.66454736013E+02 -0.45952085546E+02  0.80492031914E+02  0.11404732924E+03  0.00000000000E+00 0.  1.
</event>
<event>
 7    1  0.6235964E-006  0.2477314E+03  0.7818608E-02  0.1243487E+00
          2   -1    0    0  502    0  0.00000000000E+00  0.00000000000E+00  0.11748491194E+04  0.11748491194E+04  0.00000000000E+00 0. -1.
          1   -1    0    0  501    0 -0.00000000000E+00 -0.00000000000E+00 -0.39675603588E+03  0.39675603588E+03  0.00000000000E+00 0. -1.
         25    2    1    2    0    0 -0.18914113153E+03  0.20519156688E+03  0.16857013179E+03  0.34916885819E+03  0.12500022178E+03 0.  0.
          2    1    1    2  501    0  0.13125551265E+03 -0.20395764705E+03 -0.25734984178E+03  0.35363211457E+03  0.00000000000E+00 0. -1.
          1    1    1    2  502    0  0.57885618880E+02 -0.12339198272E+01  0.86687279352E+03  0.86880418252E+03  0.00000000000E+00 0. -1.
         22    1    3    3    0    0  0.69973968300E+01  0.11042390587E+02  0.44869812525E+02  0.46735404442E+02  0.00000000000E+00 0.  1.
         22    1    3    3    0    0 -0.19613852836E+03  0.19414917629E+03  0.12370031927E+03  0.30243345375E+03  0.00000000000E+00 0.  1.
</event>
<event>
 7    1  0.6235964E-006  0.8774840E+02  0.7818608E-02  0.1345250E+00
          2   -1    0    0  502    0  0.00000000000E+00  0.00000000000E+00  0.48980960053E+03  0.48980960053E+03  0.00000000000E+00 0. -1.
          1   -1    0    0  501    0 -0.00000000000E+00 -0.00000000000E+00 -0.53526222119E+03  0.53526222119E+03  0.00000000000E+00 0. -1.
         25    2    1    2    0    0  0.56135878227E+02  0.13285329419E+03 -0.11320358891E+03  0.22190413531E+03  0.12500063249E+03 0.  0.
          2    1    1    2  501    0 -0.41713287362E+02 -0.47675341289E+02 -0.36063557958E+03  0.36615701245E+03  0.00000000000E+00 0. -1.
          1    1    1    2  502    0 -0.14422590864E+02 -0.85177952904E+02  0.42838654783E+03  0.43701067395E+03  0.00000000000E+00 0. -1.
         22    1    3    3    0    0  0.77669402773E+02  0.83080183907E+02 -0.12219475852E+03  0.16693235784E+03  0.00000000000E+00 0.  1.
         22    1    3    3    0    0 -0.21533524546E+02  0.49773110286E+02  0.89911696088E+01  0.54971777467E+02  0.00000000000E+00 0.  1.
</event>
<event>
 7    1  0.6235964E-006  0.8039345E+02  0.7818608E-02  0.1371289E+00
          2   -1    0    0  502    0  0.00000000000E+00  0.00000000000E+00  0.12815948768E+04  0.12815948768E+04  0.00000000000E+00 0. -1.
          1   -1    0    0  501    0 -0.00000000000E+00 -0.00000000000E+00 -0.20367613162E+03  0.20367613162E+03  0.00000000000E+00 0. -1.
         25    2    1    2    0    0  0.25073168936E+02 -0.88037636508E+02  0.36924982374E+02  0.15927314145E+03  0.12500076008E+03 0.  0.
          2    1    1    2  501    0  0.29042991789E+02  0.75622823844E+02 -0.13027841566E+03  0.15341047045E+03  0.00000000000E+00 0. -1.
          1    1    1    2  502    0 -0.54116160725E+02  0.12414812664E+02  0.11712721785E+04  0.11725873965E+04  0.00000000000E+00 0. -1.
         22    1    3    3    0    0 -0.51019823202E+02 -0.33031287815E+02  0.19046151914E+02  0.63693361012E+02  0.00000000000E+00 0. -1.
         22    1    3    3    0    0  0.76092992138E+02 -0.55006348694E+02  0.17878830461E+02  0.95579780434E+02  0.00000000000E+00 0. -1.
</event>
<event>
 7    1  0.6235964E-006  0.1532158E+03  0.7818608E-02  0.1302768E+00
          2   -1    0    0  502    0  0.00000000000E+00  0.00000000000E+00  0.35968541998E+03  0.35968541998E+03  0.00000000000E+00 0. -1.
          1   -1    0    0  501    0 -0.00000000000E+00 -0.00000000000E+00 -0.21731379651E+04  0.21731379651E+04  0.00000000000E+00 0. -1.
         25    2    1    2    0    0  0.11302239052E+03  0.38522384471E+02 -0.19362035835E+03  0.25956016679E+03  0.12499840860E+03 0.  0.
          2    1    1    2  501    0 -0.12924692828E+03 -0.88880742775E+02 -0.19412212955E+04  0.19475483750E+04  0.00000000000E+00 0. -1.
          1    1    1    2  502    0  0.16224537760E+02  0.50358358305E+02  0.32138910877E+03  0.32571484324E+03  0.00000000000E+00 0. -1.
         22    1    3    3    0    0 -0.16081588229E+02  0.26755920871E+01 -0.86479185175E+02  0.88002418953E+02  0.00000000000E+00 0. -1.
         22    1    3    3    0    0  0.12910397875E+03  0.35846792384E+02 -0.10714117317E+03  0.17155774784E+03  0.00000000000E+00 0. -1.
</event>
<event>
 7    1  0.6235964E-006  0.5427557E+02  0.7818608E-02  0.1502612E+00
          2   -1    0    0  502    0  0.00000000000E+00  0.00000000000E+00  0.98010029867E+03  0.98010029867E+03  0.00000000000E+00 0. -1.
          1   -1    0    0  501    0 -0.00000000000E+00 -0.00000000000E+00 -0.71670964644E+02  0.71670964644E+02  0.00000000000E+00 0. -1.
         25    2    1    2    0    0  0.77328677623E+02 -0.25951446064E+02  0.97560676454E+02  0.17832862703E+03  0.12501924529E+03 0.  0.
          2    1    1    2  501    0 -0.24065037745E+02  0.18943974419E+02 -0.22714148649E+02  0.38130470195E+02  0.00000000000E+00 0. -1.
          1    1    1    2  502    0 -0.53263639878E+02  0.70074716454E+01  0.83358280622E+03  0.83531216609E+03  0.00000000000E+00 0. -1.
         22    1    3    3    0    0 -0.13645831255E+02  0.35196228227E+02  0.13130826381E+02  0.39967509223E+02  0.00000000000E+00 0. -1.
         22    1    3    3    0    0  0.90974508878E+02 -0.61147674291E+02  0.84429850073E+02  0.13836111780E+03  0.00000000000E+00 0. -1.
</event>
<event>
 7    1  0.6235964E-006  0.1146412E+03  0.7818608E-02  0.1423008E+00
          2   -1    0    0  502    0  0.00000000000E+00  0.00000000000E+00  0.18011012304E+04  0.18011012304E+04  0.00000000000E+00 0. -1.
          1   -1    0    0  501    0 -0.00000000000E+00 -0.00000000000E+00 -0.24352312925E+03  0.24352312925E+03  0.00000000000E+00 0. -1.
         25    2    1    2    0    0 -0.80367859790E+02  0.40408405392E+02 -0.32336959037E+01  0.15403554989E+03  0.12499864690E+03 0.  0.
          2    1    1    2  501    0 -0.25064591436E+02  0.61338646567E+01 -0.16194170826E+03  0.16398467890E+03  0.00000000000E+00 0. -1.
          1    1    1    2  502    0  0.10543245123E+03 -0.46542270048E+02  0.17227535053E+04  0.17266041308E+04  0.00000000000E+00 0. -1.
         22    1    3    3    0    0 -0.49718188347E+01  0.62144003535E+02  0.29555457763E+02  0.68993631891E+02  0.00000000000E+00 0.  1.
         22    1    3    3    0    0 -0.75396040955E+02 -0.21735598144E+02 -0.32789153667E+02  0.85041917997E+02  0.00000000000E+00 0.  1.
</event>
<event>
 7    1  0.6235964E-006  0.6305008E+02  0.7818608E-02  0.1469172E+00
          2   -1    0    0  502    0  0.00000000000E+00  0.00000000000E+00  0.13074305861E+04  0.13074305861E+04  0.00000000000E+00 0. -1.
          1   -1    0    0  501    0 -0.00000000000E+00 -0.00000000000E+00 -0.81999837363E+02  0.81999837363E+02  0.00000000000E+00 0. -1.
         25    2    1    2    0    0  0.40752532311E+02 -0.16626533662E+02  0.10220004070E+03  0.16735537180E+03  0.12500304652E+03 0.  0.
          2    1    1    2  501    0  0.22449773831E+02  0.24629658064E+02 -0.42834079930E+02  0.54271270529E+02  0.00000000000E+00 0. -1.
          1    1    1    2  502    0 -0.63202306142E+02 -0.80031244028E+01  0.11660647880E+04  0.11678037811E+04  0.00000000000E+00 0. -1.
         22    1    3    3    0    0 -0.93264643152E+01 -0.63306996509E+02  0.46590113664E+02  0.79154263529E+02  0.00000000000E+00 0. -1.
         22    1    3    3    0    0  0.50078996626E+02  0.46680462848E+02  0.55609927036E+02  0.88201108268E+02  0.00000000000E+00 0. -1.
</event>
<event>
 7    1  0.6805627E-006  0.1164739E+03  0.7818608E-02  0.1298175E+00
          2   -1    0    0  502    0  0.00000000000E+00  0.00000000000E+00  0.88051768587E+03  0.88051768587E+03  0.00000000000E+00 0. -1.
          1   -1    0    0  501    0 -0.00000000000E+00 -0.00000000000E+00 -0.27721200349E+04  0.27721200349E+04  0.00000000000E+00 0. -1.
         25    2    1    2    0    0  0.41509257198E+02  0.60463014890E+02 -0.40374109268E+03  0.42897426848E+03  0.12503302963E+03 0.  0.
          2    1    1    2  501    0 -0.50297366275E+01 -0.12323791131E+03 -0.23526256008E+04  0.23558565530E+04  0.00000000000E+00 0. -1.
          1    1    1    2  502    0 -0.36479520571E+02  0.62774896423E+02  0.86476434442E+03  0.86780689927E+03  0.00000000000E+00 0. -1.
         22    1    3    3    0    0  0.85059290431E+02  0.25140813881E+02 -0.25779144435E+03  0.27262349897E+03  0.00000000000E+00 0. -1.
         22    1    3    3    0    0 -0.43550033233E+02  0.35322201008E+02 -0.14594964832E+03  0.15635076950E+03  0.00000000000E+00 0. -1.
</event>
<event>
 7    1  0.6235964E-006  0.7328165E+02  0.7818608E-02  0.1485781E+00
          2   -1    0    0  502    0  0.00000000000E+00  0.00000000000E+00  0.22394216552E+04  0.22394216552E+04  0.00000000000E+00 0. -1.
          1   -1    0    0  501    0 -0.00000000000E+00 -0.00000000000E+00 -0.10173970175E+04  0.10173970175E+04  0.00000000000E+00 0. -1.
         25    2    1    2    0    0 -0.35374210059E+02  0.83216103379E+02  0.14396394030E+02  0.15494422214E+03  0.12499680482E+03 0.  0.
          2    1    1    2  501    0  0.22929206971E+02 -0.11131299860E+02 -0.94633061199E+03  0.94667379891E+03  0.00000000000E+00 0. -1.
          1    1    1    2  502    0  0.12445003088E+02 -0.72084803519E+02  0.21539588556E+04  0.21552006516E+04  0.00000000000E+00 0. -1.
         22    1    3    3    0    0 -0.59694433573E+02  0.59593847074E+02 -0.38017029131E+02  0.92521059833E+02  0.00000000000E+00 0.  1.
         22    1    3    3    0    0  0.24320223514E+02  0.23622256305E+02  0.52413423162E+02  0.62423162306E+02  0.00000000000E+00 0.  1.
</event>
<event>
 7    1  0.6235964E-006  0.4876643E+02  0.7818608E-02  0.1567925E+00
          2   -1    0    0  502    0  0.00000000000E+00  0.00000000000E+00  0.19804483384E+03  0.19804483384E+03  0.00000000000E+00 0. -1.
          1   -1    0    0  501    0 -0.00000000000E+00 -0.00000000000E+00 -0.16651888792E+04  0.16651888792E+04  0.00000000000E+00 0. -1.
         25    2    1    2    0    0  0.60997463524E+02  0.31311910170E+02 -0.31316347674E+02  0.14597012974E+03  0.12500175546E+03 0.  0.
          2    1    1    2  501    0 -0.21917574798E+02 -0.36386357399E+01 -0.15723910519E+04  0.15725480088E+04  0.00000000000E+00 0. -1.
          1    1    1    2  502    0 -0.39079888726E+02 -0.27673274430E+02  0.13656335418E+03  0.14471557458E+03  0.00000000000E+00 0. -1.
         22    1    3    3    0    0  0.14094196809E+02  0.64038221904E+00 -0.74120700426E+02  0.75451538783E+02  0.00000000000E+00 0. -1.
         22    1    3    3    0    0  0.46903266715E+02  0.30671527951E+02  0.42804352752E+02  0.70518590952E+02  0.00000000000E+00 0. -1.
</event>
<event>
 7    1  0.6235964E-006  0.6658139E+02  0.7818608E-02  0.1400009E+00
          2   -1    0    0  502    0  0.00000000000E+00  0.00000000000E+00  0.14023320047E+04  0.14023320047E+04  0.00000000000E+00 0. -1.
          1   -1    0    0  501    0 -0.00000000000E+00 -0.00000000000E+00 -0.21776756519E+02  0.21776756519E+02  0.00000000000E+00 0. -1.
         25    2    1    2    0    0 -0.19753757383E+02  0.46873771006E+01  0.34589589030E+03  0.36834940368E+03  0.12500053531E+03 0.  0.
          2    1    1    2  501    0 -0.52341186113E+02 -0.91996840457E+01  0.67517041878E+02  0.85923133638E+02  0.00000000000E+00 0. -1.
          1    1    1    2  502    0  0.72094943496E+02  0.45123069451E+01  0.96714231595E+03  0.96983622386E+03  0.00000000000E+00 0. -1.
         22    1    3    3    0    0 -0.87714527112E+01  0.18594771722E+02  0.34963454561E+03  0.35023851787E+03  0.00000000000E+00 0. -1.
         22    1    3    3    0    0 -0.10982304671E+02 -0.13907394622E+02 -0.37386553099E+01  0.18110885803E+02  0.00000000000E+00 0. -1.
</event>
<event>
 7    1  0.6235964E-006  0.8485273E+02  0.7818608E-02  0.1412657E+00
          2   -1    0    0  502    0  0.00000000000E+00  0.00000000000E+00  0.11764473722E+04  0.11764473722E+04  0.00000000000E+00 0. -1.
          1   -1    0    0  501    0 -0.00000000000E+00 -0.00000000000E+00 -0.14578580100E+03  0.14578580100E+03  0.00000000000E+00 0. -1.
         25    2    1    2    0    0 -0.56303953493E+01  0.66999577526E+02 -0.27779080832E+02  0.14462982109E+03  0.12500185229E+03 0.  0.
          2    1    1    2  501    0  0.33653615273E+02 -0.92309949176E+02 -0.18517873455E+02  0.99983019434E+02  0.00000000000E+00 0. -1.
          1    1    1    2  502    0 -0.28023219924E+02  0.25310371650E+02  0.10769585255E+04  0.10776203327E+04  0.00000000000E+00 0. -1.
         22    1    3    3    0    0 -0.33011168827E+02  0.69002691725E+02 -0.63613451227E+02  0.99487586711E+02  0.00000000000E+00 0.  1.
         22    1    3    3    0    0  0.27380773478E+02 -0.20031141991E+01  0.35834370395E+02  0.45142234375E+02  0.00000000000E+00 0.  1.
</event>
<event>
 7    1  0.6235964E-006  0.7112879E+02  0.7818608E-02  0.1358734E+00
          2   -1    0    0  502    0  0.00000000000E+00  0.00000000000E+00  0.45508892824E+03  0.45508892824E+03  0.00000000000E+00 0. -1.
          1   -1    0    0  501    0 -0.00000000000E+00 -0.00000000000E+00 -0.29367825645E+04  0.29367825645E+04  0.00000000000E+00 0. -1.
         25    2    1    2    0    0 -0.74924534351E+01  0.37530903289E+02  0.12657260590E+03  0.18196265174E+03  0.12500030601E+03 0.  0.
          2    1    1    2  501    0  0.70798573209E+02 -0.84136317798E+01 -0.29046090306E+04  0.29054839266E+04  0.00000000000E+00 0. -1.
          1    1    1    2  502    0 -0.63306119774E+02 -0.29117271510E+02  0.29634278839E+03  0.30442491444E+03  0.00000000000E+00 0. -1.
         22    1    3    3    0    0  0.53635477702E+02 -0.69667196895E+01  0.41688941555E+02  0.68288121218E+02  0.00000000000E+00 0. -1.
         22    1    3    3    0    0 -0.61127931137E+02  0.44497622979E+02  0.84883664348E+02  0.11367453052E+03  0.00000000000E+00 0. -1.
</event>
<event>
 7    1  0.6235964E-006  0.1616881E+03  0.7818608E-02  0.1311196E+00
          2   -1    0    0  502    0  0.00000000000E+00  0.00000000000E+00  0.11724417384E+04  0.11724417384E+04  0.00000000000E+00 0. -1.
          1   -1    0    0  501    0 -0.00000000000E+00 -0.00000000000E+00 -0.15205809091E+03  0.15205809091E+03  0.00000000000E+00 0. -1.
         25    2    1    2    0    0  0.15456307735E+03  0.43360963286E+02  0.38330788827E+03  0.43395806264E+03  0.12499897961E+03 0.  0.
          2    1    1    2  501    0  0.92236052256E+01 -0.45501225498E+02 -0.11332773115E+03  0.12246881669E+03  0.00000000000E+00 0. -1.
          1    1    1    2  502    0 -0.16378668258E+03  0.21402622126E+01  0.75040349033E+03  0.76807294993E+03  0.00000000000E+00 0. -1.
         22    1    3    3    0    0  0.49894354815E+01 -0.32630200176E+02  0.92663303131E+02  0.98367231216E+02  0.00000000000E+00 0.  1.
         22    1    3    3    0    0  0.14957364187E+03  0.75991163462E+02  0.29064458514E+03  0.33559083142E+03  0.00000000000E+00 0.  1.
</event>
<event>
 7    1  0.6235964E-006  0.1257182E+03  0.7818608E-02  0.1300804E+00
          2   -1    0    0  502    0  0.00000000000E+00  0.00000000000E+00  0.53790973050E+03  0.53790973050E+03  0.00000000000E+00 0. -1.
          1   -1    0    0  501    0 -0.00000000000E+00 -0.00000000000E+00 -0.34836999529E+03  0.34836999529E+03  0.00000000000E+00 0. -1.
         25    2    1    2    0    0  0.13598743923E+03 -0.24776104102E+01 -0.20797182038E+03  0.27816324374E+03  0.12499515957E+03 0.  0.
          2    1    1    2  501    0 -0.10687939106E+03  0.61326338913E+02 -0.66131438358E+02  0.13984810051E+03  0.00000000000E+00 0. -1.
          1    1    1    2  502    0 -0.29108048171E+02 -0.58848728503E+02  0.46364299394E+03  0.46826838154E+03  0.00000000000E+00 0. -1.
         22    1    3    3    0    0 -0.35037778710E+01 -0.36780237151E+02 -0.21393427332E+02  0.42693571381E+02  0.00000000000E+00 0.  1.
         22    1    3    3    0    0  0.13949121710E+03  0.34302626741E+02 -0.18657839304E+03  0.23546967236E+03  0.00000000000E+00 0.  1.
</event>
<event>
 7    1  0.6235964E-006  0.3309293E+03  0.7818608E-02  0.1271888E+00
          2   -1    0    0  502    0  0.00000000000E+00  0.00000000000E+00  0.17793326634E+04  0.17793326634E+04  0.00000000000E+00 0. -1.
          1   -1    0    0  501    0 -0.00000000000E+00 -0.00000000000E+00 -0.12291141763E+04  0.12291141763E+04  0.00000000000E+00 0. -1.
         25    2    1    2    0    0 -0.25106397525E+03 -0.25626152937E+03 -0.74217478708E+01  0.37997947487E+03  0.12500491141E+03 0.  0.
          2    1    1    2  501    0  0.12713459157E+02  0.30183148078E+02 -0.10182110632E+04  0.10187376618E+04  0.00000000000E+00 0. -1.
          1    1    1    2  502    0  0.23835051610E+03  0.22607838129E+03  0.15758512982E+04  0.16097297031E+04  0.00000000000E+00 0. -1.
         22    1    3    3    0    0 -0.14476401921E+03 -0.19129973152E+03 -0.55856283280E+02  0.24631713890E+03  0.00000000000E+00 0.  1.
         22    1    3    3    0    0 -0.10629995604E+03 -0.64961797851E+02  0.48434535409E+02  0.13366233596E+03  0.00000000000E+00 0.  1.
</event>
<event>
 7    1  0.6235964E-006  0.5150491E+02  0.7818608E-02  0.1464032E+00
          2   -1    0    0  502    0  0.00000000000E+00  0.00000000000E+00  0.11049764951E+04  0.11049764951E+04  0.00000000000E+00 0. -1.
          1   -1    0    0  501    0 -0.00000000000E+00 -0.00000000000E+00 -0.20064118718E+04  0.20064118718E+04  0.00000000000E+00 0. -1.
         25    2    1    2    0    0  0.88979195180E+02 -0.14294293846E+02  0.11856546513E+03  0.19443328587E+03  0.12499963649E+03 0.  0.
          2    1    1    2  501    0 -0.51202546690E+02 -0.48117988626E+01 -0.19676694452E+04  0.19683414084E+04  0.00000000000E+00 0. -1.
          1    1    1    2  502    0 -0.37776648490E+02  0.19106092709E+02  0.94766860343E+03  0.94861367262E+03  0.00000000000E+00 0. -1.
         22    1    3    3    0    0  0.10214953662E+03  0.10439826004E+02  0.38595090706E+02  0.10969548225E+03  0.00000000000E+00 0.  1.
         22    1    3    3    0    0 -0.13170341439E+02 -0.24734119850E+02  0.79970374422E+02  0.84737803627E+02  0.00000000000E+00 0.  1.
</event>
<event>
 7    1  0.6235964E-006  0.5742707E+02  0.7818608E-02  0.1453013E+00
          2   -1    0    0  502    0  0.00000000000E+00  0.00000000000E+00  0.12214482060E+03  0.12214482060E+03  0.00000000000E+00 0. -1.
          1   -1    0    0  501    0 -0.00000000000E+00 -0.00000000000E+00 -0.23388420524E+04  0.23388420524E+04  0.00000000000E+00 0. -1.
         25    2    1    2    0    0  0.77008489422E+02 -0.55210765535E+02 -0.10239430471E+03  0.18731925230E+03  0.12500149027E+03 0.  0.
          2    1    1    2  501    0 -0.52706279755E+02  0.22017776547E+02 -0.21882778893E+04  0.21890232651E+04  0.00000000000E+00 0. -1.
          1    1    1    2  502    0 -0.24302209667E+02  0.33192988988E+02  0.73974962164E+02  0.84644355629E+02  0.00000000000E+00 0. -1.
         22    1    3    3    0    0 -0.13651093715E+02 -0.16633130635E+02 -0.84480580619E+02  0.87177875037E+02  0.00000000000E+00 0.  1.
         22    1    3    3    0    0  0.90659583137E+02 -0.38577634900E+02 -0.17913724096E+02  0.10014137726E+03  0.00000000000E+00 0.  1.
</event>
<event>
 7    1  0.6235964E-006  0.8232017E+02  0.7818608E-02  0.1413965E+00
          2   -1    0    0  502    0  0.00000000000E+00  0.00000000000E+00  0.10998975370E+04  0.10998975370E+04  0.00000000000E+00 0. -1.
          1   -1    0    0  501    0 -0.00000000000E+00 -0.00000000000E+00 -0.13886178257E+04  0.13886178257E+04  0.00000000000E+00 0. -1.
         25    2    1    2    0    0  0.63280111708E+00  0.72369682870E+02  0.35477934569E+03  0.38305360720E+03  0.12499564161E+03 0.  0.
          2    1    1    2  501    0 -0.38309351945E+02  0.41150300447E+01 -0.13717230759E+04  0.13722640915E+04  0.00000000000E+00 0. -1.
          1    1    1    2  502    0  0.37676550828E+02 -0.76484712915E+02  0.72822344153E+03  0.73319766406E+03  0.00000000000E+00 0. -1.
         22    1    3    3    0    0  0.35085678673E+02  0.21100310195E+02  0.25950321660E+02  0.48473158888E+02  0.00000000000E+00 0. -1.
         22    1    3    3    0    0 -0.34452877556E+02  0.51269372675E+02  0.32882902403E+03  0.33458044831E+03  0.00000000000E+00 0. -1.
</event>
<event>
 7    1  0.6235964E-006  0.1827447E+03  0.7818608E-02  0.1378880E+00
          2   -1    0    0  502    0  0.00000000000E+00  0.00000000000E+00  0.41408221145E+03  0.41408221145E+03  0.00000000000E+00 0. -1.
          1   -1    0    0  501    0 -0.00000000000E+00 -0.00000000000E+00 -0.51318415265E+03  0.51318415265E+03  0.00000000000E+00 0. -1.
         25    2    1    2    0    0  0.27316985378E+02  0.18309787640E+03  0.15800622840E+03  0.27360589916E+03  0.12499267901E+03 0.  0.
          2    1    1    2  501    0  0.21452716531E+02 -0.81498807276E+01 -0.41340914814E+03  0.41404560542E+03  0.00000000000E+00 0. -1.
          1    1    1    2  502    0 -0.48769701910E+02 -0.17494799568E+03  0.15630097854E+03  0.23961485953E+03  0.00000000000E+00 0. -1.
         22    1    3    3    0    0  0.46745133561E+02  0.19695451863E+02  0.88069450288E+01  0.51483789842E+02  0.00000000000E+00 0. -1.
         22    1    3    3    0    0 -0.19428148183E+02  0.16340242454E+03  0.14919928337E+03  0.22212210932E+03  0.00000000000E+00 0. -1.
</event>
<event>
 7    1  0.6235964E-006  0.4623129E+02  0.7818608E-02  0.1469246E+00
          2   -1    0    0  502    0  0.00000000000E+00  0.00000000000E+00  0.21682613162E+04  0.21682613162E+04  0.00000000000E+00 0. -1.
          1   -1    0    0  501    0 -0.00000000000E+00 -0.00000000000E+00 -0.90288049051E+02  0.90288049051E+02  0.00000000000E+00 0. -1.
         25    2    1    2    0    0  0.47949215898E+02  0.60386732894E+01  0.13237585123E+03  0.18839979389E+03  0.12504208679E+03 0.  0.
          2    1    1    2  501    0 -0.18155504909E+02 -0.41639508812E+02 -0.53687074174E+02  0.70326189901E+02  0.00000000000E+00 0. -1.
          1    1    1    2  502    0 -0.29793710989E+02  0.35600835523E+02  0.19992844901E+04  0.19998233814E+04  0.00000000000E+00 0. -1.
         22    1    3    3    0    0  0.73409444513E+02  0.44621342173E+02  0.10068583633E+03  0.13235425327E+03  0.00000000000E+00 0.  1.
         22    1    3    3    0    0 -0.25460228615E+02 -0.38582668884E+02  0.31690014904E+02  0.56045540625E+02  0.00000000000E+00 0.  1.
</event>
<event>
 7    1  0.6235964E-006  0.1281610E+03  0.7818608E-02  0.1353267E+00
          2   -1    0    0  502    0  0.00000000000E+00  0.00000000000E+00  0.15878772018E+04  0.15878772018E+04  0.00000000000E+00 0. -1.
          1   -1    0    0  501    0 -0.00000000000E+00 -0.00000000000E+00 -0.75892016782E+03  0.75892016782E+03  0.00000000000E+00 0. -1.
         25    2    1    2    0    0  0.23926132450E+02  0.84906171791E+02  0.44991488714E+03  0.47521581470E+03  0.12500058819E+03 0.  0.
          2    1    1    2  501    0 -0.37739977526E+02 -0.12297972494E+03 -0.74035706173E+03  0.75144986360E+03  0.00000000000E+00 0. -1.
          1    1    1    2  502    0  0.13813845076E+02  0.38073553144E+02  0.11193992085E+04  0.11201316913E+04  0.00000000000E+00 0. -1.
         22    1    3    3    0    0 -0.26274971317E+02  0.95933978849E+02  0.25716938219E+03  0.27573500603E+03  0.00000000000E+00 0. -1.
         22    1    3    3    0    0  0.50201103767E+02 -0.11027807058E+02  0.19274550495E+03  0.19948080867E+03  0.00000000000E+00 0. -1.
</event>
<event>
 7    1  0.6235964E-006  0.1665479E+03  0.7818608E-02  0.1290721E+00
          2   -1    0    0  502    0  0.00000000000E+00  0.00000000000E+00  0.17274974721E+04  0.17274974721E+04  0.00000000000E+00 0. -1.
          1   -1    0    0  501    0 -0.00000000000E+00 -0.00000000000E+00 -0.13937832161E+04  0.13937832161E+04  0.00000000000E+00 0. -1.
         25    2    1    2    0    0 -0.33214033754E+01  0.20952596647E+03  0.78319567574E+03  0.82032460593E+03  0.12499932099E+03 0.  0.
          2    1    1    2  501    0 -0.26705633579E+02 -0.16414019271E+03 -0.13693842573E+04  0.13794449745E+04  0.00000000000E+00 0. -1.
          1    1    1    2  502    0  0.30027036955E+02 -0.45385773762E+02  0.91990283746E+03  0.92151110779E+03  0.00000000000E+00 0. -1.
         22    1    3    3    0    0 -0.44205801491E+02  0.18035430813E+02  0.13457278814E+03  0.14279098346E+03  0.00000000000E+00 0.  1.
         22    1    3    3    0    0  0.40884398116E+02  0.19149053566E+03  0.64862288760E+03  0.67753362247E+03  0.00000000000E+00 0.  1.
</event>
<event>
 7    1  0.6235964E-006  0.1403585E+03  0.7818608E-02  0.1217891E+00
          2   -1    0    0  502    0  0.00000000000E+00  0.00000000000E+00  0.84157627351E+03  0.84157627351E+03  0.00000000000E+00 0. -1.
          1   -1    0    0  501    0 -0.00000000000E+00 -0.00000000000E+00 -0.27478804628E+04  0.27478804628E+04  0.00000000000E+00 0. -1.
         25    2    1    2    0    0  0.15525127619E+02  0.16714420335E+02 -0.31578958571E+03  0.34039420057E+03  0.12499899160E+03 0.  0.
          2    1    1    2  501    0 -0.76560699271E+01 -0.15685213537E+03 -0.24112769835E+04  0.24163852960E+04  0.00000000000E+00 0. -1.
          1    1    1    2  502    0 -0.78690576921E+01  0.14013771504E+03  0.82076237991E+03  0.83267723970E+03  0.00000000000E+00 0. -1.
         22    1    3    3    0    0 -0.88339685614E+01 -0.52324692244E+02 -0.15170246585E+03  0.16071574461E+03  0.00000000000E+00 0.  1.
         22    1    3    3    0    0  0.24359096181E+02  0.69039112579E+02 -0.16408711986E+03  0.17967845596E+03  0.00000000000E+00 0.  1.
</event>
<event>
 7    1  0.6235964E-006  0.5248927E+02  0.7818608E-02  0.1456753E+00
          2   -1    0    0  502    0  0.00000000000E+00  0.00000000000E+00  0.22642164145E+04  0.22642164145E+04  0.00000000000E+00 0. -1.
          1   -1    0    0  501    0 -0.00000000000E+00 -0.00000000000E+00 -0.42656940029E+03  0.42656940029E+03  0.00000000000E+00 0. -1.
         25    2    1    2    0    0 -0.79025573314E+01  0.35544479565E+02  0.55620920489E+03  0.57124367797E+03  0.12499919831E+03 0.  0.
          2    1    1    2  501    0 -0.41658049967E+02 -0.13508984089E+02 -0.41747401306E+03  0.41976474049E+03  0.00000000000E+00 0. -1.
          1    1    1    2  502    0  0.49560607299E+02 -0.22035495475E+02  0.16989118224E+04  0.16997773964E+04  0.00000000000E+00 0. -1.
         22    1    3    3    0    0  0.59643337027E+01  0.80918489647E+02  0.30591561902E+03  0.31649287702E+03  0.00000000000E+00 0. -1.
         22    1    3    3    0    0 -0.13866891034E+02 -0.45374010082E+02  0.25029358586E+03  0.25475080095E+03  0.00000000000E+00 0. -1.
</event>
<event>
 7    1  0.6235964E-006  0.8199926E+02  0.7818608E-02  0.1398125E+00
          2   -1    0    0  502    0  0.00000000000E+00  0.00000000000E+00  0.23549644491E+04  0.23549644491E+04  0.00000000000E+00 0. -1.
          1   -1    0    0  501    0 -0.00000000000E+00 -0.00000000000E+00 -0.14033843053E+04  0.14033843053E+04  0.00000000000E+00 0. -1.
         25    2    1    2    0    0  0.55129439172E+02 -0.40612377323E+02  0.80882502078E+03  0.82128652321E+03  0.12500007481E+03 0.  0.
          2    1    1    2  501    0 -0.20900929279E+02 -0.38492264331E+02 -0.13956036004E+04  0.13962907694E+04  0.00000000000E+00 0. -1.
          1    1    1    2  502    0 -0.34228509894E+02  0.79104641654E+02  0.15383587235E+04  0.15407714618E+04  0.00000000000E+00 0. -1.
         22    1    3    3    0    0  0.48501451879E+01  0.39206828881E+02  0.12802254802E+03  0.13397937207E+03  0.00000000000E+00 0.  1.
         22    1    3    3    0    0  0.50279293984E+02 -0.79819206204E+02  0.68080247276E+03  0.68730715114E+03  0.00000000000E+00 0.  1.
</event>
<event>
 7    1  0.6235964E-006  0.7383279E+02  0.7818608E-02  0.1486606E+00
          2   -1    0    0  502    0  0.00000000000E+00  0.00000000000E+00  0.44490855045E+03  0.44490855045E+03  0.00000000000E+00 0. -1.
          1   -1    0    0  501    0 -0.00000000000E+00 -0.00000000000E+00 -0.68272767347E+03  0.68272767347E+03  0.00000000000E+00 0. -1.
         25    2    1    2    0    0 -0.12714506591E+02  0.77207862459E+02  0.32516929775E+03  0.35703355024E+03  0.12496067818E+03 0.  0.
          2    1    1    2  501    0  0.34776141663E+02 -0.65127918984E+02 -0.66319276425E+03  0.66728979343E+03  0.00000000000E+00 0. -1.
          1    1    1    2  502    0 -0.22061635073E+02 -0.12079943475E+02  0.10020434347E+03  0.10331288025E+03  0.00000000000E+00 0. -1.
         22    1    3    3    0    0  0.51834193956E+02  0.26895743425E+02  0.83588701019E+02  0.10196683586E+03  0.00000000000E+00 0. -1.
         22    1    3    3    0    0 -0.64548700547E+02  0.50312119034E+02  0.24158059673E+03  0.25506671438E+03  0.00000000000E+00 0. -1.
</event>
<event>
 7    1  0.6235964E-006  0.3063667E+03  0.7818608E-02  0.1319441E+00
          2   -1    0    0  502    0  0.00000000000E+00  0.00000000000E+00  0.15384882838E+03  0.15384882838E+03  0.00000000000E+00 0. -1.
          1   -1    0    0  501    0 -0.00000000000E+00 -0.00000000000E+00 -0.24529066348E+04  0.24529066348E+04  0.00000000000E+00 0. -1.
         25    2    1    2    0    0  0.17177020069E+03  0.26423755393E+03 -0.16997835310E+04  0.17332673442E+04  0.12500058989E+03 0.  0.
          2    1    1    2  501    0  0.11412912243E+02 -0.19680267758E+02 -0.56562815204E+03  0.56608548284E+03  0.00000000000E+00 0. -1.
          1    1    1    2  502    0 -0.18318311293E+03 -0.24455728617E+03 -0.33646123371E+02  0.30740263613E+03  0.00000000000E+00 0. -1.
         22    1    3    3    0    0  0.11281107902E+03  0.11482348722E+03 -0.57625203732E+03  0.59831194479E+03  0.00000000000E+00 0. -1.
         22    1    3    3    0    0  0.58959121667E+02  0.14941406670E+03 -0.11235314937E+04  0.11349553994E+04  0.00000000000E+00 0. -1.
</event>
<event>
 7    1  0.6235964E-006  0.1752912E+03  0.7818608E-02  0.1255187E+00
          2   -1    0    0  502    0  0.00000000000E+00  0.00000000000E+00  0.79223506512E+02  0.79223506512E+02  0.00000000000E+00 0. -1.
          1   -1    0    0  501    0 -0.00000000000E+00 -0.00000000000E+00 -0.84550031364E+03  0.84550031364E+03  0.00000000000E+00 0. -1.
         25    2    1    2    0    0  0.88283736935E+02 -0.80650391625E+02 -0.52601244110E+03  0.55372565061E+03  0.12499801628E+03 0.  0.
          2    1    1    2  501    0  0.54292921307E+02 -0.48485899150E+02 -0.13074252050E+03  0.14964026994E+03  0.00000000000E+00 0. -1.
          1    1    1    2  502    0 -0.14257665824E+03  0.12913629078E+03 -0.10952184553E+03  0.22135789961E+03  0.00000000000E+00 0. -1.
         22    1    3    3    0    0  0.90496059532E+02 -0.93049192423E+02 -0.52531334806E+03  0.54111163604E+03  0.00000000000E+00 0.  1.
         22    1    3    3    0    0 -0.22123225970E+01  0.12398800798E+02 -0.69909303527E+00  0.12614014570E+02  0.00000000000E+00 0.  1.
</event>
<event>
 7    1  0.6235964E-006  0.8595964E+02  0.7818608E-02  0.1326540E+00
          2   -1    0    0  502    0  0.00000000000E+00  0.00000000000E+00  0.19935544579E+04  0.19935544579E+04  0.00000000000E+00 0. -1.
          1   -1    0    0  501    0 -0.00000000000E+00 -0.00000000000E+00 -0.10347068731E+03  0.10347068731E+03  0.00000000000E+00 0. -1.
         25    2    1    2    0    0 -0.11023541264E+03 -0.15545846314E+02  0.70280116443E+03  0.72246207608E+03  0.12501381970E+03 0.  0.
          2    1    1    2  501    0  0.54085388737E+02  0.66944608838E+02 -0.72471037023E+02  0.11251160444E+03  0.00000000000E+00 0. -1.
          1    1    1    2  502    0  0.56150023903E+02 -0.51398762524E+02  0.12597536432E+04  0.12620514647E+04  0.00000000000E+00 0. -1.
         22    1    3    3    0    0 -0.95583651190E+02 -0.63083845380E+02  0.54894141825E+03  0.56076063217E+03  0.00000000000E+00 0.  1.
         22    1    3    3    0    0 -0.14651761450E+02  0.47537999066E+02  0.15385974618E+03  0.16170144391E+03  0.00000000000E+00 0.  1.
</event>
<event>
 7    1  0.6235964E-006  0.2906654E+02  0.7818608E-02  0.1614184E+00
          2   -1    0    0  502    0  0.00000000000E+00  0.00000000000E+00  0.10686812783E+04  0.10686812783E+04  0.00000000000E+00 0. -1.
          1   -1    0    0  501    0 -0.00000000000E+00 -0.00000000000E+00 -0.62129661979E+02  0.62129661979E+02  0.00000000000E+00 0. -1.
         25    2    1    2    0    0  0.13662263039E+02  0.15435078603E+02  0.10422585052E+03  0.16405262545E+03  0.12500134766E+03 0.  0.
          2    1    1    2  501    0 -0.25827637049E+02  0.11138087970E+02 -0.25802954687E+02  0.38169573088E+02  0.00000000000E+00 0. -1.
          1    1    1    2  502    0  0.12165374010E+02 -0.26573166573E+02  0.92812872046E+03  0.92858874172E+03  0.00000000000E+00 0. -1.
         22    1    3    3    0    0  0.69150414944E+02  0.20981733004E+01  0.50288462217E+02  0.85528425978E+02  0.00000000000E+00 0. -1.
         22    1    3    3    0    0 -0.55488151905E+02  0.13336905302E+02  0.53937388306E+02  0.78524199468E+02  0.00000000000E+00 0. -1.
</event>
<event>
 7    1  0.6235964E-006  0.4409440E+03  0.7818608E-02  0.1079506E+00
          2   -1    0    0  502    0  0.00000000000E+00  0.00000000000E+00  0.31682464105E+03  0.31682464105E+03  0.00000000000E+00 0. -1.
          1   -1    0    0  501    0 -0.00000000000E+00 -0.00000000000E+00 -0.14504135372E+04  0.14504135372E+04  0.00000000000E+00 0. -1.
         25    2    1    2    0    0 -0.34678494739E+03  0.42452759825E+03 -0.13620676315E+03  0.57849898244E+03  0.12500123578E+03 0.  0.
          2    1    1    2  501    0  0.36757348291E+03 -0.20508738261E+03 -0.72514440814E+03  0.83845423996E+03  0.00000000000E+00 0. -1.
          1    1    1    2  502    0 -0.20788535529E+02 -0.21944021565E+03 -0.27223772482E+03  0.35028495581E+03  0.00000000000E+00 0. -1.
         22    1    3    3    0    0 -0.12813808501E+03  0.12708152761E+03 -0.10313056720E+03  0.20785811839E+03  0.00000000000E+00 0. -1.
         22    1    3    3    0    0 -0.21864686238E+03  0.29744607065E+03 -0.33076195958E+02  0.37064086406E+03  0.00000000000E+00 0. -1.
</event>
<event>
 7    1  0.6235964E-006  0.8940753E+02  0.7818608E-02  0.1338706E+00
          2   -1    0    0  502    0  0.00000000000E+00  0.00000000000E+00  0.72219548413E+03  0.72219548413E+03  0.00000000000E+00 0. -1.
          1   -1    0    0  501    0 -0.00000000000E+00 -0.00000000000E+00 -0.32370635879E+03  0.32370635879E+03  0.00000000000E+00 0. -1.
         25    2    1    2    0    0  0.12216457290E+03  0.44354469731E+01 -0.24057724875E+02  0.17648671678E+03  0.12499972404E+03 0.  0.
          2    1    1    2  501    0 -0.73000210611E+02 -0.48148410043E+02 -0.21311446662E+03  0.23035858140E+03  0.00000000000E+00 0. -1.
          1    1    1    2  502    0 -0.49164362289E+02  0.43712963070E+02  0.63566131684E+03  0.63905654475E+03  0.00000000000E+00 0. -1.
         22    1    3    3    0    0  0.34087694139E+02  0.36004944789E+02  0.39487333686E+02  0.63384355031E+02  0.00000000000E+00 0. -1.
         22    1    3    3    0    0  0.88076878762E+02 -0.31569497816E+02 -0.63545058561E+02  0.11310236175E+03  0.00000000000E+00 0. -1.
</event>
<event>
 7    1  0.6235964E-006  0.1281782E+03  0.7818608E-02  0.1247851E+00
          2   -1    0    0  502    0  0.00000000000E+00  0.00000000000E+00  0.81695492063E+03  0.81695492063E+03  0.00000000000E+00 0. -1.
          1   -1    0    0  501    0 -0.00000000000E+00 -0.00000000000E+00 -0.51362598743E+03  0.51362598743E+03  0.00000000000E+00 0. -1.
         25    2    1    2    0    0 -0.16859756684E+02 -0.17725078283E+03  0.20901560569E+03  0.30168498823E+03  0.12499686912E+03 0.  0.
          2    1    1    2  501    0  0.85322236598E+02  0.94896549520E+02 -0.45329394665E+03  0.47091468573E+03  0.00000000000E+00 0. -1.
          1    1    1    2  502    0 -0.68462479914E+02  0.82354233314E+02  0.54760727416E+03  0.55798123410E+03  0.00000000000E+00 0. -1.
         22    1    3    3    0    0 -0.45193849132E+02 -0.21240298951E+02  0.91792423480E+02  0.10449633155E+03  0.00000000000E+00 0. -1.
         22    1    3    3    0    0  0.28334092448E+02 -0.15601048388E+03  0.11722318221E+03  0.19718865668E+03  0.00000000000E+00 0. -1.
</event>
<event>
 7    1  0.6235964E-006  0.4335433E+03  0.7818608E-02  0.1165648E+00
          2   -1    0    0  502    0  0.00000000000E+00  0.00000000000E+00  0.52459721948E+03  0.52459721948E+03  0.00000000000E+00 0. -1.
          1   -1    0    0  501    0 -0.00000000000E+00 -0.00000000000E+00 -0.14195879007E+04  0.14195879007E+04  0.00000000000E+00 0. -1.
         25    2    1    2    0    0 -0.74204437701E+00  0.38798985246E+03 -0.67712169286E+02  0.41321308322E+03  0.12499375198E+03 0.  0.
          2    1    1    2  501    0  0.18834317075E+02  0.74257212908E+02 -0.10250210083E+04  0.10278798241E+04  0.00000000000E+00 0. -1.
          1    1    1    2  502    0 -0.18092272698E+02 -0.46224706536E+03  0.19774249642E+03  0.50309221288E+03  0.00000000000E+00 0. -1.
         22    1    3    3    0    0  0.37035184806E+02  0.58018923543E+02  0.16068987461E+02  0.70682478457E+02  0.00000000000E+00 0. -1.
         22    1    3    3    0    0 -0.37777229183E+02  0.32997092891E+03 -0.83781156747E+02  0.34253060476E+03  0.00000000000E+00 0. -1.
</event>
<event>
 7    1  0.6235964E-006  0.9053677E+02  0.7818608E-02  0.1312597E+00
          2   -1    0    0  502    0  0.00000000000E+00  0.00000000000E+00  0.29691699483E+03  0.29691699483E+03  0.00000000000E+00 0. -1.
          1   -1    0    0  501    0 -0.00000000000E+00 -0.00000000000E+00 -0.54806688186E+03  0.54806688186E+03  0.00000000000E+00 0. -1.
         25    2    1    2    0    0 -0.59339059203E+02 -0.18869352477E+01  0.12976985733E+03  0.18970602334E+03  0.12499389965E+03 0.  0.
          2    1    1    2  501    0 -0.53506160944E+02  0.61964296781E+02 -0.48411190997E+03  0.49098556466E+03  0.00000000000E+00 0. -1.
          1    1    1    2  502    0  0.11284522015E+03 -0.60077361534E+02  0.10319216560E+03  0.16429228868E+03  0.00000000000E+00 0. -1.
         22    1    3    3    0    0 -0.96548028416E+02  0.12743934684E+01  0.70120159535E+02  0.11933139840E+03  0.00000000000E+00 0. -1.
         22    1    3    3    0    0  0.37208969214E+02 -0.31613287161E+01  0.59649697796E+02  0.70374624947E+02  0.00000000000E+00 0. -1.
</event>
<event>
 7    1  0.6235964E-006  0.1342811E+03  0.7818608E-02  0.1250708E+00
          2   -1    0    0  502    0  0.00000000000E+00  0.00000000000E+00  0.13761434061E+03  0.13761434061E+03  0.00000000000E+00 0. -1.
          1   -1    0    0  501    0 -0.00000000000E+00 -0.00000000000E+00 -0.85739015713E+03  0.85739015713E+03  0.00000000000E+00 0. -1.
         25    2    1    2    0    0  0.11860478687E+03 -0.98491458356E+02 -0.48279655981E+03  0.52200138098E+03  0.12500104296E+03 0.  0.
          2    1    1    2  501    0 -0.13449428301E+03  0.42216318519E+00 -0.31769985630E+03  0.34499578125E+03  0.00000000000E+00 0. -1.
          1    1    1    2  502    0  0.15889496142E+02  0.98069295170E+02  0.80720599603E+02  0.12800733551E+03  0.00000000000E+00 0. -1.
         22    1    3    3    0    0  0.33320541999E+02 -0.55271588328E+01 -0.14061865480E+02  0.36586118469E+02  0.00000000000E+00 0. -1.
         22    1    3    3    0    0  0.85284244873E+02 -0.92964299523E+02 -0.46873469433E+03  0.48541526251E+03  0.00000000000E+00 0. -1.
</event>
<event>
 7    1  0.6235964E-006  0.1868750E+03  0.7818608E-02  0.1265757E+00
          2   -1    0    0  502    0  0.00000000000E+00  0.00000000000E+00  0.30506611202E+04  0.30506611202E+04  0.00000000000E+00 0. -1.
          1   -1    0    0  501    0 -0.00000000000E+00 -0.00000000000E+00 -0.22668424984E+03  0.22668424984E+03  0.00000000000E+00 0. -1.
         25    2    1    2    0    0 -0.16442031494E+03 -0.18282883858E+03  0.11438797066E+04  0.11766672497E+04  0.12499843639E+03 0.  0.
          2    1    1    2  501    0  0.11860728430E+03  0.14172878566E+03 -0.16907515809E+03  0.25048182700E+03  0.00000000000E+00 0. -1.
          1    1    1    2  502    0  0.45813030642E+02  0.41100052911E+02  0.18491723218E+04  0.18501962933E+04  0.00000000000E+00 0. -1.
         22    1    3    3    0    0 -0.13517593758E+03 -0.61902849490E+02  0.70425921460E+03  0.71978159064E+03  0.00000000000E+00 0. -1.
         22    1    3    3    0    0 -0.29244377363E+02 -0.12092598909E+03  0.43962049201E+03  0.45688565904E+03  0.00000000000E+00 0. -1.
</event>
<event>
 7    1  0.6235964E-006  0.5384319E+02  0.7818608E-02  0.1451807E+00
          2   -1    0    0  502    0  0.00000000000E+00  0.00000000000E+00  0.91408437457E+03  0.91408437457E+03  0.00000000000E+00 0. -1.
          1   -1    0    0  501    0 -0.00000000000E+00 -0.00000000000E+00 -0.51976322010E+02  0.51976322010E+02  0.00000000000E+00 0. -1.
         25    2    1    2    0    0  0.48739525065E+02  0.38944169485E+02  0.20448097510E+03  0.24764851449E+03  0.12500051164E+03 0.  0.
          2    1    1    2  501    0 -0.54408056463E+02  0.49583784426E+01 -0.44893177099E+01  0.54817662284E+02  0.00000000000E+00 0. -1.
          1    1    1    2  502    0  0.56685313977E+01 -0.43902547927E+02  0.66211639516E+03  0.66359451980E+03  0.00000000000E+00 0. -1.
         22    1    3    3    0    0  0.72262535752E+01  0.24852809312E+02 -0.10729729803E+02  0.28017993738E+02  0.00000000000E+00 0. -1.
         22    1    3    3    0    0  0.41513271490E+02  0.14091360172E+02  0.21521070490E+03  0.21963052075E+03  0.00000000000E+00 0. -1.
</event>
<event>
 7    1  0.6235964E-006  0.9885225E+02  0.7818608E-02  0.1413887E+00
          2   -1    0    0  502    0  0.00000000000E+00  0.00000000000E+00  0.93838863034E+03  0.93838863034E+03  0.00000000000E+00 0. -1.
          1   -1    0    0  501    0 -0.00000000000E+00 -0.00000000000E+00 -0.10509634509E+04  0.10509634509E+04  0.00000000000E+00 0. -1.
         25    2    1    2    0    0 -0.10301160681E+02 -0.96725858086E+02 -0.61443863826E+03  0.63452467558E+03  0.12499887278E+03 0.  0.
          2    1    1    2  501    0  0.32104107255E+02  0.27879407969E+00 -0.42323907627E+03  0.42445502366E+03  0.00000000000E+00 0. -1.
          1    1    1    2  502    0 -0.21802946574E+02  0.96447064007E+02  0.92510289401E+03  0.93037238197E+03  0.00000000000E+00 0. -1.
         22    1    3    3    0    0  0.28160162560E+02  0.10923128823E+02 -0.48347565666E+02  0.57006987330E+02  0.00000000000E+00 0.  1.
         22    1    3    3    0    0 -0.38461323241E+02 -0.10764898691E+03 -0.56609107260E+03  0.57751768825E+03  0.00000000000E+00 0.  1.
</event>
<event>
 7    1  0.6235964E-006  0.9090648E+02  0.7818608E-02  0.1332666E+00
          2   -1    0    0  502    0  0.00000000000E+00  0.00000000000E+00  0.34453036426E+04  0.34453036426E+04  0.00000000000E+00 0. -1.
          1   -1    0    0  501    0 -0.00000000000E+00 -0.00000000000E+00 -0.21498416629E+04  0.21498416629E+04  0.00000000000E+00 0. -1.
         25    2    1    2    0    0 -0.16495570569E+02  0.10945620887E+03 -0.38417766473E+03  0.41889132685E+03  0.12499880048E+03 0.  0.
          2    1    1    2  501    0  0.61124885522E+02 -0.30252694432E+02 -0.17470389164E+04  0.17483696556E+04  0.00000000000E+00 0. -1.
          1    1    1    2  502    0 -0.44629314952E+02 -0.79203514439E+02  0.34266785609E+04  0.34278843230E+04  0.00000000000E+00 0. -1.
         22    1    3    3    0    0 -0.35658353542E+02  0.95966023119E+02 -0.38185602360E+03  0.39534164786E+03  0.00000000000E+00 0.  1.
         22    1    3    3    0    0  0.19162782973E+02  0.13490185752E+02 -0.23216411266E+01  0.23549678987E+02  0.00000000000E+00 0.  1.
</event>
<event>
 7    1  0.6235964E-006  0.3081667E+03  0.7818608E-02  0.1102559E+00
          2   -1    0    0  502    0  0.00000000000E+00  0.00000000000E+00  0.53907232584E+03  0.53907232584E+03  0.00000000000E+00 0. -1.
          1   -1    0    0  501    0 -0.00000000000E+00 -0.00000000000E+00 -0.21058255024E+04  0.21058255024E+04  0.00000000000E+00 0. -1.
         25    2    1    2    0    0  0.13880216723E+03 -0.22428574435E+03 -0.91695249403E+03  0.96228705208E+03  0.12499743022E+03 0.  0.
          2    1    1    2  501    0  0.16912813959E+03  0.15979660257E+03 -0.11050210874E+04  0.11292523568E+04  0.00000000000E+00 0. -1.
          1    1    1    2  502    0 -0.30793030683E+03  0.64489141779E+02  0.45522040486E+03  0.55335841935E+03  0.00000000000E+00 0. -1.
         22    1    3    3    0    0  0.73962374873E+02 -0.19469730002E+02 -0.26791514562E+03  0.27861806929E+03  0.00000000000E+00 0.  1.
         22    1    3    3    0    0  0.64839792359E+02 -0.20481601434E+03 -0.64903734841E+03  0.68366898280E+03  0.00000000000E+00 0.  1.
</event>
<event>
 7    1  0.6235964E-006  0.1591154E+03  0.7818608E-02  0.1334538E+00
          2   -1    0    0  502    0  0.00000000000E+00  0.00000000000E+00  0.55203956338E+03  0.55203956338E+03  0.00000000000E+00 0. -1.
          1   -1    0    0  501    0 -0.00000000000E+00 -0.00000000000E+00 -0.17242192803E+04  0.17242192803E+04  0.00000000000E+00 0. -1.
         25    2    1    2    0    0  0.11514177651E+03  0.13122618295E+03 -0.28903180655E+03  0.36005980326E+03  0.12500294772E+03 0.  0.
          2    1    1    2  501    0 -0.12611889007E+03 -0.94499059165E+02 -0.13945178099E+04  0.14033944452E+04  0.00000000000E+00 0. -1.
          1    1    1    2  502    0  0.10977113562E+02 -0.36727123783E+02  0.51136989958E+03  0.51280459518E+03  0.00000000000E+00 0. -1.
         22    1    3    3    0    0  0.96070881160E+01  0.10562216452E+03 -0.13843806115E+03  0.17439447972E+03  0.00000000000E+00 0. -1.
         22    1    3    3    0    0  0.10553468840E+03  0.25604018425E+02 -0.15059374540E+03  0.18566532354E+03  0.00000000000E+00 0. -1.
</event>
<event>
 7    1  0.6235964E-006  0.7974322E+02  0.7818608E-02  0.1362716E+00
          2   -1    0    0  502    0  0.00000000000E+00  0.00000000000E+00  0.31073190450E+03  0.31073190450E+03  0.00000000000E+00 0. -1.
          1   -1    0    0  501    0 -0.00000000000E+00 -0.00000000000E+00 -0.26342248437E+03  0.26342248437E+03  0.00000000000E+00 0. -1.
         25    2    1    2    0    0  0.37785492646E+02 -0.24414276819E+02 -0.47632369548E+02  0.14113205029E+03  0.12500245047E+03 0.  0.
          2    1    1    2  501    0 -0.19880139334E+02 -0.56727624337E+02 -0.15679698624E+03  0.16792420372E+03  0.00000000000E+00 0. -1.
          1    1    1    2  502    0 -0.17905353313E+02  0.81141901156E+02  0.25173877592E+03  0.26509813485E+03  0.00000000000E+00 0. -1.
         22    1    3    3    0    0 -0.42233125320E+02 -0.79531425824E+01  0.60199828004E+01  0.43395040548E+02  0.00000000000E+00 0.  1.
         22    1    3    3    0    0  0.80018617967E+02 -0.16461134236E+02 -0.53652352348E+02  0.97737009746E+02  0.00000000000E+00 0.  1.
</event>
<event>
 7    1  0.6235964E-006  0.3850715E+02  0.7818608E-02  0.1523366E+00
          2   -1    0    0  502    0  0.00000000000E+00  0.00000000000E+00  0.10003326242E+03  0.10003326242E+03  0.00000000000E+00 0. -1.
          1   -1    0    0  501    0 -0.00000000000E+00 -0.00000000000E+00 -0.15714451626E+04  0.15714451626E+04  0.00000000000E+00 0. -1.
         25    2    1    2    0    0 -0.16812602575E+01  0.62761256558E+02 -0.21433942512E+03  0.25594559900E+03  0.12499983409E+03 0.  0.
          2    1    1    2  501    0  0.22122418730E+02 -0.31292638429E+02 -0.13315683466E+04  0.13321196989E+04  0.00000000000E+00 0. -1.
          1    1    1    2  502    0 -0.20441158472E+02 -0.31468618129E+02  0.74495871560E+02  0.83413127061E+02  0.00000000000E+00 0. -1.
         22    1    3    3    0    0 -0.21463855859E+02  0.60251524741E+02 -0.30203880955E+02  0.70733427506E+02  0.00000000000E+00 0.  1.
         22    1    3    3    0    0  0.19782595602E+02  0.25097318170E+01 -0.18413554417E+03  0.18521217149E+03  0.00000000000E+00 0.  1.
</event>
<event>
 7    1  0.6235964E-006  0.1362272E+03  0.7818608E-02  0.1344562E+00
          2   -1    0    0  502    0  0.00000000000E+00  0.00000000000E+00  0.31568531787E+03  0.31568531787E+03  0.00000000000E+00 0. -1.
          1   -1    0    0  501    0 -0.00000000000E+00 -0.00000000000E+00 -0.27178094137E+04  0.27178094137E+04  0.00000000000E+00 0. -1.
         25    2    1    2    0    0 -0.53483670279E+02 -0.83842343172E+02 -0.19573688470E+03  0.25264555602E+03  0.12500722959E+03 0.  0.
          2    1    1    2  501    0 -0.31821157470E+02 -0.25927103831E+02 -0.24766169988E+04  0.24769571170E+04  0.00000000000E+00 0. -1.
          1    1    1    2  502    0  0.85304827749E+02  0.10976944700E+03  0.27022978764E+03  0.30389205857E+03  0.00000000000E+00 0. -1.
         22    1    3    3    0    0 -0.58589027313E+02 -0.16510302656E+01 -0.14379875701E+03  0.15528516522E+03  0.00000000000E+00 0.  1.
         22    1    3    3    0    0  0.51053570348E+01 -0.82191312906E+02 -0.51938127699E+02  0.97360390799E+02  0.00000000000E+00 0.  1.
</event>
<event>
 7    1  0.6235964E-006  0.1101229E+03  0.7818608E-02  0.1407188E+00
          2   -1    0    0  502    0  0.00000000000E+00  0.00000000000E+00  0.20727980889E+04  0.20727980889E+04  0.00000000000E+00 0. -1.
          1   -1    0    0  501    0 -0.00000000000E+00 -0.00000000000E+00 -0.12496723586E+04  0.12496723586E+04  0.00000000000E+00 0. -1.
         25    2    1    2    0    0  0.15851992759E+02  0.79231653065E+02  0.11924219608E+01  0.14882987715E+03  0.12497987814E+03 0.  0.
          2    1    1    2  501    0  0.11696258655E+02  0.28021783251E+02 -0.11741227177E+04  0.11745152954E+04  0.00000000000E+00 0. -1.
          1    1    1    2  502    0 -0.27548251414E+02 -0.10725343632E+03  0.19960560260E+04  0.19991252749E+04  0.00000000000E+00 0. -1.
         22    1    3    3    0    0  0.12817234980E+02  0.82747567458E+02  0.51502818008E+02  0.98305552719E+02  0.00000000000E+00 0.  1.
         22    1    3    3    0    0  0.30347577790E+01 -0.35159143933E+01 -0.50310396047E+02  0.50524324431E+02  0.00000000000E+00 0.  1.
</event>
<event>
 7    1  0.6235964E-006  0.1654869E+03  0.7818608E-02  0.1327030E+00
          2   -1    0    0  502    0  0.00000000000E+00  0.00000000000E+00  0.20187540439E+03  0.20187540439E+03  0.00000000000E+00 0. -1.
          1   -1    0    0  501    0 -0.00000000000E+00 -0.00000000000E+00 -0.11570370475E+04  0.11570370475E+04  0.00000000000E+00 0. -1.
         25    2    1    2    0    0 -0.36868795231E+02  0.15321094541E+03 -0.60858229336E+03  0.64095979216E+03  0.12499658204E+03 0.  0.
          2    1    1    2  501    0  0.76074770792E+02 -0.15679790546E+03 -0.51567798175E+03  0.54433145671E+03  0.00000000000E+00 0. -1.
          1    1    1    2  502    0 -0.39205975561E+02  0.35869600511E+01  0.16909863199E+03  0.17362120303E+03  0.00000000000E+00 0. -1.
         22    1    3    3    0    0 -0.16855743447E+02  0.15289116821E+02 -0.31665608299E+03  0.31747275170E+03  0.00000000000E+00 0.  1.
         22    1    3    3    0    0 -0.20013051785E+02  0.13792182859E+03 -0.29192621037E+03  0.32348704046E+03  0.00000000000E+00 0.  1.
</event>
<event>
 7    1  0.6235964E-006  0.7441223E+02  0.7818608E-02  0.1394253E+00
          2   -1    0    0  502    0  0.00000000000E+00  0.00000000000E+00  0.57570281050E+03  0.57570281050E+03  0.00000000000E+00 0. -1.
          1   -1    0    0  501    0 -0.00000000000E+00 -0.00000000000E+00 -0.36662436414E+03  0.36662436414E+03  0.00000000000E+00 0. -1.
         25    2    1    2    0    0  0.71673833180E+01 -0.41319208488E+02  0.79153214833E+02  0.15378308848E+03  0.12500143403E+03 0.  0.
          2    1    1    2  501    0  0.35324373754E+02  0.67247634981E+02 -0.32354887745E+03  0.33234610257E+03  0.00000000000E+00 0. -1.
          1    1    1    2  502    0 -0.42491757072E+02 -0.25928426493E+02  0.45347410898E+03  0.45619798360E+03  0.00000000000E+00 0. -1.
         22    1    3    3    0    0  0.65707778737E+02 -0.13896850379E+02  0.38385373851E+02  0.77356780975E+02  0.00000000000E+00 0.  1.
         22    1    3    3    0    0 -0.58540395419E+02 -0.27422358108E+02  0.40767840981E+02  0.76426307502E+02  0.00000000000E+00 0.  1.
</event>
<event>
 7    1  0.6235964E-006  0.5728753E+02  0.7818608E-02  0.1469256E+00
          2   -1    0    0  502    0  0.00000000000E+00  0.00000000000E+00  0.17722287455E+04  0.17722287455E+04  0.00000000000E+00 0. -1.
          1   -1    0    0  501    0 -0.00000000000E+00 -0.00000000000E+00 -0.16342743388E+02  0.16342743388E+02  0.00000000000E+00 0. -1.
         25    2    1    2    0    0 -0.73573289871E+01 -0.69072787835E+02  0.50934819366E+03  0.52904265519E+03  0.12500147325E+03 0.  0.
          2    1    1    2  501    0 -0.24377189237E+02  0.50726365313E+02  0.12158333202E+03  0.13397730449E+03  0.00000000000E+00 0. -1.
          1    1    1    2  502    0  0.31734518224E+02  0.18346422522E+02  0.11249544764E+04  0.11255515292E+04  0.00000000000E+00 0. -1.
         22    1    3    3    0    0  0.11604858079E+02  0.80958841802E+01  0.63877593126E+00  0.14164183929E+02  0.00000000000E+00 0. -1.
         22    1    3    3    0    0 -0.18962187066E+02 -0.77168672015E+02  0.50870941773E+03  0.51487847126E+03  0.00000000000E+00 0. -1.
</event>
<event>
 7    1  0.6235964E-006  0.1601550E+03  0.7818608E-02  0.1200946E+00
          2   -1    0    0  502    0  0.00000000000E+00  0.00000000000E+00  0.25181145255E+04  0.25181145255E+04  0.00000000000E+00 0. -1.
          1   -1    0    0  501    0 -0.00000000000E+00 -0.00000000000E+00 -0.41348776588E+03  0.41348776588E+03  0.00000000000E+00 0. -1.
         25    2    1    2    0    0 -0.23614123038E+03 -0.16453461100E+03  0.10341851945E+03  0.33038792233E+03  0.12500588047E+03 0.  0.
          2    1    1    2  501    0  0.11446623981E+03  0.95754476408E+02 -0.27917071273E+03  0.31655604031E+03  0.00000000000E+00 0. -1.
          1    1    1    2  502    0  0.12167499057E+03  0.68780134588E+02  0.22803789529E+04  0.22846583287E+04  0.00000000000E+00 0. -1.
         22    1    3    3    0    0 -0.14235426038E+03 -0.14945028407E+03  0.11231797125E+03  0.23497967896E+03  0.00000000000E+00 0.  1.
         22    1    3    3    0    0 -0.93786969999E+02 -0.15084326925E+02 -0.88994517962E+01  0.95408243369E+02  0.00000000000E+00 0.  1.
</event>
<event>
 7    1  0.6235964E-006  0.1091376E+03  0.7818608E-02  0.1322643E+00
          2   -1    0    0  502    0  0.00000000000E+00  0.00000000000E+00  0.10770757131E+04  0.10770757131E+04  0.00000000000E+00 0. -1.
          1   -1    0    0  501    0 -0.00000000000E+00 -0.00000000000E+00 -0.18028339695E+03  0.18028339695E+03  0.00000000000E+00 0. -1.
         25    2    1    2    0    0 -0.13371840640E+03  0.68281398573E+02  0.39433087615E+03  0.44007344404E+03  0.12499933864E+03 0.  0.
          2    1    1    2  501    0  0.72675367341E+02 -0.79496300519E+02 -0.13730777193E+03  0.17451302257E+03  0.00000000000E+00 0. -1.
          1    1    1    2  502    0  0.61043039055E+02  0.11214901946E+02  0.63976921193E+03  0.64277264346E+03  0.00000000000E+00 0. -1.
         22    1    3    3    0    0 -0.11545285740E+03  0.39259725149E+02  0.14984634922E+03  0.19319579880E+03  0.00000000000E+00 0.  1.
         22    1    3    3    0    0 -0.18265549000E+02  0.29021673424E+02  0.24448452693E+03  0.24687764524E+03  0.00000000000E+00 0.  1.
</event>
<event>
 7    1  0.6235964E-006  0.7551142E+02  0.7818608E-02  0.1354881E+00
          2   -1    0    0  502    0  0.00000000000E+00  0.00000000000E+00  0.12871382242E+03  0.12871382242E+03  0.00000000000E+00 0. -1.
          1   -1    0    0  501    0 -0.00000000000E+00 -0.00000000000E+00 -0.10700833771E+04  0.10700833771E+04  0.00000000000E+00 0. -1.
         25    2    1    2    0    0 -0.29594709464E+02  0.19555298177E+01 -0.58711217684E+02  0.14124985814E+03  0.12499937766E+03 0.  0.
          2    1    1    2  501    0 -0.31792416418E+02  0.59891999451E+02 -0.94687575019E+03  0.94930052967E+03  0.00000000000E+00 0. -1.
          1    1    1    2  502    0  0.61387125882E+02 -0.61847529269E+02  0.64217413158E+02  0.10824681175E+03  0.00000000000E+00 0. -1.
         22    1    3    3    0    0 -0.31983561611E+02 -0.12327391468E+02 -0.95632705491E+02  0.10158999534E+03  0.00000000000E+00 0.  1.
         22    1    3    3    0    0  0.23888521467E+01  0.14282921285E+02  0.36921487807E+02  0.39659862795E+02  0.00000000000E+00 0.  1.
</event>
<event>
 7    1  0.6235964E-006  0.1766197E+03  0.7818608E-02  0.1305393E+00
          2   -1    0    0  502    0  0.00000000000E+00  0.00000000000E+00  0.16846727579E+04  0.16846727579E+04  0.00000000000E+00 0. -1.
          1   -1    0    0  501    0 -0.00000000000E+00 -0.00000000000E+00 -0.24914689840E+03  0.24914689840E+03  0.00000000000E+00 0. -1.
         25    2    1    2    0    0 -0.18503733756E+03 -0.38500121667E+02  0.57838388816E+03  0.62118723482E+03  0.12499833184E+03 0.  0.
          2    1    1    2  501    0  0.11288003708E+02  0.43360981861E+02 -0.21849506993E+03  0.22304190045E+03  0.00000000000E+00 0. -1.
          1    1    1    2  502    0  0.17374933385E+03 -0.48608601936E+01  0.10756370413E+04  0.10895905210E+04  0.00000000000E+00 0. -1.
         22    1    3    3    0    0  0.62352408219E+01  0.44274970485E+01 -0.25573106271E+01  0.80635473500E+01  0.00000000000E+00 0. -1.
         22    1    3    3    0    0 -0.19127257838E+03 -0.42927618716E+02  0.58094119879E+03  0.61312368747E+03  0.00000000000E+00 0. -1.
</event>
<event>
 7    1  0.6235964E-006  0.6133308E+02  0.7818608E-02  0.1452765E+00
          2   -1    0    0  502    0  0.00000000000E+00  0.00000000000E+00  0.67726489325E+03  0.67726489325E+03  0.00000000000E+00 0. -1.
          1   -1    0    0  501    0 -0.00000000000E+00 -0.00000000000E+00 -0.89588002888E+03  0.89588002888E+03  0.00000000000E+00 0. -1.
         25    2    1    2    0    0  0.80373989994E+01  0.49739881895E+02  0.52957258864E+02  0.14480261888E+03  0.12499868613E+03 0.  0.
          2    1    1    2  501    0 -0.38326740327E+02  0.44909000908E+01 -0.84784946917E+03  0.84872718207E+03  0.00000000000E+00 0. -1.
          1    1    1    2  502    0  0.30289341328E+02 -0.54230781986E+02  0.57627707467E+03  0.57961512119E+03  0.00000000000E+00 0. -1.
         22    1    3    3    0    0  0.54606847462E+02  0.66359250303E+01 -0.94343445311E+01  0.55811738439E+02  0.00000000000E+00 0.  1.
         22    1    3    3    0    0 -0.46569448463E+02  0.43103956865E+02  0.62391603395E+02  0.88990880442E+02  0.00000000000E+00 0.  1.
</event>
<event>
 7    1  0.6235964E-006  0.3585785E+02  0.7818608E-02  0.1545546E+00
          2   -1    0    0  502    0  0.00000000000E+00  0.00000000000E+00  0.71049526519E+03  0.71049526519E+03  0.00000000000E+00 0. -1.
          1   -1    0    0  501    0 -0.00000000000E+00 -0.00000000000E+00 -0.23156716396E+03  0.23156716396E+03  0.00000000000E+00 0. -1.
         25    2    1    2    0    0  0.30458530332E+01  0.82469833277E+01  0.30871691848E+03  0.33317821184E+03  0.12499718051E+03 0.  0.
          2    1    1    2  501    0  0.29524820756E+02 -0.20621398266E+02 -0.21707088327E+03  0.22003800915E+03  0.00000000000E+00 0. -1.
          1    1    1    2  502    0 -0.32570673790E+02  0.12374414939E+02  0.38728206603E+03  0.38884620816E+03  0.00000000000E+00 0. -1.
         22    1    3    3    0    0  0.41836112230E+02  0.15449920739E+02  0.35159554898E+02  0.56790444953E+02  0.00000000000E+00 0. -1.
         22    1    3    3    0    0 -0.38790259197E+02 -0.72029374109E+01  0.27355736358E+03  0.27638776689E+03  0.00000000000E+00 0. -1.
</event>
<event>
 7    1  0.6235964E-006  0.8555238E+02  0.7818608E-02  0.1336293E+00
          2   -1    0    0  502    0  0.00000000000E+00  0.00000000000E+00  0.20911507004E+04  0.20911507004E+04  0.00000000000E+00 0. -1.
          1   -1    0    0  501    0 -0.00000000000E+00 -0.00000000000E+00 -0.22895314181E+02  0.22895314181E+02  0.00000000000E+00 0. -1.
         25    2    1    2    0    0  0.43161751192E+02  0.61315603494E+02  0.11218026916E+04  0.11312339809E+04  0.12500600267E+03 0.  0.
          2    1    1    2  501    0  0.56172043406E+02 -0.42120246506E+02  0.65340068969E+02  0.95910052857E+02  0.00000000000E+00 0. -1.
          1    1    1    2  502    0 -0.99333794598E+02 -0.19195356988E+02  0.88111262562E+03  0.88690198077E+03  0.00000000000E+00 0. -1.
         22    1    3    3    0    0  0.14360421275E+02 -0.28748387939E+02  0.60495266735E+03  0.60580559691E+03  0.00000000000E+00 0. -1.
         22    1    3    3    0    0  0.28801329917E+02  0.90063991433E+02  0.51685002428E+03  0.52542838404E+03  0.00000000000E+00 0. -1.
</event>
<event>
 7    1  0.6235964E-006  0.8673790E+02  0.7818608E-02  0.1472931E+00
          2   -1    0    0  502    0  0.00000000000E+00  0.00000000000E+00  0.10034709911E+04  0.10034709911E+04  0.00000000000E+00 0. -1.
          1   -1    0    0  501    0 -0.00000000000E+00 -0.00000000000E+00 -0.17105599539E+03  0.17105599539E+03  0.00000000000E+00 0. -1.
         25    2    1    2    0    0 -0.46213137201E+02  0.59088420989E+02  0.22932600032E+03  0.27174007721E+03  0.12500063838E+03 0.  0.
          2    1    1    2  501    0  0.69135233796E+02 -0.53548609041E+02 -0.13688704042E+03  0.16243520528E+03  0.00000000000E+00 0. -1.
          1    1    1    2  502    0 -0.22922096595E+02 -0.55398119475E+01  0.73997603584E+03  0.74035170402E+03  0.00000000000E+00 0. -1.
         22    1    3    3    0    0  0.12148175905E+02 -0.24656560405E+02  0.11603900209E+03  0.11925004887E+03  0.00000000000E+00 0.  1.
         22    1    3    3    0    0 -0.58361313106E+02  0.83744981393E+02  0.11328699823E+03  0.15249002834E+03  0.00000000000E+00 0.  1.
</event>
<event>
 7    1  0.6235964E-006  0.9423484E+02  0.7818608E-02  0.1299339E+00
          2   -1    0    0  502    0  0.00000000000E+00  0.00000000000E+00  0.87394221737E+03  0.87394221737E+03  0.00000000000E+00 0. -1.
          1   -1    0    0  501    0 -0.00000000000E+00 -0.00000000000E+00 -0.64147557872E+03  0.64147557872E+03  0.00000000000E+00 0. -1.
         25    2    1    2    0    0 -0.26553724489E+02 -0.29559645928E+02  0.12252493523E+03  0.17948927219E+03  0.12500066451E+03 0.  0.
          2    1    1    2  501    0  0.90855496915E+02 -0.31653048800E+02 -0.60646131528E+03  0.61404557139E+03  0.00000000000E+00 0. -1.
          1    1    1    2  502    0 -0.64301772426E+02  0.61212694729E+02  0.71640301869E+03  0.72188295251E+03  0.00000000000E+00 0. -1.
         22    1    3    3    0    0 -0.64143346904E+02 -0.94345250885E+01  0.12046263972E+03  0.13680141368E+03  0.00000000000E+00 0.  1.
         22    1    3    3    0    0  0.37589622415E+02 -0.20125120840E+02  0.20622955136E+01  0.42687858519E+02  0.00000000000E+00 0.  1.
</event>
<event>
 7    1  0.6235964E-006  0.9380959E+02  0.7818608E-02  0.1383063E+00
          2   -1    0    0  502    0  0.00000000000E+00  0.00000000000E+00  0.29832316656E+03  0.29832316656E+03  0.00000000000E+00 0. -1.
          1   -1    0    0  501    0 -0.00000000000E+00 -0.00000000000E+00 -0.26656928422E+04  0.26656928422E+04  0.00000000000E+00 0. -1.
         25    2    1    2    0    0 -0.52677094291E+00  0.79296538019E+02 -0.46488974253E+03  0.48788843062E+03  0.12499771836E+03 0.  0.
          2    1    1    2  501    0  0.43285081806E+02 -0.85510888471E+02 -0.21866208541E+04  0.21887202813E+04  0.00000000000E+00 0. -1.
          1    1    1    2  502    0 -0.42758310863E+02  0.62143504526E+01  0.28414092096E+03  0.28740729682E+03  0.00000000000E+00 0. -1.
         22    1    3    3    0    0  0.37317813833E+02  0.33367670976E+02 -0.57770361392E+02  0.76442366205E+02  0.00000000000E+00 0.  1.
         22    1    3    3    0    0 -0.37844584776E+02  0.45928867042E+02 -0.40711938114E+03  0.41144606442E+03  0.00000000000E+00 0.  1.
</event>
<event>
 7    1  0.6235964E-006  0.7604569E+02  0.7818608E-02  0.1384104E+00
          2   -1    0    0  502    0  0.00000000000E+00  0.00000000000E+00  0.11861427219E+04  0.11861427219E+04  0.00000000000E+00 0. -1.
          1   -1    0    0  501    0 -0.00000000000E+00 -0.00000000000E+00 -0.63826811953E+03  0.63826811953E+03  0.00000000000E+00 0. -1.
         25    2    1    2    0    0  0.29365227530E+02  0.13174216054E+02  0.25076036415E+03  0.28202883046E+03  0.12499449757E+03 0.  0.
          2    1    1    2  501    0  0.27145906819E+02  0.45348500428E+02 -0.61970785337E+03  0.62195756309E+03  0.00000000000E+00 0. -1.
          1    1    1    2  502    0 -0.56511134349E+02 -0.58522716482E+02  0.91682209160E+03  0.92042444790E+03  0.00000000000E+00 0. -1.
         22    1    3    3    0    0  0.33075943519E+02 -0.31360851244E+01  0.26054186528E+03  0.26265170214E+03  0.00000000000E+00 0. -1.
         22    1    3    3    0    0 -0.37107159887E+01  0.16310301179E+02 -0.97815011283E+01  0.19377128322E+02  0.00000000000E+00 0. -1.
</event>
<event>
 7    1  0.6235964E-006  0.9081864E+02  0.7818608E-02  0.1350097E+00
          2   -1    0    0  502    0  0.00000000000E+00  0.00000000000E+00  0.21104881321E+03  0.21104881321E+03  0.00000000000E+00 0. -1.
          1   -1    0    0  501    0 -0.00000000000E+00 -0.00000000000E+00 -0.28660042108E+03  0.28660042108E+03  0.00000000000E+00 0. -1.
         25    2    1    2    0    0 -0.10367139694E+03 -0.97330505636E+02  0.73305386869E+02  0.20302812502E+03  0.12500301569E+03 0.  0.
          2    1    1    2  501    0  0.74133949486E+02  0.46582127202E+02 -0.19899796172E+03  0.21740728095E+03  0.00000000000E+00 0. -1.
          1    1    1    2  502    0  0.29537447454E+02  0.50748378433E+02  0.50140966973E+02  0.77213828326E+02  0.00000000000E+00 0. -1.
         22    1    3    3    0    0  0.27109103585E+02 -0.16978493203E+02  0.29234582242E+02  0.43333976594E+02  0.00000000000E+00 0.  1.
         22    1    3    3    0    0 -0.13078050052E+03 -0.80352012433E+02  0.44070804627E+02  0.15969414842E+03  0.00000000000E+00 0.  1.
</event>
<event>
 7    1  0.6235964E-006  0.9455653E+02  0.7818608E-02  0.1326530E+00
          2   -1    0    0  502    0  0.00000000000E+00  0.00000000000E+00  0.88727698097E+03  0.88727698097E+03  0.00000000000E+00 0. -1.
          1   -1    0    0  501    0 -0.00000000000E+00 -0.00000000000E+00 -0.33942396107E+03  0.33942396107E+03  0.00000000000E+00 0. -1.
         25    2    1    2    0    0  0.76705200266E+02  0.33022289184E+02 -0.33096390654E+02  0.15392950867E+03  0.12499905293E+03 0.  0.
          2    1    1    2  501    0  0.12208485643E+02 -0.68122063451E+02 -0.23820673915E+03  0.24805667342E+03  0.00000000000E+00 0. -1.
          1    1    1    2  502    0 -0.88913685909E+02  0.35099774268E+02  0.81915614970E+03  0.82471475996E+03  0.00000000000E+00 0. -1.
         22    1    3    3    0    0  0.61795152754E+02  0.66391180009E+02  0.16634838657E+02  0.92212512948E+02  0.00000000000E+00 0.  1.
         22    1    3    3    0    0  0.14910047512E+02 -0.33368890826E+02 -0.49731229310E+02  0.61716995718E+02  0.00000000000E+00 0.  1.
</event>
<event>
 7    1  0.6235964E-006  0.1916329E+03  0.7818608E-02  0.1271478E+00
          2   -1    0    0  502    0  0.00000000000E+00  0.00000000000E+00  0.13413929937E+03  0.13413929937E+03  0.00000000000E+00 0. -1.
          1   -1    0    0  501    0 -0.00000000000E+00 -0.00000000000E+00 -0.17264063763E+04  0.17264063763E+04  0.00000000000E+00 0. -1.
         25    2    1    2    0    0  0.64390879509E+02 -0.17545397326E+03 -0.41616160014E+03  0.47301742429E+03  0.12499889662E+03 0.  0.
          2    1    1    2  501    0 -0.53776999560E+02 -0.18226761437E+02 -0.11915878782E+04  0.11929400036E+04  0.00000000000E+00 0. -1.
          1    1    1    2  502    0 -0.10613879948E+02  0.19368073470E+03  0.15482401430E+02  0.19458824783E+03  0.00000000000E+00 0. -1.
         22    1    3    3    0    0  0.83822681635E+02 -0.49496306344E+02 -0.18523351588E+03  0.20925482480E+03  0.00000000000E+00 0.  1.
         22    1    3    3    0    0 -0.19431802126E+02 -0.12595766692E+03 -0.23092808426E+03  0.26376259949E+03  0.00000000000E+00 0.  1.
</event>
<event>
 7    1  0.6235964E-006  0.1142982E+03  0.7818608E-02  0.1391653E+00
          2   -1    0    0  502    0  0.00000000000E+00  0.00000000000E+00  0.10970598977E+04  0.10970598977E+04  0.00000000000E+00 0. -1.
          1   -1    0    0  501    0 -0.00000000000E+00 -0.00000000000E+00 -0.71912960511E+03  0.71912960511E+03  0.00000000000E+00 0. -1.
         25    2    1    2    0    0  0.13055111191E+03 -0.14210657800E+02  0.39711380949E+03  0.43654320518E+03  0.12500022673E+03 0.  0.
          2    1    1    2  501    0 -0.20253456578E+02  0.26165351042E+02 -0.69449476027E+03  0.69528253260E+03  0.00000000000E+00 0. -1.
          1    1    1    2  502    0 -0.11029765534E+03 -0.11954693242E+02  0.67531124333E+03  0.68436376499E+03  0.00000000000E+00 0. -1.
         22    1    3    3    0    0 -0.13237122219E+02 -0.33678960091E+02  0.77017887296E+02  0.85095527033E+02  0.00000000000E+00 0.  1.
         22    1    3    3    0    0  0.14378823413E+03  0.19468302292E+02  0.32009592219E+03  0.35144767815E+03  0.00000000000E+00 0.  1.
</event>
<event>
 7    1  0.6235964E-006  0.1085870E+03  0.7818608E-02  0.1294200E+00
          2   -1    0    0  502    0  0.00000000000E+00  0.00000000000E+00  0.27958176472E+03  0.27958176472E+03  0.00000000000E+00 0. -1.
          1   -1    0    0  501    0 -0.00000000000E+00 -0.00000000000E+00 -0.37540912090E+03  0.37540912090E+03  0.00000000000E+00 0. -1.
         25    2    1    2    0    0  0.65405634746E+00  0.18582876631E+03 -0.26505629924E+03  0.34700413835E+03  0.12499708831E+03 0.  0.
          2    1    1    2  501    0 -0.48660152036E+01 -0.80655339344E+02 -0.27096941150E+02  0.85224445368E+02  0.00000000000E+00 0. -1.
          1    1    1    2  502    0  0.42119588562E+01 -0.10517342697E+03  0.19632588421E+03  0.22276230190E+03  0.00000000000E+00 0. -1.
         22    1    3    3    0    0 -0.12066069732E+02  0.12676321343E+03 -0.75465607769E+02  0.14801878352E+03  0.00000000000E+00 0. -1.
         22    1    3    3    0    0  0.12720126080E+02  0.59065552880E+02 -0.18959069147E+03  0.19898535483E+03  0.00000000000E+00 0. -1.
</event>
<event>
 7    1  0.6235964E-006  0.4491775E+02  0.7818608E-02  0.1500541E+00
          2   -1    0    0  502    0  0.00000000000E+00  0.00000000000E+00  0.26636509758E+04  0.26636509758E+04  0.00000000000E+00 0. -1.
          1   -1    0    0  501    0 -0.00000000000E+00 -0.00000000000E+00 -0.86061234868E+01  0.86061234868E+01  0.00000000000E+00 0. -1.
         25    2    1    2    0    0 -0.92992916772E+01  0.88735921183E+01  0.93088878681E+03  0.93933260838E+03  0.12500639300E+03 0.  0.
          2    1    1    2  501    0  0.41759028870E+02 -0.27724808179E+02  0.14679588161E+03  0.15511773702E+03  0.00000000000E+00 0. -1.
          1    1    1    2  502    0 -0.32459737192E+02  0.18851216060E+02  0.15773601839E+04  0.15778067539E+04  0.00000000000E+00 0. -1.
         22    1    3    3    0    0  0.32910242347E+02 -0.34292690305E+02  0.18512807823E+03  0.19113209570E+03  0.00000000000E+00 0.  1.
         22    1    3    3    0    0 -0.42209534024E+02  0.43166282423E+02  0.74576070858E+03  0.74820051268E+03  0.00000000000E+00 0.  1.
</event>
<event>
 7    1  0.6235964E-006  0.1250573E+03  0.7818608E-02  0.1282210E+00
          2   -1    0    0  502    0  0.00000000000E+00  0.00000000000E+00  0.35540453292E+03  0.35540453292E+03  0.00000000000E+00 0. -1.
          1   -1    0    0  501    0 -0.00000000000E+00 -0.00000000000E+00 -0.28518134196E+03  0.28518134196E+03  0.00000000000E+00 0. -1.
         25    2    1    2    0    0  0.88273737694E+02 -0.30668777591E+02 -0.69320134131E+02  0.17077233190E+03  0.12500032665E+03 0.  0.
          2    1    1    2  501    0 -0.15131691722E+03 -0.16144239544E+02 -0.12306921676E+03  0.19571274364E+03  0.00000000000E+00 0. -1.
          1    1    1    2  502    0  0.63043179528E+02  0.46813017135E+02  0.26261254185E+03  0.27410079934E+03  0.00000000000E+00 0. -1.
         22    1    3    3    0    0  0.61092472232E+02  0.29881650331E+02 -0.78394982499E+02  0.10378331499E+03  0.00000000000E+00 0. -1.
         22    1    3    3    0    0  0.27181265462E+02 -0.60550427922E+02  0.90748483685E+01  0.66989016910E+02  0.00000000000E+00 0. -1.
</event>
<event>
 7    1  0.6235964E-006  0.7920137E+02  0.7818608E-02  0.1347506E+00
          2   -1    0    0  502    0  0.00000000000E+00  0.00000000000E+00  0.16871554132E+04  0.16871554132E+04  0.00000000000E+00 0. -1.
          1   -1    0    0  501    0 -0.00000000000E+00 -0.00000000000E+00 -0.40270878418E+02  0.40270878418E+02  0.00000000000E+00 0. -1.
         25    2    1    2    0    0  0.46154315472E+02 -0.11165672991E+03  0.79047005032E+03  0.80936112189E+03  0.12500031603E+03 0.  0.
          2    1    1    2  501    0  0.13672393646E+02  0.67467490230E+02  0.11391291211E+02  0.69775053575E+02  0.00000000000E+00 0. -1.
          1    1    1    2  502    0 -0.59826709118E+02  0.44189239678E+02  0.84502319326E+03  0.84829011616E+03  0.00000000000E+00 0. -1.
         22    1    3    3    0    0  0.31476713269E+02 -0.10849376798E+03  0.33290939629E+03  0.35155418829E+03  0.00000000000E+00 0.  1.
         22    1    3    3    0    0  0.14677602203E+02 -0.31629619306E+01  0.45756065403E+03  0.45780693360E+03  0.00000000000E+00 0.  1.
</event>
<event>
 7    1  0.6235964E-006  0.7223068E+02  0.7818608E-02  0.1520528E+00
          2   -1    0    0  502    0  0.00000000000E+00  0.00000000000E+00  0.15173841401E+04  0.15173841401E+04  0.00000000000E+00 0. -1.
          1   -1    0    0  501    0 -0.00000000000E+00 -0.00000000000E+00 -0.71844507439E+03  0.71844507439E+03  0.00000000000E+00 0. -1.
         25    2    1    2    0    0 -0.30245952846E+02 -0.44041408625E+02  0.91908071966E+03  0.92907919475E+03  0.12499727007E+03 0.  0.
          2    1    1    2  501    0  0.48041693449E+02  0.53988598119E+02 -0.71143958589E+03  0.71510073235E+03  0.00000000000E+00 0. -1.
          1    1    1    2  502    0 -0.17795740603E+02 -0.99471894933E+01  0.59129793195E+03  0.59164928741E+03  0.00000000000E+00 0. -1.
         22    1    3    3    0    0 -0.18533092681E+02 -0.71218662619E+02  0.85858368692E+03  0.86173169889E+03  0.00000000000E+00 0. -1.
         22    1    3    3    0    0 -0.11712860165E+02  0.27177253993E+02  0.60497032747E+02  0.67347495864E+02  0.00000000000E+00 0. -1.
</event>
<event>
 7    1  0.6235964E-006  0.2114181E+03  0.7818608E-02  0.1256176E+00
          2   -1    0    0  502    0  0.00000000000E+00  0.00000000000E+00  0.23527783192E+03  0.23527783192E+03  0.00000000000E+00 0. -1.
          1   -1    0    0  501    0 -0.00000000000E+00 -0.00000000000E+00 -0.84259972841E+03  0.84259972841E+03  0.00000000000E+00 0. -1.
         25    2    1    2    0    0 -0.15688046178E+03  0.38953793512E+02 -0.27545677502E+03  0.34297144813E+03  0.12499640798E+03 0.  0.
          2    1    1    2  501    0 -0.58891183425E+02  0.10181221404E+02 -0.47016561699E+03  0.47394887504E+03  0.00000000000E+00 0. -1.
          1    1    1    2  502    0  0.21577164520E+03 -0.49135014916E+02  0.13830049553E+03  0.26095723716E+03  0.00000000000E+00 0. -1.
         22    1    3    3    0    0 -0.98061043766E+02  0.92939728455E+00 -0.56703149272E+02  0.11327876774E+03  0.00000000000E+00 0. -1.
         22    1    3    3    0    0 -0.58819418012E+02  0.38024396227E+02 -0.21875362575E+03  0.22969268039E+03  0.00000000000E+00 0. -1.
</event>
<event>
 7    1  0.6235964E-006  0.8640213E+02  0.7818608E-02  0.1376276E+00
          2   -1    0    0  502    0  0.00000000000E+00  0.00000000000E+00  0.32785822375E+04  0.32785822375E+04  0.00000000000E+00 0. -1.
          1   -1    0    0  501    0 -0.00000000000E+00 -0.00000000000E+00 -0.32136706891E+02  0.32136706891E+02  0.00000000000E+00 0. -1.
         25    2    1    2    0    0  0.61638260185E+02 -0.10635295200E+03  0.13143754994E+04  0.13260160440E+04  0.12500147978E+03 0.  0.
          2    1    1    2  501    0 -0.62948772207E+02  0.56787197034E+02  0.43141504889E+02  0.95123725292E+02  0.00000000000E+00 0. -1.
          1    1    1    2  502    0  0.13105120219E+01  0.49565754963E+02  0.18889285263E+04  0.18895791751E+04  0.00000000000E+00 0. -1.
         22    1    3    3    0    0  0.18290694305E+02 -0.12416710068E+03  0.83890876646E+03  0.84824521032E+03  0.00000000000E+00 0.  1.
         22    1    3    3    0    0  0.43347565880E+02  0.17814148679E+02  0.47546673294E+03  0.47777083366E+03  0.00000000000E+00 0.  1.
</event>
<event>
 7    1  0.6235964E-006  0.6809514E+02  0.7818608E-02  0.1467016E+00
          2   -1    0    0  502    0  0.00000000000E+00  0.00000000000E+00  0.18202603454E+03  0.18202603454E+03  0.00000000000E+00 0. -1.
          1   -1    0    0  501    0 -0.00000000000E+00 -0.00000000000E+00 -0.47715957617E+03  0.47715957617E+03  0.00000000000E+00 0. -1.
         25    2    1    2    0    0 -0.66376835688E+02 -0.50104574652E+02 -0.68249234625E+02  0.16491856906E+03  0.12499529462E+03 0.  0.
          2    1    1    2  501    0  0.64762379723E+02  0.18808011093E+02 -0.35552484112E+03  0.36186436653E+03  0.00000000000E+00 0. -1.
          1    1    1    2  502    0  0.16144559654E+01  0.31296563558E+02  0.12864053412E+03  0.13240267511E+03  0.00000000000E+00 0. -1.
         22    1    3    3    0    0 -0.23379741910E+02 -0.84541680439E+02 -0.16334080190E+02  0.89222812323E+02  0.00000000000E+00 0.  1.
         22    1    3    3    0    0 -0.42997093778E+02  0.34437105787E+02 -0.51915154435E+02  0.75695756739E+02  0.00000000000E+00 0.  1.
</event>
<event>
 7    1  0.6235964E-006  0.5543019E+02  0.7818608E-02  0.1462705E+00
          2   -1    0    0  502    0  0.00000000000E+00  0.00000000000E+00  0.37280803294E+04  0.37280803294E+04  0.00000000000E+00 0. -1.
          1   -1    0    0  501    0 -0.00000000000E+00 -0.00000000000E+00 -0.10686793329E+02  0.10686793329E+02  0.00000000000E+00 0. -1.
         25    2    1    2    0    0  0.13784858523E+02  0.17392638748E+02  0.44992202030E+03  0.46749049224E+03  0.12500003913E+03 0.  0.
          2    1    1    2  501    0 -0.27358782981E+02 -0.71135125875E+02  0.92023363743E+03  0.92338434934E+03  0.00000000000E+00 0. -1.
          1    1    1    2  502    0  0.13573924457E+02  0.53742487127E+02  0.23472378784E+04  0.23478922812E+04  0.00000000000E+00 0. -1.
         22    1    3    3    0    0 -0.12145660827E+02  0.56479430700E+02  0.10905835909E+03  0.12341462173E+03  0.00000000000E+00 0. -1.
         22    1    3    3    0    0  0.25930519350E+02 -0.39086791952E+02  0.34086366121E+03  0.34407587052E+03  0.00000000000E+00 0. -1.
</event>
<event>
 7    1  0.6235964E-006  0.5819763E+02  0.7818608E-02  0.1536650E+00
          2   -1    0    0  502    0  0.00000000000E+00  0.00000000000E+00  0.15002646582E+03  0.15002646582E+03  0.00000000000E+00 0. -1.
          1   -1    0    0  501    0 -0.00000000000E+00 -0.00000000000E+00 -0.10329128333E+04  0.10329128333E+04  0.00000000000E+00 0. -1.
         25    2    1    2    0    0  0.63483101071E+02  0.29583557923E+02 -0.28611481140E+03  0.31998824767E+03  0.12500200927E+03 0.  0.
          2    1    1    2  501    0 -0.59720416637E+01 -0.21947449795E+02 -0.72335155355E+03  0.72370907543E+03  0.00000000000E+00 0. -1.
          1    1    1    2  502    0 -0.57511059408E+02 -0.76361081286E+01  0.12657999752E+03  0.13924197598E+03  0.00000000000E+00 0. -1.
         22    1    3    3    0    0  0.50119540015E+02 -0.25330933195E+02 -0.24161361932E+03  0.24805395685E+03  0.00000000000E+00 0.  1.
         22    1    3    3    0    0  0.13363561056E+02  0.54914491118E+02 -0.44501192085E+02  0.71934290820E+02  0.00000000000E+00 0.  1.
</event>
<event>
 7    1  0.6235964E-006  0.4001299E+02  0.7818608E-02  0.1513152E+00
          2   -1    0    0  502    0  0.00000000000E+00  0.00000000000E+00  0.51575458001E+02  0.51575458001E+02  0.00000000000E+00 0. -1.
          1   -1    0    0  501    0 -0.00000000000E+00 -0.00000000000E+00 -0.83788915650E+03  0.83788915650E+03  0.00000000000E+00 0. -1.
         25    2    1    2    0    0  0.25208885992E+02  0.28811597753E+01 -0.74124945596E+02  0.14752325709E+03  0.12499925923E+03 0.  0.
          2    1    1    2  501    0  0.87305861184E+01 -0.37672848254E+02 -0.68531002057E+03  0.68640024105E+03  0.00000000000E+00 0. -1.
          1    1    1    2  502    0 -0.33939472110E+02  0.34791688479E+02 -0.26878732332E+02  0.55541116356E+02  0.00000000000E+00 0. -1.
         22    1    3    3    0    0 -0.16580207859E+02 -0.39393083781E+02  0.10591195652E+02  0.44032848735E+02  0.00000000000E+00 0.  1.
         22    1    3    3    0    0  0.41789093850E+02  0.42274243556E+02 -0.84716141248E+02  0.10349040835E+03  0.00000000000E+00 0.  1.
</event>
<event>
 7    1  0.6235964E-006  0.6946616E+02  0.7818608E-02  0.1404178E+00
          2   -1    0    0  502    0  0.00000000000E+00  0.00000000000E+00  0.11230685681E+04  0.11230685681E+04  0.00000000000E+00 0. -1.
          1   -1    0    0  501    0 -0.00000000000E+00 -0.00000000000E+00 -0.18425051911E+04  0.18425051911E+04  0.00000000000E+00 0. -1.
         25    2    1    2    0    0 -0.10018129110E+03 -0.48412528194E+02 -0.77293546403E+02  0.18433417203E+03  0.12499892275E+03 0.  0.
          2    1    1    2  501    0  0.68100566322E+02  0.10994467495E+02 -0.17104278929E+04  0.17118183731E+04  0.00000000000E+00 0. -1.
          1    1    1    2  502    0  0.32080724782E+02  0.37418060699E+02  0.10682848164E+04  0.10694212141E+04  0.00000000000E+00 0. -1.
         22    1    3    3    0    0 -0.38844653708E+02 -0.31979203435E+01 -0.97919372998E+02  0.10539135365E+03  0.00000000000E+00 0.  1.
         22    1    3    3    0    0 -0.61336637396E+02 -0.45214607851E+02  0.20625826595E+02  0.78942818374E+02  0.00000000000E+00 0.  1.
</event>
<event>
 7    1  0.6235964E-006  0.6114958E+02  0.7818608E-02  0.1476732E+00
          2   -1    0    0  502    0  0.00000000000E+00  0.00000000000E+00  0.66747993434E+02  0.66747993434E+02  0.00000000000E+00 0. -1.
          1   -1    0    0  501    0 -0.00000000000E+00 -0.00000000000E+00 -0.55172436312E+03  0.55172436312E+03  0.00000000000E+00 0. -1.
         25    2    1    2    0    0  0.21663504487E+02  0.45479515316E+02 -0.36403126949E+03  0.38817599473E+03  0.12499657584E+03 0.  0.
          2    1    1    2  501    0 -0.54170404796E+02 -0.43661154196E+02 -0.16293199065E+03  0.17716535417E+03  0.00000000000E+00 0. -1.
          1    1    1    2  502    0  0.32506900308E+02 -0.18183611206E+01  0.41986890456E+02  0.53131007660E+02  0.00000000000E+00 0. -1.
         22    1    3    3    0    0 -0.26463242891E+02  0.30400820905E+02 -0.31590069542E+03  0.31846155576E+03  0.00000000000E+00 0. -1.
         22    1    3    3    0    0  0.48126747379E+02  0.15078694412E+02 -0.48130574079E+02  0.69714438960E+02  0.00000000000E+00 0. -1.
</event>
<event>
 7    1  0.6235964E-006  0.8266186E+02  0.7818608E-02  0.1332944E+00
          2   -1    0    0  502    0  0.00000000000E+00  0.00000000000E+00  0.20513686188E+04  0.20513686188E+04  0.00000000000E+00 0. -1.
          1   -1    0    0  501    0 -0.00000000000E+00 -0.00000000000E+00 -0.20096337606E+04  0.20096337606E+04  0.00000000000E+00 0. -1.
         25    2    1    2    0    0 -0.26966134207E+02  0.90313701680E+01  0.53949132786E+03  0.55451335379E+03  0.12500171458E+03 0.  0.
          2    1    1    2  501    0  0.10738998813E+02 -0.82072097556E+02 -0.20003359971E+04  0.20020477659E+04  0.00000000000E+00 0. -1.
          1    1    1    2  502    0  0.16227135393E+02  0.73040727388E+02  0.15025795274E+04  0.15044412597E+04  0.00000000000E+00 0. -1.
         22    1    3    3    0    0 -0.37882351300E+02  0.41820198737E+02  0.10994904661E+03  0.12358314777E+03  0.00000000000E+00 0. -1.
         22    1    3    3    0    0  0.10916217093E+02 -0.32788828569E+02  0.42954228125E+03  0.43093020602E+03  0.00000000000E+00 0. -1.
</event>
<event>
 7    1  0.6235964E-006  0.1365368E+03  0.7818608E-02  0.1370828E+00
          2   -1    0    0  502    0  0.00000000000E+00  0.00000000000E+00  0.12218595228E+04  0.12218595228E+04  0.00000000000E+00 0. -1.
          1   -1    0    0  501    0 -0.00000000000E+00 -0.00000000000E+00 -0.66676432540E+02  0.66676432540E+02  0.00000000000E+00 0. -1.
         25    2    1    2    0    0 -0.81281643788E+02  0.98992598331E+02  0.11709761121E+03  0.21387815672E+03  0.12500310088E+03 0.  0.
          2    1    1    2  501    0  0.80558220200E+02 -0.13180101577E+03  0.31508210307E+03  0.35091005439E+03  0.00000000000E+00 0. -1.
          1    1    1    2  502    0  0.72342358784E+00  0.32808417437E+02  0.72300337597E+03  0.72374774422E+03  0.00000000000E+00 0. -1.
         22    1    3    3    0    0 -0.49774557914E+02  0.70095282686E+02 -0.33835161167E+01  0.86036640169E+02  0.00000000000E+00 0. -1.
         22    1    3    3    0    0 -0.31507085875E+02  0.28897315645E+02  0.12048112732E+03  0.12784151655E+03  0.00000000000E+00 0. -1.
</event>
<event>
 7    1  0.6235964E-006  0.5019777E+02  0.7818608E-02  0.1476283E+00
          2   -1    0    0  502    0  0.00000000000E+00  0.00000000000E+00  0.18588778633E+04  0.18588778633E+04  0.00000000000E+00 0. -1.
          1   -1    0    0  501    0 -0.00000000000E+00 -0.00000000000E+00 -0.10006386826E+04  0.10006386826E+04  0.00000000000E+00 0. -1.
         25    2    1    2    0    0  0.74166534361E+02  0.48661667062E+02  0.42436399617E+03  0.45119624780E+03  0.12499848051E+03 0.  0.
          2    1    1    2  501    0 -0.34192297360E+02 -0.20345170958E+02 -0.98639921676E+03  0.98720132395E+03  0.00000000000E+00 0. -1.
          1    1    1    2  502    0 -0.39974237001E+02 -0.28316496104E+02  0.14202744013E+04  0.14211189741E+04  0.00000000000E+00 0. -1.
         22    1    3    3    0    0  0.20554159937E+02 -0.35961037640E+02  0.21681546493E+03  0.22073652971E+03  0.00000000000E+00 0.  1.
         22    1    3    3    0    0  0.53612374424E+02  0.84622704701E+02  0.20754853124E+03  0.23045971809E+03  0.00000000000E+00 0.  1.
</event>
<event>
 7    1  0.6235964E-006  0.6131368E+02  0.7818608E-02  0.1501666E+00
          2   -1    0    0  502    0  0.00000000000E+00  0.00000000000E+00  0.76465565200E+03  0.76465565200E+03  0.00000000000E+00 0. -1.
          1   -1    0    0  501    0 -0.00000000000E+00 -0.00000000000E+00 -0.54714746993E+03  0.54714746993E+03  0.00000000000E+00 0. -1.
         25    2    1    2    0    0 -0.33848781387E+02  0.72694073126E+02 -0.18017328483E+03  0.23348840040E+03  0.12499700910E+03 0.  0.
          2    1    1    2  501    0  0.24403272221E+02 -0.12210267359E+02 -0.33849714988E+03  0.33959524555E+03  0.00000000000E+00 0. -1.
          1    1    1    2  502    0  0.94455091650E+01 -0.60483805766E+02  0.73617861678E+03  0.73871947599E+03  0.00000000000E+00 0. -1.
         22    1    3    3    0    0 -0.68665732663E+02  0.13618120215E+02 -0.48922218118E+02  0.85403860954E+02  0.00000000000E+00 0.  1.
         22    1    3    3    0    0  0.34816951276E+02  0.59075952911E+02 -0.13125106671E+03  0.14808453944E+03  0.00000000000E+00 0.  1.
</event>
<event>
 7    1  0.6235964E-006  0.2752574E+03  0.7818608E-02  0.1117529E+00
          2   -1    0    0  502    0  0.00000000000E+00  0.00000000000E+00  0.16996779706E+04  0.16996779706E+04  0.00000000000E+00 0. -1.
          1   -1    0    0  501    0 -0.00000000000E+00 -0.00000000000E+00 -0.79260435885E+03  0.79260435885E+03  0.00000000000E+00 0. -1.
         25    2    1    2    0    0  0.23115747390E+03 -0.38300792223E+03 -0.40532753149E+02  0.46625954567E+03  0.12500485438E+03 0.  0.
          2    1    1    2  501    0 -0.22974578813E+02  0.21405346186E+03 -0.50495093306E+03  0.54892819258E+03  0.00000000000E+00 0. -1.
          1    1    1    2  502    0 -0.20818289508E+03  0.16895446037E+03  0.14525572979E+04  0.14770945912E+04  0.00000000000E+00 0. -1.
         22    1    3    3    0    0  0.10486214178E+03 -0.23177668504E+03  0.31791993011E+02  0.25637322662E+03  0.00000000000E+00 0.  1.
         22    1    3    3    0    0  0.12629533211E+03 -0.15123123719E+03 -0.72324746160E+02  0.20988631905E+03  0.00000000000E+00 0.  1.
</event>
<event>
 7    1  0.6235964E-006  0.3716576E+02  0.7818608E-02  0.1575959E+00
          2   -1    0    0  502    0  0.00000000000E+00  0.00000000000E+00  0.18360754979E+04  0.18360754979E+04  0.00000000000E+00 0. -1.
          1   -1    0    0  501    0 -0.00000000000E+00 -0.00000000000E+00 -0.60216661191E+02  0.60216661191E+02  0.00000000000E+00 0. -1.
         25    2    1    2    0    0  0.59388927915E+02  0.36730777218E+01  0.12027821874E+03  0.18336979131E+03  0.12496837281E+03 0.  0.
          2    1    1    2  501    0 -0.34614224172E+02  0.87769617730E+01 -0.17392148949E+02  0.39719849170E+02  0.00000000000E+00 0. -1.
          1    1    1    2  502    0 -0.24774703743E+02 -0.12450039495E+02  0.16729727669E+04  0.16732025186E+04  0.00000000000E+00 0. -1.
         22    1    3    3    0    0  0.22168792099E+02 -0.57770157743E+02  0.32340077350E+02  0.69819245712E+02  0.00000000000E+00 0. -1.
         22    1    3    3    0    0  0.37220135816E+02  0.61443235465E+02  0.87938141386E+02  0.11355054560E+03  0.00000000000E+00 0. -1.
</event>
<event>
 7    1  0.6235964E-006  0.2502108E+03  0.7818608E-02  0.1253976E+00
          2   -1    0    0  502    0  0.00000000000E+00  0.00000000000E+00  0.72628406602E+03  0.72628406602E+03  0.00000000000E+00 0. -1.
          1   -1    0    0  501    0 -0.00000000000E+00 -0.00000000000E+00 -0.22644628742E+03  0.22644628742E+03  0.00000000000E+00 0. -1.
         25    2    1    2    0    0 -0.12419246470E+02 -0.27854083603E+03  0.34630139558E+03  0.46183211217E+03  0.12500003291E+03 0.  0.
          2    1    1    2  501    0 -0.25084153818E+02  0.24308298543E+03 -0.75773522100E+02  0.25585186970E+03  0.00000000000E+00 0. -1.
          1    1    1    2  502    0  0.37503400288E+02  0.35457850603E+02  0.22930990511E+03  0.23504637157E+03  0.00000000000E+00 0. -1.
         22    1    3    3    0    0 -0.54010718659E+02 -0.22482610986E+03  0.30347679401E+03  0.38152601734E+03  0.00000000000E+00 0. -1.
         22    1    3    3    0    0  0.41591472189E+02 -0.53714726174E+02  0.42824601571E+02  0.80306094828E+02  0.00000000000E+00 0. -1.
</event>
<event>
 7    1  0.6235964E-006  0.8788114E+02  0.7818608E-02  0.1332545E+00
          2   -1    0    0  502    0  0.00000000000E+00  0.00000000000E+00  0.41439254246E+03  0.41439254246E+03  0.00000000000E+00 0. -1.
          1   -1    0    0  501    0 -0.00000000000E+00 -0.00000000000E+00 -0.70290536738E+03  0.70290536738E+03  0.00000000000E+00 0. -1.
         25    2    1    2    0    0 -0.27158774205E+02 -0.21323832090E+02 -0.80321949857E+02  0.15254162775E+03  0.12500011095E+03 0.  0.
          2    1    1    2  501    0  0.21732505859E+02  0.91739090491E+02 -0.57933318612E+03  0.58695425978E+03  0.00000000000E+00 0. -1.
          1    1    1    2  502    0  0.54262683465E+01 -0.70415258401E+02  0.37114231105E+03  0.37780202230E+03  0.00000000000E+00 0. -1.
         22    1    3    3    0    0  0.36827016511E+01 -0.69405976206E+02 -0.27523299312E+02  0.74754824792E+02  0.00000000000E+00 0. -1.
         22    1    3    3    0    0 -0.30841475856E+02  0.48082144116E+02 -0.52798650545E+02  0.77786802963E+02  0.00000000000E+00 0. -1.
</event>
<event>
 7    1  0.6235964E-006  0.4742569E+02  0.7818608E-02  0.1554687E+00
          2   -1    0    0  502    0  0.00000000000E+00  0.00000000000E+00  0.16941383529E+03  0.16941383529E+03  0.00000000000E+00 0. -1.
          1   -1    0    0  501    0 -0.00000000000E+00 -0.00000000000E+00 -0.11027262849E+04  0.11027262849E+04  0.00000000000E+00 0. -1.
         25    2    1    2    0    0  0.48124856517E+02 -0.47321673087E+02 -0.86749803293E+02  0.16645571894E+03  0.12500654159E+03 0.  0.
          2    1    1    2  501    0 -0.23725395827E+02  0.73630069500E+01 -0.97172986839E+03  0.97204734730E+03  0.00000000000E+00 0. -1.
          1    1    1    2  502    0 -0.24399460690E+02  0.39958666137E+02  0.12516722212E+03  0.13363705390E+03  0.00000000000E+00 0. -1.
         22    1    3    3    0    0 -0.34255319473E+02 -0.42743011194E+02 -0.56189078949E+02  0.78470405321E+02  0.00000000000E+00 0.  1.
         22    1    3    3    0    0  0.82380175990E+02 -0.45786618934E+01 -0.30560724344E+02  0.87985313623E+02  0.00000000000E+00 0.  1.
</event>
<event>
 7    1  0.6235964E-006  0.5205688E+02  0.7818608E-02  0.1511683E+00
          2   -1    0    0  502    0  0.00000000000E+00  0.00000000000E+00  0.57218096814E+03  0.57218096814E+03  0.00000000000E+00 0. -1.
          1   -1    0    0  501    0 -0.00000000000E+00 -0.00000000000E+00 -0.16229248148E+04  0.16229248148E+04  0.00000000000E+00 0. -1.
         25    2    1    2    0    0  0.24390756487E+02 -0.75109618110E+02  0.19832262736E+03  0.24737331356E+03  0.12500131200E+03 0.  0.
          2    1    1    2  501    0 -0.27468403493E+01  0.29894873747E+02 -0.15964593178E+04  0.15967415577E+04  0.00000000000E+00 0. -1.
          1    1    1    2  502    0 -0.21643916138E+02  0.45214744362E+02  0.34739284377E+03  0.35099091173E+03  0.00000000000E+00 0. -1.
         22    1    3    3    0    0 -0.26066964725E+02 -0.84783772391E+02  0.84565542609E+02  0.12255246104E+03  0.00000000000E+00 0. -1.
         22    1    3    3    0    0  0.50457721212E+02  0.96741542811E+01  0.11375708475E+03  0.12482085252E+03  0.00000000000E+00 0. -1.
</event>
<event>
 7    1  0.6235964E-006  0.3838805E+02  0.7818608E-02  0.1598142E+00
          2   -1    0    0  502    0  0.00000000000E+00  0.00000000000E+00  0.41229058850E+02  0.41229058850E+02  0.00000000000E+00 0. -1.
          1   -1    0    0  501    0 -0.00000000000E+00 -0.00000000000E+00 -0.14533162321E+04  0.14533162321E+04  0.00000000000E+00 0. -1.
         25    2    1    2    0    0 -0.13339559122E+02 -0.87268898432E+01 -0.10595802815E+04  0.10670496675E+04  0.12502206831E+03 0.  0.
          2    1    1    2  501    0 -0.23080382242E+02 -0.40743948798E+01 -0.37960640166E+03  0.38032923227E+03  0.00000000000E+00 0. -1.
          1    1    1    2  502    0  0.36419941363E+02  0.12801284723E+02  0.27099509899E+02  0.47166391172E+02  0.00000000000E+00 0. -1.
         22    1    3    3    0    0 -0.32945901022E+01 -0.66470239876E+02 -0.50042026600E+03  0.50482629660E+03  0.00000000000E+00 0. -1.
         22    1    3    3    0    0 -0.10044969020E+02  0.57743350033E+02 -0.55916001548E+03  0.56222337090E+03  0.00000000000E+00 0. -1.
</event>
<event>
 7    1  0.6235964E-006  0.5975334E+02  0.7818608E-02  0.1459236E+00
          2   -1    0    0  502    0  0.00000000000E+00  0.00000000000E+00  0.18983059401E+04  0.18983059401E+04  0.00000000000E+00 0. -1.
          1   -1    0    0  501    0 -0.00000000000E+00 -0.00000000000E+00 -0.17839392607E+02  0.17839392607E+02  0.00000000000E+00 0. -1.
         25    2    1    2    0    0  0.27158291608E+02 -0.82993917005E+02  0.35598841538E+03  0.38726887425E+03  0.12499546397E+03 0.  0.
          2    1    1    2  501    0  0.90475409823E+01  0.36680860363E+02  0.23149158862E+03  0.23455425623E+03  0.00000000000E+00 0. -1.
          1    1    1    2  502    0 -0.36205832590E+02  0.46313056642E+02  0.12929865435E+04  0.12943222023E+04  0.00000000000E+00 0. -1.
         22    1    3    3    0    0 -0.27172330940E+02  0.19159904995E+02  0.11879375543E+03  0.12335880130E+03  0.00000000000E+00 0.  1.
         22    1    3    3    0    0  0.54330622548E+02 -0.10215382200E+03  0.23719465995E+03  0.26391007295E+03  0.00000000000E+00 0.  1.
</event>
<event>
 7    1  0.6235964E-006  0.1138179E+03  0.7818608E-02  0.1328713E+00
          2   -1    0    0  502    0  0.00000000000E+00  0.00000000000E+00  0.45433236254E+03  0.45433236254E+03  0.00000000000E+00 0. -1.
          1   -1    0    0  501    0 -0.00000000000E+00 -0.00000000000E+00 -0.33839680683E+03  0.33839680683E+03  0.00000000000E+00 0. -1.
         25    2    1    2    0    0 -0.63246158813E+02 -0.55865577245E+02  0.63228602138E+02  0.16353359716E+03  0.12499736775E+03 0.  0.
          2    1    1    2  501    0 -0.52872765558E+02  0.19626692549E+02 -0.27443502641E+03  0.28017016279E+03  0.00000000000E+00 0. -1.
          1    1    1    2  502    0  0.11611892437E+03  0.36238884696E+02  0.32714197997E+03  0.34902540942E+03  0.00000000000E+00 0. -1.
         22    1    3    3    0    0  0.95070973749E+01  0.13335231850E+02 -0.24988564427E+02  0.29877109316E+02  0.00000000000E+00 0. -1.
         22    1    3    3    0    0 -0.72753256188E+02 -0.69200809095E+02  0.88217166564E+02  0.13365648784E+03  0.00000000000E+00 0. -1.
</event>
<event>
 7    1  0.6235964E-006  0.6770162E+02  0.7818608E-02  0.1422366E+00
          2   -1    0    0  502    0  0.00000000000E+00  0.00000000000E+00  0.13829221345E+04  0.13829221345E+04  0.00000000000E+00 0. -1.
          1   -1    0    0  501    0 -0.00000000000E+00 -0.00000000000E+00 -0.17080289413E+04  0.17080289413E+04  0.00000000000E+00 0. -1.
         25    2    1    2    0    0  0.38624818515E+02  0.27547031078E+02  0.35960703095E+03  0.38365674699E+03  0.12499826909E+03 0.  0.
          2    1    1    2  501    0 -0.67535022776E+02  0.55031889836E+01 -0.16948501491E+04  0.16962040833E+04  0.00000000000E+00 0. -1.
          1    1    1    2  502    0  0.28910204261E+02 -0.33050220062E+02  0.10101363114E+04  0.10110902455E+04  0.00000000000E+00 0. -1.
         22    1    3    3    0    0 -0.17187675935E+02 -0.29340910983E+02  0.32701766580E+02  0.47177439511E+02  0.00000000000E+00 0. -1.
         22    1    3    3    0    0  0.55812494450E+02  0.56887942061E+02  0.32690526437E+03  0.33647930748E+03  0.00000000000E+00 0. -1.
</event>
<event>
 7    1  0.6235964E-006  0.6760000E+02  0.7818608E-02  0.1473976E+00
          2   -1    0    0  502    0  0.00000000000E+00  0.00000000000E+00  0.41191703367E+02  0.41191703367E+02  0.00000000000E+00 0. -1.
          1   -1    0    0  501    0 -0.00000000000E+00 -0.00000000000E+00 -0.12881330429E+04  0.12881330429E+04  0.00000000000E+00 0. -1.
         25    2    1    2    0    0  0.85139876049E+02  0.31086959691E+02 -0.19552816149E+03  0.24914220506E+03  0.12500151539E+03 0.  0.
          2    1    1    2  501    0 -0.26977684223E+02 -0.13199804731E+02 -0.10001949380E+04  0.10006457637E+04  0.00000000000E+00 0. -1.
          1    1    1    2  502    0 -0.58162191826E+02 -0.17887154960E+02 -0.51218239999E+02  0.79536777526E+02  0.00000000000E+00 0. -1.
         22    1    3    3    0    0  0.11379338245E+03  0.90188312017E+01 -0.17040762123E+03  0.20510736354E+03  0.00000000000E+00 0.  1.
         22    1    3    3    0    0 -0.28653506405E+02  0.22068128490E+02 -0.25120540268E+02  0.44034841520E+02  0.00000000000E+00 0.  1.
</event>
<event>
 7    1  0.6235964E-006  0.1099516E+03  0.7818608E-02  0.1362778E+00
          2   -1    0    0  502    0  0.00000000000E+00  0.00000000000E+00  0.66163139259E+03  0.66163139259E+03  0.00000000000E+00 0. -1.
          1   -1    0    0  501    0 -0.00000000000E+00 -0.00000000000E+00 -0.18964259885E+04  0.18964259885E+04  0.00000000000E+00 0. -1.
         25    2    1    2    0    0  0.10823107240E+03  0.40420555540E+02 -0.33077030999E+03  0.37199722997E+03  0.12500061918E+03 0.  0.
          2    1    1    2  501    0 -0.27245813742E+02  0.34003991992E+02 -0.15400136679E+04  0.15406299695E+04  0.00000000000E+00 0. -1.
          1    1    1    2  502    0 -0.80985258657E+02 -0.74424547531E+02  0.63598938193E+03  0.64543018160E+03  0.00000000000E+00 0. -1.
         22    1    3    3    0    0  0.11539711914E+02 -0.20091413490E+02 -0.18721014902E+03  0.18863846306E+03  0.00000000000E+00 0. -1.
         22    1    3    3    0    0  0.96691360486E+02  0.60511969030E+02 -0.14356016097E+03  0.18335876692E+03  0.00000000000E+00 0. -1.
</event>
<event>
 7    1  0.6235964E-006  0.4510131E+02  0.7818608E-02  0.1594654E+00
          2   -1    0    0  502    0  0.00000000000E+00  0.00000000000E+00  0.16778747835E+04  0.16778747835E+04  0.00000000000E+00 0. -1.
          1   -1    0    0  501    0 -0.00000000000E+00 -0.00000000000E+00 -0.40937370842E+03  0.40937370842E+03  0.00000000000E+00 0. -1.
         25    2    1    2    0    0  0.42758207791E+02  0.21503787993E+02  0.22434984490E+03  0.26124457947E+03  0.12500080064E+03 0.  0.
          2    1    1    2  501    0 -0.27902323230E+02 -0.35446105726E+02 -0.38955234952E+03  0.39215558019E+03  0.00000000000E+00 0. -1.
          1    1    1    2  502    0 -0.14855884561E+02  0.13942317733E+02  0.14337035797E+04  0.14338483323E+04  0.00000000000E+00 0. -1.
         22    1    3    3    0    0  0.43752161544E+02 -0.26484242946E+02  0.26393819351E+02  0.57552588683E+02  0.00000000000E+00 0. -1.
         22    1    3    3    0    0 -0.99395375274E+00  0.47988030939E+02  0.19795602555E+03  0.20369199079E+03  0.00000000000E+00 0. -1.
</event>
<event>
 7    1  0.6235964E-006  0.7520122E+02  0.7818608E-02  0.1486319E+00
          2   -1    0    0  502    0  0.00000000000E+00  0.00000000000E+00  0.16801492013E+04  0.16801492013E+04  0.00000000000E+00 0. -1.
          1   -1    0    0  501    0 -0.00000000000E+00 -0.00000000000E+00 -0.83033140402E+02  0.83033140402E+02  0.00000000000E+00 0. -1.
         25    2    1    2    0    0 -0.56530097344E+02  0.53844948242E+02  0.17953987803E+03  0.23228036462E+03  0.12499867849E+03 0.  0.
          2    1    1    2  501    0  0.68148805377E+02 -0.31998116091E+02 -0.31502408295E+02  0.81612136574E+02  0.00000000000E+00 0. -1.
          1    1    1    2  502    0 -0.11618708033E+02 -0.21846832151E+02  0.14490785912E+04  0.14492898405E+04  0.00000000000E+00 0. -1.
         22    1    3    3    0    0  0.28537129860E+02  0.40633423847E+01  0.10450079215E+03  0.10840338598E+03  0.00000000000E+00 0. -1.
         22    1    3    3    0    0 -0.85067227205E+02  0.49781605858E+02  0.75039085887E+02  0.12387697864E+03  0.00000000000E+00 0. -1.
</event>
<event>
 7    1  0.6235964E-006  0.4002913E+02  0.7818608E-02  0.1527609E+00
          2   -1    0    0  502    0  0.00000000000E+00  0.00000000000E+00  0.11999936529E+02  0.11999936529E+02  0.00000000000E+00 0. -1.
          1   -1    0    0  501    0 -0.00000000000E+00 -0.00000000000E+00 -0.10166421960E+04  0.10166421960E+04  0.00000000000E+00 0. -1.
         25    2    1    2    0    0 -0.43578053180E+02  0.24396247341E+02 -0.78483117970E+03  0.79629081567E+03  0.12499943550E+03 0.  0.
          2    1    1    2  501    0  0.11198401046E+02 -0.37933609246E+02 -0.13159621896E+03  0.13741152696E+03  0.00000000000E+00 0. -1.
          1    1    1    2  502    0  0.32379652134E+02  0.13537361905E+02 -0.88214860778E+02  0.94939789877E+02  0.00000000000E+00 0. -1.
         22    1    3    3    0    0 -0.43507835096E+02 -0.34846947142E+01 -0.75179895793E+03  0.75306490288E+03  0.00000000000E+00 0. -1.
         22    1    3    3    0    0 -0.70218083493E-01  0.27880942055E+02 -0.33032221774E+02  0.43225912781E+02  0.00000000000E+00 0. -1.
</event>
<event>
 7    1  0.6235964E-006  0.1193893E+03  0.7818608E-02  0.1361609E+00
          2   -1    0    0  502    0  0.00000000000E+00  0.00000000000E+00  0.29979187952E+04  0.29979187952E+04  0.00000000000E+00 0. -1.
          1   -1    0    0  501    0 -0.00000000000E+00 -0.00000000000E+00 -0.28747867024E+03  0.28747867024E+03  0.00000000000E+00 0. -1.
         25    2    1    2    0    0 -0.14016709140E+03 -0.22121871174E+02  0.13845847732E+04  0.13974386458E+04  0.12499433607E+03 0.  0.
          2    1    1    2  501    0  0.11860251096E+03 -0.12187343865E+02 -0.26813807949E+03  0.29345036485E+03  0.00000000000E+00 0. -1.
          1    1    1    2  502    0  0.21564580433E+02  0.34309215039E+02  0.15939934313E+04  0.15945084548E+04  0.00000000000E+00 0. -1.
         22    1    3    3    0    0 -0.12005897336E+03  0.19154877028E+02  0.64036883005E+03  0.65180772080E+03  0.00000000000E+00 0. -1.
         22    1    3    3    0    0 -0.20108118041E+02 -0.41276748202E+02  0.74421594310E+03  0.74563092500E+03  0.00000000000E+00 0. -1.
</event>
<event>
 7    1  0.6235964E-006  0.6174002E+02  0.7818608E-02  0.1469914E+00
          2   -1    0    0  502    0  0.00000000000E+00  0.00000000000E+00  0.14306622894E+03  0.14306622894E+03  0.00000000000E+00 0. -1.
          1   -1    0    0  501    0 -0.00000000000E+00 -0.00000000000E+00 -0.18885405055E+03  0.18885405055E+03  0.00000000000E+00 0. -1.
         25    2    1    2    0    0 -0.20512492768E+02  0.48231755154E+02  0.36396190606E+02  0.14035010309E+03  0.12500561660E+03 0.  0.
          2    1    1    2  501    0 -0.33176943501E+02 -0.67286951529E+01 -0.11232619052E+03  0.11731648646E+03  0.00000000000E+00 0. -1.
          1    1    1    2  502    0  0.53689436269E+02 -0.41503060001E+02  0.30142178304E+02  0.74253689937E+02  0.00000000000E+00 0. -1.
         22    1    3    3    0    0  0.50258921259E+02  0.65801525642E+01  0.40194372118E+00  0.50689438078E+02  0.00000000000E+00 0. -1.
         22    1    3    3    0    0 -0.70771414027E+02  0.41651602589E+02  0.35994246885E+02  0.89660665012E+02  0.00000000000E+00 0. -1.
</event>
<event>
 7    1  0.6235964E-006  0.6998763E+02  0.7818608E-02  0.1482267E+00
          2   -1    0    0  502    0  0.00000000000E+00  0.00000000000E+00  0.22895067338E+03  0.22895067338E+03  0.00000000000E+00 0. -1.
          1   -1    0    0  501    0 -0.00000000000E+00 -0.00000000000E+00 -0.55381222415E+03  0.55381222415E+03  0.00000000000E+00 0. -1.
         25    2    1    2    0    0 -0.54629886666E+01 -0.79428859734E+02 -0.24271834290E+03  0.28438726115E+03  0.12500052929E+03 0.  0.
          2    1    1    2  501    0  0.27432728520E+02  0.63131188219E+02 -0.28524865655E+03  0.29343636037E+03  0.00000000000E+00 0. -1.
          1    1    1    2  502    0 -0.21969739853E+02  0.16297671515E+02  0.20310544868E+03  0.20493927601E+03  0.00000000000E+00 0. -1.
         22    1    3    3    0    0  0.16484419971E+01 -0.18179483287E+02  0.12305835473E+02  0.22014644224E+02  0.00000000000E+00 0. -1.
         22    1    3    3    0    0 -0.71114306637E+01 -0.61249376447E+02 -0.25502417837E+03  0.26237261693E+03  0.00000000000E+00 0. -1.
</event>
<event>
 7    1  0.6235964E-006  0.4821994E+02  0.7818608E-02  0.1468491E+00
          2   -1    0    0  502    0  0.00000000000E+00  0.00000000000E+00  0.30269236240E+03  0.30269236240E+03  0.00000000000E+00 0. -1.
          1   -1    0    0  501    0 -0.00000000000E+00 -0.00000000000E+00 -0.43318231855E+03  0.43318231855E+03  0.00000000000E+00 0. -1.
         25    2    1    2    0    0 -0.67286216476E+01 -0.24591764016E+02  0.22386886015E+01  0.12761165344E+03  0.12501877123E+03 0.  0.
          2    1    1    2  501    0 -0.36199605123E+02  0.33229723371E+02 -0.36682745363E+03  0.37010404843E+03  0.00000000000E+00 0. -1.
          1    1    1    2  502    0  0.42928226771E+02 -0.86379593550E+01  0.23409880888E+03  0.23815897908E+03  0.00000000000E+00 0. -1.
         22    1    3    3    0    0 -0.16230926897E+02  0.47557004836E+02  0.17586372839E+02  0.53239010195E+02  0.00000000000E+00 0.  1.
         22    1    3    3    0    0  0.95023052489E+01 -0.72148768852E+02 -0.15347684237E+02  0.74372643246E+02  0.00000000000E+00 0.  1.
</event>
<event>
 7    1  0.6235964E-006  0.9743603E+02  0.7818608E-02  0.1413327E+00
          2   -1    0    0  502    0  0.00000000000E+00  0.00000000000E+00  0.11563454291E+04  0.11563454291E+04  0.00000000000E+00 0. -1.
          1   -1    0    0  501    0 -0.00000000000E+00 -0.00000000000E+00 -0.11158194081E+04  0.11158194081E+04  0.00000000000E+00 0. -1.
         25    2    1    2    0    0  0.97053175098E+02 -0.50991489063E+02  0.18554400692E+03  0.24914111156E+03  0.12500105683E+03 0.  0.
          2    1    1    2  501    0 -0.95623303995E+02  0.18308809564E+02 -0.10815486034E+04  0.10859219172E+04  0.00000000000E+00 0. -1.
          1    1    1    2  502    0 -0.14298711029E+01  0.32682679499E+02  0.93653061748E+03  0.93710180852E+03  0.00000000000E+00 0. -1.
         22    1    3    3    0    0  0.11541748298E+03 -0.48555783316E+02  0.96216378546E+02  0.15791279546E+03  0.00000000000E+00 0.  1.
         22    1    3    3    0    0 -0.18364307877E+02 -0.24357057470E+01  0.89327628377E+02  0.91228316096E+02  0.00000000000E+00 0.  1.
</event>
<event>
 7    1  0.6235964E-006  0.7592715E+02  0.7818608E-02  0.1476793E+00
          2   -1    0    0  502    0  0.00000000000E+00  0.00000000000E+00  0.17247903029E+04  0.17247903029E+04  0.00000000000E+00 0. -1.
          1   -1    0    0  501    0 -0.00000000000E+00 -0.00000000000E+00 -0.12363859668E+03  0.12363859668E+03  0.00000000000E+00 0. -1.
         25    2    1    2    0    0 -0.77151039466E+02  0.68837894932E+01 -0.50485499231E+02  0.15548262269E+03  0.12500556339E+03 0.  0.
          2    1    1    2  501    0  0.69443560839E+02 -0.31934554670E+02  0.50535405831E+02  0.91629968714E+02  0.00000000000E+00 0. -1.
          1    1    1    2  502    0  0.77074786273E+01  0.25050765177E+02  0.16011017997E+04  0.16013163082E+04  0.00000000000E+00 0. -1.
         22    1    3    3    0    0 -0.70349440056E+01  0.53179138761E+02 -0.47112483226E+02  0.71393958514E+02  0.00000000000E+00 0. -1.
         22    1    3    3    0    0 -0.70116095461E+02 -0.46295349268E+02 -0.33730160050E+01  0.84088664179E+02  0.00000000000E+00 0. -1.
</event>
<event>
 7    1  0.6235964E-006  0.1501593E+03  0.7818608E-02  0.1400894E+00
          2   -1    0    0  502    0  0.00000000000E+00  0.00000000000E+00  0.92705341935E+02  0.92705341935E+02  0.00000000000E+00 0. -1.
          1   -1    0    0  501    0 -0.00000000000E+00 -0.00000000000E+00 -0.16202588166E+04  0.16202588166E+04  0.00000000000E+00 0. -1.
         25    2    1    2    0    0 -0.96784186508E+02  0.12964079427E+03 -0.25255984564E+03  0.32493959197E+03  0.12500139399E+03 0.  0.
          2    1    1    2  501    0 -0.38726490322E+01 -0.23077103914E+02 -0.12361598435E+04  0.12363812959E+04  0.00000000000E+00 0. -1.
          1    1    1    2  502    0  0.10065683554E+03 -0.10656369036E+03 -0.38833785513E+02  0.15164327067E+03  0.00000000000E+00 0. -1.
         22    1    3    3    0    0 -0.62030322014E+02  0.14001845394E+03 -0.24333452348E+03  0.28751455374E+03  0.00000000000E+00 0. -1.
         22    1    3    3    0    0 -0.34753864494E+02 -0.10377659669E+02 -0.92253221628E+01  0.37425038229E+02  0.00000000000E+00 0. -1.
</event>
<event>
 7    1  0.6235964E-006  0.6792886E+02  0.7818608E-02  0.1441627E+00
          2   -1    0    0  502    0  0.00000000000E+00  0.00000000000E+00  0.67279779349E+03  0.67279779349E+03  0.00000000000E+00 0. -1.
          1   -1    0    0  501    0 -0.00000000000E+00 -0.00000000000E+00 -0.43324639331E+03  0.43324639331E+03  0.00000000000E+00 0. -1.
         25    2    1    2    0    0  0.24790024603E+02 -0.77438872288E+02 -0.51561695943E+02  0.15778822903E+03  0.12500876958E+03 0.  0.
          2    1    1    2  501    0 -0.48031900417E+02  0.47585506711E+02 -0.32450625966E+03  0.33147512194E+03  0.00000000000E+00 0. -1.
          1    1    1    2  502    0  0.23241875815E+02  0.29853365577E+02  0.61561935579E+03  0.61678083583E+03  0.00000000000E+00 0. -1.
         22    1    3    3    0    0 -0.10163199738E+02 -0.16708894362E+02  0.38795054078E+02  0.43445759294E+02  0.00000000000E+00 0. -1.
         22    1    3    3    0    0  0.34953224341E+02 -0.60729977926E+02 -0.90356750021E+02  0.11434246974E+03  0.00000000000E+00 0. -1.
</event>
<event>
 7    1  0.6235964E-006  0.7016355E+02  0.7818608E-02  0.1404149E+00
          2   -1    0    0  502    0  0.00000000000E+00  0.00000000000E+00  0.44343755068E+03  0.44343755068E+03  0.00000000000E+00 0. -1.
          1   -1    0    0  501    0 -0.00000000000E+00 -0.00000000000E+00 -0.55097349690E+03  0.55097349690E+03  0.00000000000E+00 0. -1.
         25    2    1    2    0    0  0.71187834001E+01 -0.65594178125E+02 -0.12797210294E+01  0.14135269146E+03  0.12500268964E+03 0.  0.
          2    1    1    2  501    0 -0.48221462328E+02  0.75511940674E+01 -0.47500864825E+03  0.47750973380E+03  0.00000000000E+00 0. -1.
          1    1    1    2  502    0  0.41102678928E+02  0.58042984058E+02  0.36875242306E+03  0.37554862232E+03  0.00000000000E+00 0. -1.
         22    1    3    3    0    0  0.28282432744E+02 -0.79075100583E+01  0.52199285773E+02  0.59893156140E+02  0.00000000000E+00 0. -1.
         22    1    3    3    0    0 -0.21163649344E+02 -0.57686668067E+02 -0.53479006802E+02  0.81459535321E+02  0.00000000000E+00 0. -1.
</event>
<event>
 7    1  0.6235964E-006  0.8689158E+02  0.7818608E-02  0.1334175E+00
          2   -1    0    0  502    0  0.00000000000E+00  0.00000000000E+00  0.50860231017E+03  0.50860231017E+03  0.00000000000E+00 0. -1.
          1   -1    0    0  501    0 -0.00000000000E+00 -0.00000000000E+00 -0.77617002090E+03  0.77617002090E+03  0.00000000000E+00 0. -1.
         25    2    1    2    0    0  0.37856779422E+01  0.25448344367E+02 -0.65936261138E+02  0.14364721162E+03  0.12499992513E+03 0.  0.
          2    1    1    2  501    0 -0.45188332750E+02  0.54005139117E+02 -0.66523104216E+03  0.66894759131E+03  0.00000000000E+00 0. -1.
          1    1    1    2  502    0  0.41402654808E+02 -0.79453483484E+02  0.46359959256E+03  0.47217752815E+03  0.00000000000E+00 0. -1.
         22    1    3    3    0    0 -0.56322744417E+02  0.24184954047E+02 -0.11138073655E+02  0.62299440011E+02  0.00000000000E+00 0.  1.
         22    1    3    3    0    0  0.60108422359E+02  0.12633903197E+01 -0.54798187484E+02  0.81347771605E+02  0.00000000000E+00 0.  1.
</event>
<event>
 7    1  0.6235964E-006  0.3469559E+02  0.7818608E-02  0.1581362E+00
          2   -1    0    0  502    0  0.00000000000E+00  0.00000000000E+00  0.18781662737E+04  0.18781662737E+04  0.00000000000E+00 0. -1.
          1   -1    0    0  501    0 -0.00000000000E+00 -0.00000000000E+00 -0.14834185716E+03  0.14834185716E+03  0.00000000000E+00 0. -1.
         25    2    1    2    0    0  0.24673079560E+02  0.12625510511E+02  0.12219739368E+04  0.12286632426E+04  0.12499958800E+03 0.  0.
          2    1    1    2  501    0 -0.57601742224E+01 -0.34245378305E+02 -0.14259644682E+03  0.14676400167E+03  0.00000000000E+00 0. -1.
          1    1    1    2  502    0 -0.18912905338E+02  0.21619867794E+02  0.65044692654E+03  0.65108088662E+03  0.00000000000E+00 0. -1.
         22    1    3    3    0    0  0.37819470804E+02  0.50544023345E+02  0.10567958233E+04  0.10586795657E+04  0.00000000000E+00 0.  1.
         22    1    3    3    0    0 -0.13146391244E+02 -0.37918512834E+02  0.16517811348E+03  0.16998367684E+03  0.00000000000E+00 0.  1.
</event>
<event>
 7    1  0.6235964E-006  0.9206775E+02  0.7818608E-02  0.1338742E+00
          2   -1    0    0  502    0  0.00000000000E+00  0.00000000000E+00  0.23694324138E+04  0.23694324138E+04  0.00000000000E+00 0. -1.
          1   -1    0    0  501    0 -0.00000000000E+00 -0.00000000000E+00 -0.32127536590E+03  0.32127536590E+03  0.00000000000E+00 0. -1.
         25    2    1    2    0    0 -0.23506206799E+02  0.26662162738E+02 -0.91524135223E+02  0.15894945831E+03  0.12499940115E+03 0.  0.
          2    1    1    2  501    0 -0.63732717656E+02  0.41340842552E+01 -0.18989421597E+03  0.20034660769E+03  0.00000000000E+00 0. -1.
          1    1    1    2  502    0  0.87238924454E+02 -0.30796246993E+02  0.23295753991E+04  0.23314117137E+04  0.00000000000E+00 0. -1.
         22    1    3    3    0    0  0.41280355677E+02  0.31897724876E+02 -0.75900957688E+02  0.92100423425E+02  0.00000000000E+00 0.  1.
         22    1    3    3    0    0 -0.64786562476E+02 -0.52355621378E+01 -0.15623177535E+02  0.66849034882E+02  0.00000000000E+00 0.  1.
</event>
<event>
 7    1  0.6235964E-006  0.1434506E+03  0.7818608E-02  0.1318313E+00
          2   -1    0    0  502    0  0.00000000000E+00  0.00000000000E+00  0.15940163920E+04  0.15940163920E+04  0.00000000000E+00 0. -1.
          1   -1    0    0  501    0 -0.00000000000E+00 -0.00000000000E+00 -0.88392965158E+02  0.88392965158E+02  0.00000000000E+00 0. -1.
         25    2    1    2    0    0 -0.13360373095E+03  0.55649265392E+02  0.29814941726E+03  0.35420877227E+03  0.12499592665E+03 0.  0.
          2    1    1    2  501    0  0.10744926989E+03 -0.97179719425E+02  0.27816938687E+02  0.14752296616E+03  0.00000000000E+00 0. -1.
          1    1    1    2  502    0  0.26154461066E+02  0.41530454033E+02  0.11796570709E+04  0.11806776188E+04  0.00000000000E+00 0. -1.
         22    1    3    3    0    0 -0.91709759143E+01  0.47890016194E+02  0.16388884802E+03  0.17098863984E+03  0.00000000000E+00 0. -1.
         22    1    3    3    0    0 -0.12443275504E+03  0.77592491987E+01  0.13426056925E+03  0.18322013243E+03  0.00000000000E+00 0. -1.
</event>
<event>
 7    1  0.6235964E-006  0.9825747E+02  0.7818608E-02  0.1297148E+00
          2   -1    0    0  502    0  0.00000000000E+00  0.00000000000E+00  0.49141369638E+03  0.49141369638E+03  0.00000000000E+00 0. -1.
          1   -1    0    0  501    0 -0.00000000000E+00 -0.00000000000E+00 -0.12943857390E+04  0.12943857390E+04  0.00000000000E+00 0. -1.
         25    2    1    2    0    0  0.48463110191E+01 -0.48804757061E+02  0.18345958294E+03  0.22734879660E+03  0.12499866280E+03 0.  0.
          2    1    1    2  501    0  0.81762269263E+02  0.55750777477E+02 -0.12638631898E+04  0.12677315885E+04  0.00000000000E+00 0. -1.
          1    1    1    2  502    0 -0.86608580282E+02 -0.69460204163E+01  0.27743156423E+03  0.29071905031E+03  0.00000000000E+00 0. -1.
         22    1    3    3    0    0  0.52650209765E+02 -0.24163354357E+02  0.15712955443E+03  0.16746823328E+03  0.00000000000E+00 0.  1.
         22    1    3    3    0    0 -0.47803898746E+02 -0.24641402704E+02  0.26330028511E+02  0.59880563323E+02  0.00000000000E+00 0.  1.
</event>
<event>
 7    1  0.6235964E-006  0.5497893E+02  0.7818608E-02  0.1556180E+00
          2   -1    0    0  502    0  0.00000000000E+00  0.00000000000E+00  0.17543742900E+04  0.17543742900E+04  0.00000000000E+00 0. -1.
          1   -1    0    0  501    0 -0.00000000000E+00 -0.00000000000E+00 -0.27405308503E+02  0.27405308503E+02  0.00000000000E+00 0. -1.
         25    2    1    2    0    0  0.31258571454E+02 -0.18198760753E+02  0.55797398560E+03  0.57294758409E+03  0.12500268928E+03 0.  0.
          2    1    1    2  501    0  0.14033434902E+02 -0.15924772380E+02 -0.13384491528E+02  0.25093431092E+02  0.00000000000E+00 0. -1.
          1    1    1    2  502    0 -0.45292006356E+02  0.34123533133E+02  0.11823794875E+04  0.11837385833E+04  0.00000000000E+00 0. -1.
         22    1    3    3    0    0 -0.35443063184E+02  0.29492211119E+02  0.15485560921E+03  0.16157432020E+03  0.00000000000E+00 0.  1.
         22    1    3    3    0    0  0.66701634637E+02 -0.47690971872E+02  0.40311837639E+03  0.41137326389E+03  0.00000000000E+00 0.  1.
</event>
<event>
 7    1  0.6235964E-006  0.8003439E+02  0.7818608E-02  0.1331333E+00
          2   -1    0    0  502    0  0.00000000000E+00  0.00000000000E+00  0.58440374299E+03  0.58440374299E+03  0.00000000000E+00 0. -1.
          1   -1    0    0  501    0 -0.00000000000E+00 -0.00000000000E+00 -0.32129406895E+03  0.32129406895E+03  0.00000000000E+00 0. -1.
         25    2    1    2    0    0 -0.89506381416E+01 -0.92951205112E+01  0.41392492670E+02  0.13230588262E+03  0.12499997975E+03 0.  0.
          2    1    1    2  501    0 -0.76765762859E+02  0.15812549350E+02 -0.26643725763E+03  0.27772618047E+03  0.00000000000E+00 0. -1.
          1    1    1    2  502    0  0.85716401000E+02 -0.65174288392E+01  0.48815443900E+03  0.49566574886E+03  0.00000000000E+00 0. -1.
         22    1    3    3    0    0 -0.33547867415E+02  0.50608598037E+02  0.16406404390E+02  0.62895625511E+02  0.00000000000E+00 0. -1.
         22    1    3    3    0    0  0.24597229274E+02 -0.59903718548E+02  0.24986088280E+02  0.69410257105E+02  0.00000000000E+00 0. -1.
</event>
<event>
 7    1  0.6235964E-006  0.7738271E+02  0.7818608E-02  0.1416484E+00
          2   -1    0    0  502    0  0.00000000000E+00  0.00000000000E+00  0.20671026209E+04  0.20671026209E+04  0.00000000000E+00 0. -1.
          1   -1    0    0  501    0 -0.00000000000E+00 -0.00000000000E+00 -0.85205674034E+03  0.85205674034E+03  0.00000000000E+00 0. -1.
         25    2    1    2    0    0 -0.44747593403E+02 -0.19132839283E+02  0.87503602261E+03  0.88525788573E+03  0.12500028296E+03 0.  0.
          2    1    1    2  501    0 -0.26039737409E+02 -0.30621219871E+02 -0.84489056775E+03  0.84584620263E+03  0.00000000000E+00 0. -1.
          1    1    1    2  502    0  0.70787330812E+02  0.49754059154E+02  0.11849004257E+04  0.11880552729E+04  0.00000000000E+00 0. -1.
         22    1    3    3    0    0 -0.19841308189E+02 -0.10682918136E+02  0.20954891674E+02  0.30771898473E+02  0.00000000000E+00 0. -1.
         22    1    3    3    0    0 -0.24906285214E+02 -0.84499211462E+01  0.85408113093E+03  0.85448598726E+03  0.00000000000E+00 0. -1.
</event>
<event>
 7    1  0.6235964E-006  0.2681546E+02  0.7818608E-02  0.1642706E+00
          2   -1    0    0  502    0  0.00000000000E+00  0.00000000000E+00  0.16607206130E+04  0.16607206130E+04  0.00000000000E+00 0. -1.
          1   -1    0    0  501    0 -0.00000000000E+00 -0.00000000000E+00 -0.32283650810E+02  0.32283650810E+02  0.00000000000E+00 0. -1.
         25    2    1    2    0    0  0.14973285849E+02 -0.30617762628E+02  0.96219943857E+03  0.97088393834E+03  0.12500486173E+03 0.  0.
          2    1    1    2  501    0 -0.25863161035E+02  0.71867905786E+01 -0.21195207457E+02  0.34202191109E+02  0.00000000000E+00 0. -1.
          1    1    1    2  502    0  0.10889875186E+02  0.23430972049E+02  0.68743273110E+03  0.68791813439E+03  0.00000000000E+00 0. -1.
         22    1    3    3    0    0 -0.28599847893E+01 -0.62782114151E+02  0.85955955463E+03  0.86185404874E+03  0.00000000000E+00 0. -1.
         22    1    3    3    0    0  0.17833270638E+02  0.32164351524E+02  0.10263988394E+03  0.10902988960E+03  0.00000000000E+00 0. -1.
</event>
<event>
 7    1  0.6235964E-006  0.1364484E+03  0.7818608E-02  0.1239547E+00
          2   -1    0    0  502    0  0.00000000000E+00  0.00000000000E+00  0.23757407091E+04  0.23757407091E+04  0.00000000000E+00 0. -1.
          1   -1    0    0  501    0 -0.00000000000E+00 -0.00000000000E+00 -0.10614103603E+04  0.10614103603E+04  0.00000000000E+00 0. -1.
         25    2    1    2    0    0 -0.70625387077E+02  0.48291251766E+02  0.33757929278E+03  0.37000707802E+03  0.12500187429E+03 0.  0.
          2    1    1    2  501    0  0.70840220937E+01 -0.13734617971E+03 -0.10391828518E+04  0.10482438437E+04  0.00000000000E+00 0. -1.
          1    1    1    2  502    0  0.63541364984E+02  0.89054927948E+02  0.20159339079E+04  0.20189001476E+04  0.00000000000E+00 0. -1.
         22    1    3    3    0    0  0.29218294156E+02 -0.15323861800E+02  0.79164642490E+02  0.85764620179E+02  0.00000000000E+00 0. -1.
         22    1    3    3    0    0 -0.99843681234E+02  0.63615113566E+02  0.25841465029E+03  0.28424245785E+03  0.00000000000E+00 0. -1.
</event>
<event>
 7    1  0.6235964E-006  0.2235074E+03  0.7818608E-02  0.1261708E+00
          2   -1    0    0  502    0  0.00000000000E+00  0.00000000000E+00  0.14218161012E+04  0.14218161012E+04  0.00000000000E+00 0. -1.
          1   -1    0    0  501    0 -0.00000000000E+00 -0.00000000000E+00 -0.14214990982E+04  0.14214990982E+04  0.00000000000E+00 0. -1.
         25    2    1    2    0    0  0.63115044195E+02  0.25494598567E+03 -0.79613653158E+03  0.84760798024E+03  0.12499978736E+03 0.  0.
          2    1    1    2  501    0 -0.42307734990E+02 -0.32804459659E+02 -0.58949189251E+03  0.59191787297E+03  0.00000000000E+00 0. -1.
          1    1    1    2  502    0 -0.20807309206E+02 -0.22214152601E+03  0.13859454270E+04  0.14037893462E+04  0.00000000000E+00 0. -1.
         22    1    3    3    0    0  0.10128140425E+03  0.19549044767E+03 -0.60941773679E+03  0.64796945599E+03  0.00000000000E+00 0. -1.
         22    1    3    3    0    0 -0.38166360058E+02  0.59455538000E+02 -0.18671879479E+03  0.19963852425E+03  0.00000000000E+00 0. -1.
</event>
<event>
 7    1  0.6235964E-006  0.9724394E+02  0.7818608E-02  0.1350419E+00
          2   -1    0    0  502    0  0.00000000000E+00  0.00000000000E+00  0.19826929570E+04  0.19826929570E+04  0.00000000000E+00 0. -1.
          1   -1    0    0  501    0 -0.00000000000E+00 -0.00000000000E+00 -0.46939361062E+02  0.46939361062E+02  0.00000000000E+00 0. -1.
         25    2    1    2    0    0  0.13658278781E+03  0.39958202948E+02  0.36840717242E+03  0.41424643572E+03  0.12499899563E+03 0.  0.
          2    1    1    2  501    0 -0.83172833339E+02 -0.28203238792E+02  0.58445357638E+02  0.10549408852E+03  0.00000000000E+00 0. -1.
          1    1    1    2  502    0 -0.53409954472E+02 -0.11754964156E+02  0.15089010658E+04  0.15098917938E+04  0.00000000000E+00 0. -1.
         22    1    3    3    0    0  0.12110835246E+03  0.75655823649E+02  0.33002355800E+03  0.35959224897E+03  0.00000000000E+00 0.  1.
         22    1    3    3    0    0  0.15474435346E+02 -0.35697620701E+02  0.38383614423E+02  0.54654186748E+02  0.00000000000E+00 0.  1.
</event>
<event>
 7    1  0.6235964E-006  0.7241877E+02  0.7818608E-02  0.1473095E+00
          2   -1    0    0  502    0  0.00000000000E+00  0.00000000000E+00  0.59979391676E+03  0.59979391676E+03  0.00000000000E+00 0. -1.
          1   -1    0    0  501    0 -0.00000000000E+00 -0.00000000000E+00 -0.15011973322E+04  0.15011973322E+04  0.00000000000E+00 0. -1.
         25    2    1    2    0    0 -0.63977301072E+02 -0.57127590499E+02  0.19769808508E+03  0.24912927395E+03  0.12499682253E+03 0.  0.
          2    1    1    2  501    0  0.36305112799E+02  0.62619263037E+02 -0.14740637930E+04  0.14758398623E+04  0.00000000000E+00 0. -1.
          1    1    1    2  502    0  0.27672188272E+02 -0.54916725380E+01  0.37496229248E+03  0.37602211272E+03  0.00000000000E+00 0. -1.
         22    1    3    3    0    0 -0.20801613737E+02  0.27764334473E+02  0.12383622939E+03  0.12860395449E+03  0.00000000000E+00 0.  1.
         22    1    3    3    0    0 -0.43175687335E+02 -0.84891924972E+02  0.73861855696E+02  0.12052531945E+03  0.00000000000E+00 0.  1.
</event>
<event>
 7    1  0.6235964E-006  0.6218041E+03  0.7818608E-02  0.1138532E+00
          2   -1    0    0  502    0  0.00000000000E+00  0.00000000000E+00  0.16264217986E+04  0.16264217986E+04  0.00000000000E+00 0. -1.
          1   -1    0    0  501    0 -0.00000000000E+00 -0.00000000000E+00 -0.52696590283E+03  0.52696590283E+03  0.00000000000E+00 0. -1.
         25    2    1    2    0    0 -0.86231064883E+02 -0.60213271736E+03  0.36033170717E+03  0.71796069524E+03  0.12501605839E+03 0.  0.
          2    1    1    2  501    0  0.15938624300E+03  0.60988963450E+03 -0.59727099287E+02  0.63319559941E+03  0.00000000000E+00 0. -1.
          1    1    1    2  502    0 -0.73155178119E+02 -0.77569171329E+01  0.79885128786E+03  0.80223140674E+03  0.00000000000E+00 0. -1.
         22    1    3    3    0    0 -0.86505204736E+02 -0.28016187996E+03  0.22082228680E+03  0.36706445180E+03  0.00000000000E+00 0. -1.
         22    1    3    3    0    0  0.27413985327E+00 -0.32197083741E+03  0.13950942037E+03  0.35089624345E+03  0.00000000000E+00 0. -1.
</event>
<event>
 7    1  0.6235964E-006  0.3197872E+03  0.7818608E-02  0.1222810E+00
          2   -1    0    0  502    0  0.00000000000E+00  0.00000000000E+00  0.10571242983E+04  0.10571242983E+04  0.00000000000E+00 0. -1.
          1   -1    0    0  501    0 -0.00000000000E+00 -0.00000000000E+00 -0.47822198778E+03  0.47822198778E+03  0.00000000000E+00 0. -1.
         25    2    1    2    0    0  0.10031627208E+03 -0.35460025098E+03 -0.38204049307E+02  0.39101127225E+03  0.12500229281E+03 0.  0.
          2    1    1    2  501    0 -0.20823812629E+02  0.51408766567E+02 -0.23235895037E+03  0.23888736733E+03  0.00000000000E+00 0. -1.
          1    1    1    2  502    0 -0.79492459454E+02  0.30319148441E+03  0.84946531023E+03  0.90544764653E+03  0.00000000000E+00 0. -1.
         22    1    3    3    0    0  0.60921229267E+02 -0.67290683585E+02  0.25114041770E+02  0.94181459782E+02  0.00000000000E+00 0.  1.
         22    1    3    3    0    0  0.39395042816E+02 -0.28730956739E+03 -0.63318091077E+02  0.29682981247E+03  0.00000000000E+00 0.  1.
</event>
<event>
 7    1  0.6235964E-006  0.2884498E+03  0.7818608E-02  0.1213101E+00
          2   -1    0    0  502    0  0.00000000000E+00  0.00000000000E+00  0.11657008190E+04  0.11657008190E+04  0.00000000000E+00 0. -1.
          1   -1    0    0  501    0 -0.00000000000E+00 -0.00000000000E+00 -0.13534442662E+04  0.13534442662E+04  0.00000000000E+00 0. -1.
         25    2    1    2    0    0  0.21641042840E+02  0.23402391683E+03 -0.74815688217E+03  0.79410216738E+03  0.12499601400E+03 0.  0.
          2    1    1    2  501    0 -0.39919421952E+02  0.55190309812E+02 -0.56185227882E+03  0.56596600053E+03  0.00000000000E+00 0. -1.
          1    1    1    2  502    0  0.18278379111E+02 -0.28921422665E+03  0.11222657137E+04  0.11590769173E+04  0.00000000000E+00 0. -1.
         22    1    3    3    0    0  0.60928379840E+02  0.14895657236E+03 -0.57643199539E+03  0.59847654359E+03  0.00000000000E+00 0.  1.
         22    1    3    3    0    0 -0.39287336999E+02  0.85067344471E+02 -0.17172488678E+03  0.19562562379E+03  0.00000000000E+00 0.  1.
</event>
<event>
 7    1  0.6235964E-006  0.2946647E+02  0.7818608E-02  0.1607191E+00
          2   -1    0    0  502    0  0.00000000000E+00  0.00000000000E+00  0.87171421548E+03  0.87171421548E+03  0.00000000000E+00 0. -1.
          1   -1    0    0  501    0 -0.00000000000E+00 -0.00000000000E+00 -0.12410130438E+04  0.12410130438E+04  0.00000000000E+00 0. -1.
         25    2    1    2    0    0 -0.21398995796E+02  0.21060710973E+02 -0.89586732139E+03  0.90504431045E+03  0.12500190308E+03 0.  0.
          2    1    1    2  501    0  0.30588638874E+02  0.63612531569E+01 -0.33959880616E+03  0.34103295957E+03  0.00000000000E+00 0. -1.
          1    1    1    2  502    0 -0.91896430780E+01 -0.27421964130E+02  0.86616729922E+03  0.86664998926E+03  0.00000000000E+00 0. -1.
         22    1    3    3    0    0 -0.56535346923E+02  0.39937671054E+02 -0.76769580088E+03  0.77081003218E+03  0.00000000000E+00 0. -1.
         22    1    3    3    0    0  0.35136351127E+02 -0.18876960081E+02 -0.12817152052E+03  0.13423427827E+03  0.00000000000E+00 0. -1.
</event>
<event>
 7    1  0.6235964E-006  0.2165035E+03  0.7818608E-02  0.1243213E+00
          2   -1    0    0  502    0  0.00000000000E+00  0.00000000000E+00  0.48623670191E+03  0.48623670191E+03  0.00000000000E+00 0. -1.
          1   -1    0    0  501    0 -0.00000000000E+00 -0.00000000000E+00 -0.11236714075E+04  0.11236714075E+04  0.00000000000E+00 0. -1.
         25    2    1    2    0    0 -0.26840830290E+03 -0.30196369543E+02 -0.58736439561E+02  0.30336558736E+03  0.12500348981E+03 0.  0.
          2    1    1    2  501    0  0.20527668510E+03  0.50879824564E+02 -0.92758399198E+03  0.95138811017E+03  0.00000000000E+00 0. -1.
          1    1    1    2  502    0  0.63131617795E+02 -0.20683455021E+02  0.34888572597E+03  0.35515441186E+03  0.00000000000E+00 0. -1.
         22    1    3    3    0    0 -0.61151484518E+02 -0.13224318036E+01 -0.71042179465E+02  0.93745635353E+02  0.00000000000E+00 0.  1.
         22    1    3    3    0    0 -0.20725681838E+03 -0.28873937740E+02  0.12305739904E+02  0.20961995201E+03  0.00000000000E+00 0.  1.
</event>
<event>
 7    1  0.6235964E-006  0.4576626E+02  0.7818608E-02  0.1506387E+00
          2   -1    0    0  502    0  0.00000000000E+00  0.00000000000E+00  0.31112007418E+03  0.31112007418E+03  0.00000000000E+00 0. -1.
          1   -1    0    0  501    0 -0.00000000000E+00 -0.00000000000E+00 -0.15377078722E+04  0.15377078722E+04  0.00000000000E+00 0. -1.
         25    2    1    2    0    0  0.50009104758E+01  0.36634112239E+02 -0.66648153632E+03  0.67911195663E+03  0.12501337567E+03 0.  0.
          2    1    1    2  501    0 -0.35323370538E+02 -0.22805625378E+01 -0.86282409048E+03  0.86354985530E+03  0.00000000000E+00 0. -1.
          1    1    1    2  502    0  0.30322460063E+02 -0.34353549701E+02  0.30271782884E+03  0.30616613441E+03  0.00000000000E+00 0. -1.
         22    1    3    3    0    0 -0.40443569912E+02  0.23998050346E+02 -0.56772215715E+03  0.56966660117E+03  0.00000000000E+00 0.  1.
         22    1    3    3    0    0  0.45444480388E+02  0.12636061893E+02 -0.98759379171E+02  0.10944535546E+03  0.00000000000E+00 0.  1.
</event>
<event>
 7    1  0.6442561E-006  0.6771718E+02  0.7818608E-02  0.1439800E+00
          2   -1    0    0  502    0  0.00000000000E+00  0.00000000000E+00  0.65419502934E+03  0.65419502934E+03  0.00000000000E+00 0. -1.
          1   -1    0    0  501    0 -0.00000000000E+00 -0.00000000000E+00 -0.15530105124E+04  0.15530105124E+04  0.00000000000E+00 0. -1.
         25    2    1    2    0    0  0.85321619663E+02 -0.45855287731E+02 -0.88232528593E+03  0.89638602385E+03  0.12501002907E+03 0.  0.
          2    1    1    2  501    0 -0.38366042610E+02 -0.28702958394E+01 -0.66132537257E+03  0.66244353739E+03  0.00000000000E+00 0. -1.
          1    1    1    2  502    0 -0.46955577052E+02  0.48725583570E+02  0.64483517540E+03  0.64837598054E+03  0.00000000000E+00 0. -1.
         22    1    3    3    0    0  0.98669210157E+02  0.61356179706E+01 -0.67610755172E+03  0.68329691960E+03  0.00000000000E+00 0.  1.
         22    1    3    3    0    0 -0.13347590495E+02 -0.51990905702E+02 -0.20621773421E+03  0.21308910426E+03  0.00000000000E+00 0.  1.
</event>
<event>
 7    1  0.6235964E-006  0.1282563E+03  0.7818608E-02  0.1358109E+00
          2   -1    0    0  502    0  0.00000000000E+00  0.00000000000E+00  0.18957942049E+04  0.18957942049E+04  0.00000000000E+00 0. -1.
          1   -1    0    0  501    0 -0.00000000000E+00 -0.00000000000E+00 -0.25324533868E+03  0.25324533868E+03  0.00000000000E+00 0. -1.
         25    2    1    2    0    0 -0.34311988684E+02 -0.13991435797E+03  0.87699825062E+03  0.89749931361E+03  0.12500298478E+03 0.  0.
          2    1    1    2  501    0 -0.26698327716E+01  0.12801876605E+03 -0.22571928333E+03  0.25950939740E+03  0.00000000000E+00 0. -1.
          1    1    1    2  502    0  0.36981821456E+02  0.11895591924E+02  0.99126989896E+03  0.99203083259E+03  0.00000000000E+00 0. -1.
         22    1    3    3    0    0 -0.19547133638E+02  0.90703929809E+01  0.27642607663E+02  0.35049625115E+02  0.00000000000E+00 0.  1.
         22    1    3    3    0    0 -0.14764855046E+02 -0.14898475096E+03  0.84935564295E+03  0.86244968849E+03  0.00000000000E+00 0.  1.
</event>
<event>
 7    1  0.6235964E-006  0.1000217E+03  0.7818608E-02  0.1390697E+00
          2   -1    0    0  502    0  0.00000000000E+00  0.00000000000E+00  0.12096105202E+04  0.12096105202E+04  0.00000000000E+00 0. -1.
          1   -1    0    0  501    0 -0.00000000000E+00 -0.00000000000E+00 -0.87865586639E+02  0.87865586639E+02  0.00000000000E+00 0. -1.
         25    2    1    2    0    0  0.21709630411E+02  0.63969689987E+02  0.31197062223E+03  0.34280301078E+03  0.12499922311E+03 0.  0.
          2    1    1    2  501    0 -0.19283706140E+02 -0.10199470557E+03 -0.34617618466E+02  0.10942193928E+03  0.00000000000E+00 0. -1.
          1    1    1    2  502    0 -0.24259242712E+01  0.38025015587E+02  0.84439192983E+03  0.84525115680E+03  0.00000000000E+00 0. -1.
         22    1    3    3    0    0  0.70334024856E+02  0.21879855180E+02  0.12508361060E+03  0.14516030021E+03  0.00000000000E+00 0.  1.
         22    1    3    3    0    0 -0.48624394445E+02  0.42089834808E+02  0.18688701163E+03  0.19764271058E+03  0.00000000000E+00 0.  1.
</event>
<event>
 7    1  0.6235964E-006  0.2374442E+02  0.7818608E-02  0.1693781E+00
          2   -1    0    0  502    0  0.00000000000E+00  0.00000000000E+00  0.37617395514E+03  0.37617395514E+03  0.00000000000E+00 0. -1.
          1   -1    0    0  501    0 -0.00000000000E+00 -0.00000000000E+00 -0.18949613627E+03  0.18949613627E+03  0.00000000000E+00 0. -1.
         25    2    1    2    0    0 -0.21513205178E+02 -0.13947114965E+02  0.14408583503E+02  0.12840886085E+03  0.12499555294E+03 0.  0.
          2    1    1    2  501    0 -0.89789890647E+00  0.21991152878E+02 -0.13111225951E+03  0.13294676235E+03  0.00000000000E+00 0. -1.
          1    1    1    2  502    0  0.22411104085E+02 -0.80440379131E+01  0.30338149487E+03  0.30431446821E+03  0.00000000000E+00 0. -1.
         22    1    3    3    0    0  0.34064825640E+00 -0.60523247328E+01 -0.54938764299E+02  0.55272185579E+02  0.00000000000E+00 0. -1.
         22    1    3    3    0    0 -0.21853853435E+02 -0.78947902317E+01  0.69347347803E+02  0.73136675273E+02  0.00000000000E+00 0. -1.
</event>
<event>
 7    1  0.6235964E-006  0.1155292E+03  0.7818608E-02  0.1291331E+00
          2   -1    0    0  502    0  0.00000000000E+00  0.00000000000E+00  0.98452480737E+03  0.98452480737E+03  0.00000000000E+00 0. -1.
          1   -1    0    0  501    0 -0.00000000000E+00 -0.00000000000E+00 -0.78773007647E+03  0.78773007647E+03  0.00000000000E+00 0. -1.
         25    2    1    2    0    0  0.17096702458E+03  0.25416471946E+02  0.83168365250E+02  0.22894342325E+03  0.12498957369E+03 0.  0.
          2    1    1    2  501    0 -0.72194116997E+02  0.29545109489E+02 -0.70883737168E+03  0.71311662687E+03  0.00000000000E+00 0. -1.
          1    1    1    2  502    0 -0.98772907586E+02 -0.54961581436E+02  0.82246373733E+03  0.83019483372E+03  0.00000000000E+00 0. -1.
         22    1    3    3    0    0  0.66688331598E+02 -0.33167175065E+02 -0.12826879889E+02  0.75577271192E+02  0.00000000000E+00 0. -1.
         22    1    3    3    0    0  0.10427869299E+03  0.58583647012E+02  0.95995245139E+02  0.15336615206E+03  0.00000000000E+00 0. -1.
</event>
<event>
 7    1  0.6235964E-006  0.1583353E+03  0.7818608E-02  0.1352429E+00
          2   -1    0    0  502    0  0.00000000000E+00  0.00000000000E+00  0.29883300770E+03  0.29883300770E+03  0.00000000000E+00 0. -1.
          1   -1    0    0  501    0 -0.00000000000E+00 -0.00000000000E+00 -0.23536124918E+03  0.23536124918E+03  0.00000000000E+00 0. -1.
         25    2    1    2    0    0 -0.13103338375E+03 -0.48280418445E+01  0.18869322283E+03  0.26157797563E+03  0.12499938938E+03 0.  0.
          2    1    1    2  501    0  0.16244940077E+03 -0.53311312246E+01 -0.15758139650E+03  0.22638490518E+03  0.00000000000E+00 0. -1.
          1    1    1    2  502    0 -0.31416017016E+02  0.10159173069E+02  0.32359932189E+02  0.46231376076E+02  0.00000000000E+00 0. -1.
         22    1    3    3    0    0  0.83097383507E+01  0.35110956437E+02  0.41525067134E+02  0.55010564566E+02  0.00000000000E+00 0. -1.
         22    1    3    3    0    0 -0.13934312210E+03 -0.39938998281E+02  0.14716815570E+03  0.20656741106E+03  0.00000000000E+00 0. -1.
</event>
<event>
 7    1  0.6235964E-006  0.1153135E+03  0.7818608E-02  0.1257779E+00
          2   -1    0    0  502    0  0.00000000000E+00  0.00000000000E+00  0.37445082686E+03  0.37445082686E+03  0.00000000000E+00 0. -1.
          1   -1    0    0  501    0 -0.00000000000E+00 -0.00000000000E+00 -0.26439535767E+03  0.26439535767E+03  0.00000000000E+00 0. -1.
         25    2    1    2    0    0 -0.13013494976E+03 -0.60836993377E+02  0.22569821252E+03  0.29529763549E+03  0.12499906190E+03 0.  0.
          2    1    1    2  501    0  0.10742975477E+03 -0.44599403969E+02 -0.18267250054E+03  0.21656292734E+03  0.00000000000E+00 0. -1.
          1    1    1    2  502    0  0.22705194997E+02  0.10543639735E+03  0.67029757209E+02  0.12698562169E+03  0.00000000000E+00 0. -1.
         22    1    3    3    0    0 -0.11565769051E+03 -0.87510601672E+02  0.12953348710E+03  0.19445753022E+03  0.00000000000E+00 0.  1.
         22    1    3    3    0    0 -0.14477259254E+02  0.26673608294E+02  0.96164725426E+02  0.10084010527E+03  0.00000000000E+00 0.  1.
</event>
<event>
 7    1  0.6235964E-006  0.9226165E+02  0.7818608E-02  0.1454240E+00
          2   -1    0    0  502    0  0.00000000000E+00  0.00000000000E+00  0.84368685773E+03  0.84368685773E+03  0.00000000000E+00 0. -1.
          1   -1    0    0  501    0 -0.00000000000E+00 -0.00000000000E+00 -0.54195132314E+02  0.54195132314E+02  0.00000000000E+00 0. -1.
         25    2    1    2    0    0 -0.56011824975E+02  0.64220919135E+02  0.34806295200E+03  0.37952340914E+03  0.12501419336E+03 0.  0.
          2    1    1    2  501    0 -0.22829888206E+02 -0.11080769057E+02 -0.28932057611E+02  0.38484427968E+02  0.00000000000E+00 0. -1.
          1    1    1    2  502    0  0.78841713181E+02 -0.53140150077E+02  0.47036083103E+03  0.47987415293E+03  0.00000000000E+00 0. -1.
         22    1    3    3    0    0  0.14734395954E+01  0.60457770724E+02  0.29521788247E+03  0.30134848796E+03  0.00000000000E+00 0. -1.
         22    1    3    3    0    0 -0.57485264570E+02  0.37631484101E+01  0.52845069528E+02  0.78174921184E+02  0.00000000000E+00 0. -1.
</event>
<event>
 7    1  0.6235964E-006  0.8445527E+02  0.7818608E-02  0.1360434E+00
          2   -1    0    0  502    0  0.00000000000E+00  0.00000000000E+00  0.17546691718E+03  0.17546691718E+03  0.00000000000E+00 0. -1.
          1   -1    0    0  501    0 -0.00000000000E+00 -0.00000000000E+00 -0.34982925493E+03  0.34982925493E+03  0.00000000000E+00 0. -1.
         25    2    1    2    0    0 -0.44056464319E+02  0.15426932221E+02 -0.19546644051E+03  0.23666524316E+03  0.12499738264E+03 0.  0.
          2    1    1    2  501    0 -0.38758746812E+02 -0.42950295939E+02 -0.11397276629E+03  0.12781533488E+03  0.00000000000E+00 0. -1.
          1    1    1    2  502    0  0.82815211130E+02  0.27523363719E+02  0.13507686904E+03  0.16081559407E+03  0.00000000000E+00 0. -1.
         22    1    3    3    0    0  0.11514501375E+02 -0.25023045984E+02  0.19612905498E+01  0.27614909611E+02  0.00000000000E+00 0. -1.
         22    1    3    3    0    0 -0.55570965693E+02  0.40449978205E+02 -0.19742773106E+03  0.20905033354E+03  0.00000000000E+00 0. -1.
</event>
<event>
 7    1  0.6235964E-006  0.5966267E+02  0.7818608E-02  0.1485129E+00
          2   -1    0    0  502    0  0.00000000000E+00  0.00000000000E+00  0.16742657955E+04  0.16742657955E+04  0.00000000000E+00 0. -1.
          1   -1    0    0  501    0 -0.00000000000E+00 -0.00000000000E+00 -0.34164499790E+02  0.34164499790E+02  0.00000000000E+00 0. -1.
         25    2    1    2    0    0 -0.38485690433E+02  0.74311304166E+02  0.32330283099E+03  0.35658708327E+03  0.12500523642E+03 0.  0.
          2    1    1    2  501    0  0.13684508050E+02 -0.54972276527E+02  0.28964237502E+02  0.63625026532E+02  0.00000000000E+00 0. -1.
          1    1    1    2  502    0  0.24801182383E+02 -0.19339027639E+02  0.12878342272E+04  0.12882181854E+04  0.00000000000E+00 0. -1.
         22    1    3    3    0    0 -0.35315315147E+02  0.18113926591E+02  0.13819622073E+02  0.42026988646E+02  0.00000000000E+00 0. -1.
         22    1    3    3    0    0 -0.31703752863E+01  0.56197377575E+02  0.30948320892E+03  0.31456009462E+03  0.00000000000E+00 0. -1.
</event>
<event>
 7    1  0.6235964E-006  0.7799664E+02  0.7818608E-02  0.1345520E+00
          2   -1    0    0  502    0  0.00000000000E+00  0.00000000000E+00  0.12813869307E+03  0.12813869307E+03  0.00000000000E+00 0. -1.
          1   -1    0    0  501    0 -0.00000000000E+00 -0.00000000000E+00 -0.13704094609E+04  0.13704094609E+04  0.00000000000E+00 0. -1.
         25    2    1    2    0    0  0.12289292442E+03 -0.30957112356E+02 -0.10966798003E+03  0.20908002105E+03  0.12500550260E+03 0.  0.
          2    1    1    2  501    0 -0.68457417506E+02 -0.19214753693E+02 -0.11922685785E+04  0.11943868670E+04  0.00000000000E+00 0. -1.
          1    1    1    2  502    0 -0.54435506912E+02  0.50171866049E+02  0.59665790682E+02  0.95081265943E+02  0.00000000000E+00 0. -1.
         22    1    3    3    0    0  0.70735196954E+02  0.27814848453E+02 -0.10597598714E+03  0.13041489076E+03  0.00000000000E+00 0. -1.
         22    1    3    3    0    0  0.52157727464E+02 -0.58771960809E+02 -0.36919928913E+01  0.78665130287E+02  0.00000000000E+00 0. -1.
</event>
<event>
 7    1  0.6235964E-006  0.1232630E+03  0.7818608E-02  0.1311435E+00
          2   -1    0    0  502    0  0.00000000000E+00  0.00000000000E+00  0.31218471124E+03  0.31218471124E+03  0.00000000000E+00 0. -1.
          1   -1    0    0  501    0 -0.00000000000E+00 -0.00000000000E+00 -0.13369591709E+04  0.13369591709E+04  0.00000000000E+00 0. -1.
         25    2    1    2    0    0 -0.16669762714E+03 -0.37559042833E+01 -0.63150450431E+02  0.21775068183E+03  0.12500069735E+03 0.  0.
          2    1    1    2  501    0  0.52583074089E+02 -0.30459401150E+02 -0.11805705492E+04  0.11821334850E+04  0.00000000000E+00 0. -1.
          1    1    1    2  502    0  0.11411455305E+03  0.34215305434E+02  0.21894653992E+03  0.24925971533E+03  0.00000000000E+00 0. -1.
         22    1    3    3    0    0 -0.15150554618E+03 -0.14048067195E+02 -0.17430916312E+00  0.15215554245E+03  0.00000000000E+00 0. -1.
         22    1    3    3    0    0 -0.15192080961E+02  0.10292162912E+02 -0.62976141268E+02  0.65595139381E+02  0.00000000000E+00 0. -1.
</event>
<event>
 7    1  0.6235964E-006  0.5892284E+02  0.7818608E-02  0.1479393E+00
          2   -1    0    0  502    0  0.00000000000E+00  0.00000000000E+00  0.19832016827E+03  0.19832016827E+03  0.00000000000E+00 0. -1.
          1   -1    0    0  501    0 -0.00000000000E+00 -0.00000000000E+00 -0.11440268111E+04  0.11440268111E+04  0.00000000000E+00 0. -1.
         25    2    1    2    0    0  0.52638681742E+02 -0.70915653049E+02 -0.50355679480E+03  0.52630229528E+03  0.12499919907E+03 0.  0.
          2    1    1    2  501    0 -0.87377913941E+01  0.31985066255E+02 -0.62404220573E+03  0.62492244958E+03  0.00000000000E+00 0. -1.
          1    1    1    2  502    0 -0.43900890348E+02  0.38930586794E+02  0.18189235766E+03  0.19112223455E+03  0.00000000000E+00 0. -1.
         22    1    3    3    0    0 -0.12697313790E+02 -0.82762484080E+02 -0.33056286996E+03  0.34100243627E+03  0.00000000000E+00 0.  1.
         22    1    3    3    0    0  0.65335995532E+02  0.11846831031E+02 -0.17299392484E+03  0.18529985901E+03  0.00000000000E+00 0.  1.
</event>
<event>
 7    1  0.6235964E-006  0.7864521E+02  0.7818608E-02  0.1433670E+00
          2   -1    0    0  502    0  0.00000000000E+00  0.00000000000E+00  0.47235390514E+03  0.47235390514E+03  0.00000000000E+00 0. -1.
          1   -1    0    0  501    0 -0.00000000000E+00 -0.00000000000E+00 -0.30517692620E+03  0.30517692620E+03  0.00000000000E+00 0. -1.
         25    2    1    2    0    0 -0.94351870416E+02 -0.34683518693E+02 -0.83998162587E+02  0.18106867373E+03  0.12499980548E+03 0.  0.
          2    1    1    2  501    0  0.75225229937E+02  0.57456034545E+01 -0.16364271294E+03  0.18019651682E+03  0.00000000000E+00 0. -1.
          1    1    1    2  502    0  0.19126640479E+02  0.28937915239E+02  0.41481785447E+03  0.41626564079E+03  0.00000000000E+00 0. -1.
         22    1    3    3    0    0 -0.88042167500E+02 -0.76954778303E+02 -0.69001881422E+02  0.13577452192E+03  0.00000000000E+00 0.  1.
         22    1    3    3    0    0 -0.63097029164E+01  0.42271259610E+02 -0.14996281165E+02  0.45294151815E+02  0.00000000000E+00 0.  1.
</event>
<event>
 7    1  0.6235964E-006  0.6277965E+02  0.7818608E-02  0.1532376E+00
          2   -1    0    0  502    0  0.00000000000E+00  0.00000000000E+00  0.93109765819E+03  0.93109765819E+03  0.00000000000E+00 0. -1.
          1   -1    0    0  501    0 -0.00000000000E+00 -0.00000000000E+00 -0.20603668220E+03  0.20603668220E+03  0.00000000000E+00 0. -1.
         25    2    1    2    0    0 -0.29334727627E+02  0.29034239380E+02  0.66886942668E+03  0.68169992671E+03  0.12499986727E+03 0.  0.
          2    1    1    2  501    0  0.45539553855E+02 -0.43443630976E+02 -0.19418021637E+03  0.20412534499E+03  0.00000000000E+00 0. -1.
          1    1    1    2  502    0 -0.16204826228E+02  0.14409391596E+02  0.25037176567E+03  0.25130906869E+03  0.00000000000E+00 0. -1.
         22    1    3    3    0    0  0.33376146894E+02 -0.23198344406E+02  0.35783365254E+03  0.36013477096E+03  0.00000000000E+00 0.  1.
         22    1    3    3    0    0 -0.62710874521E+02  0.52232583786E+02  0.31103577414E+03  0.32156515574E+03  0.00000000000E+00 0.  1.
</event>
<event>
 7    1  0.6235964E-006  0.5692268E+02  0.7818608E-02  0.1515595E+00
          2   -1    0    0  502    0  0.00000000000E+00  0.00000000000E+00  0.26625709350E+03  0.26625709350E+03  0.00000000000E+00 0. -1.
          1   -1    0    0  501    0 -0.00000000000E+00 -0.00000000000E+00 -0.32410791451E+03  0.32410791451E+03  0.00000000000E+00 0. -1.
         25    2    1    2    0    0  0.19664823482E+01  0.68670494805E+02  0.76958089475E+02  0.16206874116E+03  0.12499690162E+03 0.  0.
          2    1    1    2  501    0 -0.21318195092E+02 -0.16141391231E+02 -0.27554283548E+03  0.27683725208E+03  0.00000000000E+00 0. -1.
          1    1    1    2  502    0  0.19351712744E+02 -0.52529103574E+02  0.14073392500E+03  0.15145901477E+03  0.00000000000E+00 0. -1.
         22    1    3    3    0    0 -0.11328383938E+02  0.80617554202E+02 -0.16779270931E+01  0.81426886024E+02  0.00000000000E+00 0. -1.
         22    1    3    3    0    0  0.13294866286E+02 -0.11947059397E+02  0.78636016568E+02  0.80641855135E+02  0.00000000000E+00 0. -1.
</event>
<event>
 7    1  0.6235964E-006  0.1038475E+03  0.7818608E-02  0.1307582E+00
          2   -1    0    0  502    0  0.00000000000E+00  0.00000000000E+00  0.21569182319E+04  0.21569182319E+04  0.00000000000E+00 0. -1.
          1   -1    0    0  501    0 -0.00000000000E+00 -0.00000000000E+00 -0.15673305311E+02  0.15673305311E+02  0.00000000000E+00 0. -1.
         25    2    1    2    0    0 -0.15864762091E+02  0.16739923520E+02  0.82445690725E+03  0.83419726154E+03  0.12499585404E+03 0.  0.
          2    1    1    2  501    0 -0.10294948625E+03 -0.13627356297E+02  0.37420773357E+03  0.38835000892E+03  0.00000000000E+00 0. -1.
          1    1    1    2  502    0  0.11881424835E+03 -0.31125672234E+01  0.94258028573E+03  0.95004426672E+03  0.00000000000E+00 0. -1.
         22    1    3    3    0    0  0.34246089669E+02  0.44768938431E+02  0.59507216642E+03  0.59773567382E+03  0.00000000000E+00 0.  1.
         22    1    3    3    0    0 -0.50110851759E+02 -0.28029014911E+02  0.22938474083E+03  0.23646158772E+03  0.00000000000E+00 0.  1.
</event>
<event>
 7    1  0.6235964E-006  0.5723902E+02  0.7818608E-02  0.1514945E+00
          2   -1    0    0  502    0  0.00000000000E+00  0.00000000000E+00  0.35953260222E+03  0.35953260222E+03  0.00000000000E+00 0. -1.
          1   -1    0    0  501    0 -0.00000000000E+00 -0.00000000000E+00 -0.21588083224E+04  0.21588083224E+04  0.00000000000E+00 0. -1.
         25    2    1    2    0    0 -0.72442304196E+02 -0.21736632481E+02 -0.12434421724E+04  0.12519957600E+04  0.12499831336E+03 0.  0.
          2    1    1    2  501    0  0.54074727705E+02  0.23465713701E+01 -0.90978191280E+03  0.91139053728E+03  0.00000000000E+00 0. -1.
          1    1    1    2  502    0  0.18367576491E+02  0.19390061111E+02  0.35394836504E+03  0.35495462731E+03  0.00000000000E+00 0. -1.
         22    1    3    3    0    0 -0.64735455749E+01 -0.44841572610E+02 -0.91869131307E+03  0.91980780717E+03  0.00000000000E+00 0. -1.
         22    1    3    3    0    0 -0.65968758621E+02  0.23104940129E+02 -0.32475085933E+03  0.33218795283E+03  0.00000000000E+00 0. -1.
</event>
<event>
 7    1  0.6235964E-006  0.8387416E+02  0.7818608E-02  0.1368289E+00
          2   -1    0    0  502    0  0.00000000000E+00  0.00000000000E+00  0.30438701215E+03  0.30438701215E+03  0.00000000000E+00 0. -1.
          1   -1    0    0  501    0 -0.00000000000E+00 -0.00000000000E+00 -0.41319211198E+03  0.41319211198E+03  0.00000000000E+00 0. -1.
         25    2    1    2    0    0  0.86718375571E+02  0.67970595032E+02  0.52595506690E+02  0.17474069407E+03  0.12501177700E+03 0.  0.
          2    1    1    2  501    0 -0.54115437046E+02  0.69227874036E+01 -0.34110549077E+03  0.34544082178E+03  0.00000000000E+00 0. -1.
          1    1    1    2  502    0 -0.32602938524E+02 -0.74893382436E+02  0.17970488425E+03  0.19739760829E+03  0.00000000000E+00 0. -1.
         22    1    3    3    0    0 -0.13245413787E+01  0.27071643708E+02 -0.34805761508E+02  0.44114275888E+02  0.00000000000E+00 0. -1.
         22    1    3    3    0    0  0.88042916949E+02  0.40898951324E+02  0.87401268198E+02  0.13062641818E+03  0.00000000000E+00 0. -1.
</event>
<event>
 7    1  0.6235964E-006  0.1192117E+03  0.7818608E-02  0.1450757E+00
          2   -1    0    0  502    0  0.00000000000E+00  0.00000000000E+00  0.10393952563E+04  0.10393952563E+04  0.00000000000E+00 0. -1.
          1   -1    0    0  501    0 -0.00000000000E+00 -0.00000000000E+00 -0.28111806896E+03  0.28111806896E+03  0.00000000000E+00 0. -1.
         25    2    1    2    0    0 -0.55930296943E+02 -0.86544546866E+02  0.20707139129E+03  0.26290983626E+03  0.12499945680E+03 0.  0.
          2    1    1    2  501    0 -0.36713710690E+01 -0.19811326456E+02 -0.24816866484E+03  0.24898524822E+03  0.00000000000E+00 0. -1.
          1    1    1    2  502    0  0.59601668012E+02  0.10635587332E+03  0.79937446089E+03  0.80861824080E+03  0.00000000000E+00 0. -1.
         22    1    3    3    0    0 -0.37586870671E+02 -0.28911221333E+02  0.19570622892E+03  0.20136921215E+03  0.00000000000E+00 0.  1.
         22    1    3    3    0    0 -0.18343426272E+02 -0.57633325533E+02  0.11365162375E+02  0.61540624105E+02  0.00000000000E+00 0.  1.
</event>
<event>
 7    1  0.6235964E-006  0.1011956E+03  0.7818608E-02  0.1384978E+00
          2   -1    0    0  502    0  0.00000000000E+00  0.00000000000E+00  0.25406367211E+04  0.25406367211E+04  0.00000000000E+00 0. -1.
          1   -1    0    0  501    0 -0.00000000000E+00 -0.00000000000E+00 -0.89502935117E+02  0.89502935117E+02  0.00000000000E+00 0. -1.
         25    2    1    2    0    0 -0.38426466282E+02 -0.58509626146E+02  0.10125565113E+03  0.17543650693E+03  0.12500116567E+03 0.  0.
          2    1    1    2  501    0 -0.38437103384E+02 -0.88247266536E+01 -0.43746345185E+02  0.58898467163E+02  0.00000000000E+00 0. -1.
          1    1    1    2  502    0  0.76863569666E+02  0.67334352800E+02  0.23936244801E+04  0.23958046822E+04  0.00000000000E+00 0. -1.
         22    1    3    3    0    0 -0.35911822265E+02 -0.78003167412E+02  0.12047447310E+03  0.14794678697E+03  0.00000000000E+00 0.  1.
         22    1    3    3    0    0 -0.25146440171E+01  0.19493541266E+02 -0.19218821977E+02  0.27489719966E+02  0.00000000000E+00 0.  1.
</event>
<event>
 7    1  0.6235964E-006  0.6151603E+02  0.7818608E-02  0.1429299E+00
          2   -1    0    0  502    0  0.00000000000E+00  0.00000000000E+00  0.13059186699E+04  0.13059186699E+04  0.00000000000E+00 0. -1.
          1   -1    0    0  501    0 -0.00000000000E+00 -0.00000000000E+00 -0.93819735166E+03  0.93819735166E+03  0.00000000000E+00 0. -1.
         25    2    1    2    0    0  0.80751784813E+02  0.50419701227E+02  0.13920479714E+03  0.20991969336E+03  0.12500122036E+03 0.  0.
          2    1    1    2  501    0 -0.34914786800E+02 -0.50459052461E+02 -0.90133207793E+03  0.90341832670E+03  0.00000000000E+00 0. -1.
          1    1    1    2  502    0 -0.45836998012E+02  0.39351234508E-01  0.11298485991E+04  0.11307780015E+04  0.00000000000E+00 0. -1.
         22    1    3    3    0    0 -0.20120421010E+02  0.34857844556E+02  0.85699437859E+02  0.94679957320E+02  0.00000000000E+00 0. -1.
         22    1    3    3    0    0  0.10087220582E+03  0.15561856671E+02  0.53505359277E+02  0.11523973604E+03  0.00000000000E+00 0. -1.
</event>
<event>
 7    1  0.6235964E-006  0.8600448E+02  0.7818608E-02  0.1313408E+00
          2   -1    0    0  502    0  0.00000000000E+00  0.00000000000E+00  0.76522109861E+02  0.76522109861E+02  0.00000000000E+00 0. -1.
          1   -1    0    0  501    0 -0.00000000000E+00 -0.00000000000E+00 -0.78008197613E+03  0.78008197613E+03  0.00000000000E+00 0. -1.
         25    2    1    2    0    0 -0.10853255949E+03  0.19836820679E+02 -0.26839622375E+03  0.31596576278E+03  0.12500005763E+03 0.  0.
          2    1    1    2  501    0  0.43771792979E+02 -0.75743005283E+02 -0.44591174712E+03  0.45441199250E+03  0.00000000000E+00 0. -1.
          1    1    1    2  502    0  0.64760766508E+02  0.55906184604E+02  0.10748104593E+02  0.86226330712E+02  0.00000000000E+00 0. -1.
         22    1    3    3    0    0 -0.64168806012E+02 -0.11498684720E+02 -0.25040086991E+03  0.25874785230E+03  0.00000000000E+00 0.  1.
         22    1    3    3    0    0 -0.44363753475E+02  0.31335505399E+02 -0.17995353837E+02  0.57217910489E+02  0.00000000000E+00 0.  1.
</event>
<event>
 7    1  0.6235964E-006  0.1209366E+03  0.7818608E-02  0.1290262E+00
          2   -1    0    0  502    0  0.00000000000E+00  0.00000000000E+00  0.10057986696E+04  0.10057986696E+04  0.00000000000E+00 0. -1.
          1   -1    0    0  501    0 -0.00000000000E+00 -0.00000000000E+00 -0.75220026302E+02  0.75220026302E+02  0.00000000000E+00 0. -1.
         25    2    1    2    0    0 -0.67231434106E+02 -0.13680452435E+03  0.47269412185E+03  0.51214945695E+03  0.12498715855E+03 0.  0.
          2    1    1    2  501    0 -0.26200423854E+02  0.70559251189E+02 -0.19651852466E+02  0.77789880086E+02  0.00000000000E+00 0. -1.
          1    1    1    2  502    0  0.93431857960E+02  0.66245273161E+02  0.47753637391E+03  0.49107935887E+03  0.00000000000E+00 0. -1.
         22    1    3    3    0    0 -0.88525170199E+01 -0.21181107016E+02  0.27403461523E+03  0.27499450303E+03  0.00000000000E+00 0. -1.
         22    1    3    3    0    0 -0.58378917086E+02 -0.11562341733E+03  0.19865950663E+03  0.23715495392E+03  0.00000000000E+00 0. -1.
</event>
<event>
 7    1  0.6235964E-006  0.4282362E+03  0.7818608E-02  0.1264003E+00
          2   -1    0    0  502    0  0.00000000000E+00  0.00000000000E+00  0.73975356650E+03  0.73975356650E+03  0.00000000000E+00 0. -1.
          1   -1    0    0  501    0 -0.00000000000E+00 -0.00000000000E+00 -0.42051175065E+03  0.42051175065E+03  0.00000000000E+00 0. -1.
         25    2    1    2    0    0 -0.17936041176E+03  0.40259990492E+03  0.95734229736E+02  0.46802278599E+03  0.12499377870E+03 0.  0.
          2    1    1    2  501    0  0.25496540203E+02 -0.98179981600E+01 -0.13555265061E+03  0.13827865974E+03  0.00000000000E+00 0. -1.
          1    1    1    2  502    0  0.15386387156E+03 -0.39278190676E+03  0.35906023672E+03  0.55396387142E+03  0.00000000000E+00 0. -1.
         22    1    3    3    0    0 -0.66326389382E+02  0.23294152677E+03 -0.13913209699E+01  0.24220421259E+03  0.00000000000E+00 0. -1.
         22    1    3    3    0    0 -0.11303402238E+03  0.16965837815E+03  0.97125550706E+02  0.22581857340E+03  0.00000000000E+00 0. -1.
</event>
<event>
 7    1  0.6235964E-006  0.1928424E+03  0.7818608E-02  0.1269142E+00
          2   -1    0    0  502    0  0.00000000000E+00  0.00000000000E+00  0.68695776110E+03  0.68695776110E+03  0.00000000000E+00 0. -1.
          1   -1    0    0  501    0 -0.00000000000E+00 -0.00000000000E+00 -0.40737877618E+03  0.40737877618E+03  0.00000000000E+00 0. -1.
         25    2    1    2    0    0  0.12170357984E+03 -0.91615536374E+02 -0.31568608517E+02  0.19956641576E+03  0.12500003763E+03 0.  0.
          2    1    1    2  501    0  0.57491249819E+02  0.50690636263E+01 -0.27228427498E+03  0.27833373064E+03  0.00000000000E+00 0. -1.
          1    1    1    2  502    0 -0.17919482965E+03  0.86546472748E+02  0.58343186841E+03  0.61643639087E+03  0.00000000000E+00 0. -1.
         22    1    3    3    0    0  0.14359929920E+03 -0.81817315304E+02 -0.72848955208E+01  0.16543246815E+03  0.00000000000E+00 0. -1.
         22    1    3    3    0    0 -0.21895719369E+02 -0.97982210701E+01 -0.24283712996E+02  0.34133947614E+02  0.00000000000E+00 0. -1.
</event>
<event>
 7    1  0.6235964E-006  0.7229896E+02  0.7818608E-02  0.1389483E+00
          2   -1    0    0  502    0  0.00000000000E+00  0.00000000000E+00  0.72872239139E+03  0.72872239139E+03  0.00000000000E+00 0. -1.
          1   -1    0    0  501    0 -0.00000000000E+00 -0.00000000000E+00 -0.37032243158E+03  0.37032243158E+03  0.00000000000E+00 0. -1.
         25    2    1    2    0    0 -0.11838258657E+02  0.17560977279E+02  0.22514212191E+03  0.25838546053E+03  0.12500215544E+03 0.  0.
          2    1    1    2  501    0  0.21316011127E+02 -0.69939567075E+02 -0.34844044188E+03  0.35602901133E+03  0.00000000000E+00 0. -1.
          1    1    1    2  502    0 -0.94777524705E+01  0.52378589796E+02  0.48169827979E+03  0.48463035110E+03  0.00000000000E+00 0. -1.
         22    1    3    3    0    0  0.51337296048E+02  0.94046929059E+01  0.15540373557E+03  0.16393378921E+03  0.00000000000E+00 0.  1.
         22    1    3    3    0    0 -0.63175554705E+02  0.81562843730E+01  0.69738386336E+02  0.94451671323E+02  0.00000000000E+00 0.  1.
</event>
<event>
 7    1  0.6235964E-006  0.6894046E+02  0.7818608E-02  0.1468378E+00
          2   -1    0    0  502    0  0.00000000000E+00  0.00000000000E+00  0.14410440701E+04  0.14410440701E+04  0.00000000000E+00 0. -1.
          1   -1    0    0  501    0 -0.00000000000E+00 -0.00000000000E+00 -0.16076566660E+02  0.16076566660E+02  0.00000000000E+00 0. -1.
         25    2    1    2    0    0 -0.36878120333E+02 -0.53325751376E+02  0.39924502135E+03  0.42334990776E+03  0.12499970324E+03 0.  0.
          2    1    1    2  501    0  0.14544235462E+02  0.74320504838E+02  0.38854655493E+03  0.39585792600E+03  0.00000000000E+00 0. -1.
          1    1    1    2  502    0  0.22333884871E+02 -0.20994753463E+02  0.63717592711E+03  0.63791280295E+03  0.00000000000E+00 0. -1.
         22    1    3    3    0    0 -0.35629965799E+02  0.34916867214E+02  0.18578410791E+03  0.19236532128E+03  0.00000000000E+00 0.  1.
         22    1    3    3    0    0 -0.12481545340E+01 -0.88242618590E+02  0.21346091345E+03  0.23098458649E+03  0.00000000000E+00 0.  1.
</event>
<event>
 7    1  0.6235964E-006  0.2087104E+03  0.7818608E-02  0.1221617E+00
          2   -1    0    0  502    0  0.00000000000E+00  0.00000000000E+00  0.74304891107E+03  0.74304891107E+03  0.00000000000E+00 0. -1.
          1   -1    0    0  501    0 -0.00000000000E+00 -0.00000000000E+00 -0.57430168821E+03  0.57430168821E+03  0.00000000000E+00 0. -1.
         25    2    1    2    0    0  0.39885074150E+02 -0.17675521359E+03  0.18811139249E+03  0.28955891364E+03  0.12500097525E+03 0.  0.
          2    1    1    2  501    0  0.40022195583E+02  0.20868872593E+03 -0.49802227065E+03  0.54146001009E+03  0.00000000000E+00 0. -1.
          1    1    1    2  502    0 -0.79907269733E+02 -0.31933512335E+02  0.47865810102E+03  0.48633167554E+03  0.00000000000E+00 0. -1.
         22    1    3    3    0    0 -0.10841745387E+02 -0.10972523791E+03  0.17147939912E+03  0.20386847623E+03  0.00000000000E+00 0. -1.
         22    1    3    3    0    0  0.50726819537E+02 -0.67029975679E+02  0.16631993366E+02  0.85690437408E+02  0.00000000000E+00 0. -1.
</event>
<event>
 7    1  0.6235964E-006  0.3752047E+02  0.7818608E-02  0.1605961E+00
          2   -1    0    0  502    0  0.00000000000E+00  0.00000000000E+00  0.58949011933E+03  0.58949011933E+03  0.00000000000E+00 0. -1.
          1   -1    0    0  501    0 -0.00000000000E+00 -0.00000000000E+00 -0.24349418706E+03  0.24349418706E+03  0.00000000000E+00 0. -1.
         25    2    1    2    0    0 -0.13190751126E+02  0.56182448693E+02  0.73947982959E+01  0.13786933462E+03  0.12499122742E+03 0.  0.
          2    1    1    2  501    0  0.15843267125E+02 -0.33456583717E+02 -0.17607813745E+03  0.17992738145E+03  0.00000000000E+00 0. -1.
          1    1    1    2  502    0 -0.26525159992E+01 -0.22725864976E+02  0.51467927143E+03  0.51518759032E+03  0.00000000000E+00 0. -1.
         22    1    3    3    0    0 -0.14185180085E+02  0.48093208274E+02  0.63649463603E+02  0.81027342503E+02  0.00000000000E+00 0.  1.
         22    1    3    3    0    0  0.99442895886E+00  0.80892404189E+01 -0.56254665307E+02  0.56841992121E+02  0.00000000000E+00 0.  1.
</event>
<event>
 7    1  0.6235964E-006  0.1205044E+03  0.7818608E-02  0.1260008E+00
          2   -1    0    0  502    0  0.00000000000E+00  0.00000000000E+00  0.11394586727E+04  0.11394586727E+04  0.00000000000E+00 0. -1.
          1   -1    0    0  501    0 -0.00000000000E+00 -0.00000000000E+00 -0.13259882989E+03  0.13259882989E+03  0.00000000000E+00 0. -1.
         25    2    1    2    0    0 -0.30198898609E+02  0.31618426495E+02  0.94981664779E+02  0.16296767288E+03  0.12500098954E+03 0.  0.
          2    1    1    2  501    0  0.17681003504E+02  0.99406557949E+02 -0.67147414233E+02  0.12125616226E+03  0.00000000000E+00 0. -1.
          1    1    1    2  502    0  0.12517895105E+02 -0.13102498444E+03  0.97902559229E+03  0.98783366748E+03  0.00000000000E+00 0. -1.
         22    1    3    3    0    0 -0.34150017261E+02 -0.31119756781E+02  0.88420190929E+02  0.99763686304E+02  0.00000000000E+00 0.  1.
         22    1    3    3    0    0  0.39511186520E+01  0.62738183277E+02  0.65614738506E+01  0.63203986572E+02  0.00000000000E+00 0.  1.
</event>
<event>
 7    1  0.6235964E-006  0.1686170E+03  0.7818608E-02  0.1263650E+00
          2   -1    0    0  502    0  0.00000000000E+00  0.00000000000E+00  0.30126838686E+03  0.30126838686E+03  0.00000000000E+00 0. -1.
          1   -1    0    0  501    0 -0.00000000000E+00 -0.00000000000E+00 -0.11895554101E+04  0.11895554101E+04  0.00000000000E+00 0. -1.
         25    2    1    2    0    0  0.19981755710E+03 -0.29530821688E+02 -0.34628628487E+03  0.41992642513E+03  0.12499954352E+03 0.  0.
          2    1    1    2  501    0 -0.51379757152E+02 -0.46991414876E+02 -0.77837351461E+03  0.78148154218E+03  0.00000000000E+00 0. -1.
          1    1    1    2  502    0 -0.14843779995E+03  0.76522236564E+02  0.23637277621E+03  0.28941582969E+03  0.00000000000E+00 0. -1.
         22    1    3    3    0    0  0.91824834526E+02  0.48199855742E+02 -0.16861043476E+03  0.19795076418E+03  0.00000000000E+00 0. -1.
         22    1    3    3    0    0  0.10799272258E+03 -0.77730677430E+02 -0.17767585011E+03  0.22197566095E+03  0.00000000000E+00 0. -1.
</event>
<event>
 7    1  0.6235964E-006  0.5938847E+02  0.7818608E-02  0.1530989E+00
          2   -1    0    0  502    0  0.00000000000E+00  0.00000000000E+00  0.17175660635E+03  0.17175660635E+03  0.00000000000E+00 0. -1.
          1   -1    0    0  501    0 -0.00000000000E+00 -0.00000000000E+00 -0.14781637219E+04  0.14781637219E+04  0.00000000000E+00 0. -1.
         25    2    1    2    0    0 -0.12229263081E+02  0.36497078452E+02 -0.54518721079E+03  0.56065665799E+03  0.12500080690E+03 0.  0.
          2    1    1    2  501    0  0.47734482608E+01  0.22635326556E+02 -0.91967727146E+03  0.91996816654E+03  0.00000000000E+00 0. -1.
          1    1    1    2  502    0  0.74558148205E+01 -0.59132405008E+02  0.15845736674E+03  0.16929550369E+03  0.00000000000E+00 0. -1.
         22    1    3    3    0    0  0.49942914421E+02 -0.10345716845E+02 -0.26463928263E+03  0.26950932910E+03  0.00000000000E+00 0.  1.
         22    1    3    3    0    0 -0.62172177503E+02  0.46842795297E+02 -0.28054792816E+03  0.29114732889E+03  0.00000000000E+00 0.  1.
</event>
<event>
 7    1  0.6235964E-006  0.2087857E+03  0.7818608E-02  0.1314114E+00
          2   -1    0    0  502    0  0.00000000000E+00  0.00000000000E+00  0.14723521107E+04  0.14723521107E+04  0.00000000000E+00 0. -1.
          1   -1    0    0  501    0 -0.00000000000E+00 -0.00000000000E+00 -0.74175519121E+02  0.74175519121E+02  0.00000000000E+00 0. -1.
         25    2    1    2    0    0  0.16818275133E+03 -0.71946539554E+02  0.62809540727E+03  0.66602609544E+03  0.12500070707E+03 0.  0.
          2    1    1    2  501    0 -0.19729651215E+03  0.91405721909E+02  0.16135746678E+03  0.27077140135E+03  0.00000000000E+00 0. -1.
          1    1    1    2  502    0  0.29113760818E+02 -0.19459182355E+02  0.60872371755E+03  0.60973013305E+03  0.00000000000E+00 0. -1.
         22    1    3    3    0    0  0.14798099348E+02  0.32668467344E+02  0.97851252008E+02  0.10421650552E+03  0.00000000000E+00 0.  1.
         22    1    3    3    0    0  0.15338465198E+03 -0.10461500690E+03  0.53024415527E+03  0.56180958992E+03  0.00000000000E+00 0.  1.
</event>
<event>
 7    1  0.6235964E-006  0.5618693E+02  0.7818608E-02  0.1429448E+00
          2   -1    0    0  502    0  0.00000000000E+00  0.00000000000E+00  0.28312610436E+03  0.28312610436E+03  0.00000000000E+00 0. -1.
          1   -1    0    0  501    0 -0.00000000000E+00 -0.00000000000E+00 -0.74889110872E+03  0.74889110872E+03  0.00000000000E+00 0. -1.
         25    2    1    2    0    0  0.19812521188E+02  0.48709502145E+02 -0.54188722887E+02  0.14603586579E+03  0.12499961925E+03 0.  0.
          2    1    1    2  501    0  0.30311690320E+02 -0.48119728479E+02 -0.64486497352E+03  0.64736785595E+03  0.00000000000E+00 0. -1.
          1    1    1    2  502    0 -0.50124211509E+02 -0.58977366578E+00  0.23328869205E+03  0.23861349134E+03  0.00000000000E+00 0. -1.
         22    1    3    3    0    0  0.17806092580E+02  0.50335786268E+02  0.30378209093E+02  0.61429503497E+02  0.00000000000E+00 0. -1.
         22    1    3    3    0    0  0.20064286088E+01 -0.16262841233E+01 -0.84566931980E+02  0.84606362292E+02  0.00000000000E+00 0. -1.
</event>
<event>
 7    1  0.6235964E-006  0.1432086E+03  0.7818608E-02  0.1382732E+00
          2   -1    0    0  502    0  0.00000000000E+00  0.00000000000E+00  0.75988688085E+02  0.75988688085E+02  0.00000000000E+00 0. -1.
          1   -1    0    0  501    0 -0.00000000000E+00 -0.00000000000E+00 -0.17708790366E+04  0.17708790366E+04  0.00000000000E+00 0. -1.
         25    2    1    2    0    0 -0.22667719865E+01 -0.13295298358E+03 -0.14402212305E+04  0.14517374516E+04  0.12499120572E+03 0.  0.
          2    1    1    2  501    0 -0.27276706671E+02 -0.78342440934E+01 -0.24957828546E+03  0.25118661326E+03  0.00000000000E+00 0. -1.
          1    1    1    2  502    0  0.29543478658E+02  0.14078722768E+03 -0.50908324860E+01  0.14394365975E+03  0.00000000000E+00 0. -1.
         22    1    3    3    0    0  0.55568083601E+02 -0.30173334576E+02 -0.42241029512E+03  0.42711672814E+03  0.00000000000E+00 0. -1.
         22    1    3    3    0    0 -0.57834855588E+02 -0.10277964901E+03 -0.10178109354E+04  0.10246207235E+04  0.00000000000E+00 0. -1.
</event>
<event>
 7    1  0.6235964E-006  0.6374252E+02  0.7818608E-02  0.1405042E+00
          2   -1    0    0  502    0  0.00000000000E+00  0.00000000000E+00  0.18529126613E+02  0.18529126613E+02  0.00000000000E+00 0. -1.
          1   -1    0    0  501    0 -0.00000000000E+00 -0.00000000000E+00 -0.25173520162E+04  0.25173520162E+04  0.00000000000E+00 0. -1.
         25    2    1    2    0    0 -0.14071020886E+02 -0.75523606798E+02 -0.14443959245E+04  0.14518288668E+04  0.12500265084E+03 0.  0.
          2    1    1    2  501    0 -0.37698097581E+02  0.37749555999E+02 -0.99570029273E+03  0.99712850149E+03  0.00000000000E+00 0. -1.
          1    1    1    2  502    0  0.51769118467E+02  0.37774050799E+02 -0.58726672272E+02  0.86923774520E+02  0.00000000000E+00 0. -1.
         22    1    3    3    0    0  0.13772454867E+02  0.13504517383E+02 -0.84481787871E+03  0.84503804689E+03  0.00000000000E+00 0.  1.
         22    1    3    3    0    0 -0.27843475753E+02 -0.89028124181E+02 -0.59957804583E+03  0.60679081987E+03  0.00000000000E+00 0.  1.
</event>
<event>
 7    1  0.6235964E-006  0.4423078E+02  0.7818608E-02  0.1530352E+00
          2   -1    0    0  502    0  0.00000000000E+00  0.00000000000E+00  0.54557192881E+02  0.54557192881E+02  0.00000000000E+00 0. -1.
          1   -1    0    0  501    0 -0.00000000000E+00 -0.00000000000E+00 -0.59956534299E+03  0.59956534299E+03  0.00000000000E+00 0. -1.
         25    2    1    2    0    0 -0.43445860909E+02  0.52068710401E+01 -0.10921563495E+03  0.17166270464E+03  0.12500149964E+03 0.  0.
          2    1    1    2  501    0  0.53768564567E+01 -0.30724594329E+02 -0.43551328130E+03  0.43662882346E+03  0.00000000000E+00 0. -1.
          1    1    1    2  502    0  0.38069004452E+02  0.25517723289E+02 -0.27923385827E+00  0.45831007772E+02  0.00000000000E+00 0. -1.
         22    1    3    3    0    0 -0.13193041145E+02 -0.13053536045E+02 -0.12956371725E+03  0.13088624055E+03  0.00000000000E+00 0.  1.
         22    1    3    3    0    0 -0.30252819764E+02  0.18260407085E+02  0.20348082301E+02  0.40776464093E+02  0.00000000000E+00 0.  1.
</event>
<event>
 7    1  0.6235964E-006  0.6869670E+02  0.7818608E-02  0.1501265E+00
          2   -1    0    0  502    0  0.00000000000E+00  0.00000000000E+00  0.47749368505E+03  0.47749368505E+03  0.00000000000E+00 0. -1.
          1   -1    0    0  501    0 -0.00000000000E+00 -0.00000000000E+00 -0.64442645016E+03  0.64442645016E+03  0.00000000000E+00 0. -1.
         25    2    1    2    0    0  0.82586315898E+02  0.48065990856E+01  0.17763860584E+03  0.23243101559E+03  0.12500039902E+03 0.  0.
          2    1    1    2  501    0 -0.67127880767E+02  0.14100161630E+02 -0.61457112152E+03  0.61838712013E+03  0.00000000000E+00 0. -1.
          1    1    1    2  502    0 -0.15458435131E+02 -0.18906760716E+02  0.26999975058E+03  0.27110199949E+03  0.00000000000E+00 0. -1.
         22    1    3    3    0    0  0.25680220111E+02 -0.58353284840E+02  0.62235703297E+02  0.89094681780E+02  0.00000000000E+00 0.  1.
         22    1    3    3    0    0  0.56906095787E+02  0.63159883926E+02  0.11540290254E+03  0.14333633381E+03  0.00000000000E+00 0.  1.
</event>
<event>
 7    1  0.6235964E-006  0.5336980E+02  0.7818608E-02  0.1496135E+00
          2   -1    0    0  502    0  0.00000000000E+00  0.00000000000E+00  0.79902808998E+03  0.79902808998E+03  0.00000000000E+00 0. -1.
          1   -1    0    0  501    0 -0.00000000000E+00 -0.00000000000E+00 -0.75694568410E+02  0.75694568410E+02  0.00000000000E+00 0. -1.
         25    2    1    2    0    0 -0.82279995591E+02 -0.32846305874E+01  0.29621541479E+03  0.33188448189E+03  0.12499180329E+03 0.  0.
          2    1    1    2  501    0  0.51714588785E+02 -0.79516822406E+01 -0.45355189804E+02  0.69243925263E+02  0.00000000000E+00 0. -1.
          1    1    1    2  502    0  0.30565406806E+02  0.11236312828E+02  0.47247329658E+03  0.47359425123E+03  0.00000000000E+00 0. -1.
         22    1    3    3    0    0 -0.64997723047E+02 -0.45733982991E+02  0.26441361501E+03  0.27609936799E+03  0.00000000000E+00 0.  1.
         22    1    3    3    0    0 -0.17282272544E+02  0.42449352404E+02  0.31801799778E+02  0.55785113901E+02  0.00000000000E+00 0.  1.
</event>
<event>
 7    1  0.6235964E-006  0.5331415E+02  0.7818608E-02  0.1456160E+00
          2   -1    0    0  502    0  0.00000000000E+00  0.00000000000E+00  0.10188877573E+04  0.10188877573E+04  0.00000000000E+00 0. -1.
          1   -1    0    0  501    0 -0.00000000000E+00 -0.00000000000E+00 -0.50604555547E+03  0.50604555547E+03  0.00000000000E+00 0. -1.
         25    2    1    2    0    0 -0.30567812535E+02 -0.75333473235E+02  0.12798460382E+03  0.19650643586E+03  0.12500078866E+03 0.  0.
          2    1    1    2  501    0  0.41347804639E+02  0.33393475338E+02 -0.46973784346E+03  0.47273502803E+03  0.00000000000E+00 0. -1.
          1    1    1    2  502    0 -0.10779992104E+02  0.41939997896E+02  0.85459544149E+03  0.85569184890E+03  0.00000000000E+00 0. -1.
         22    1    3    3    0    0  0.24667778622E+02  0.17112165856E+02  0.65374239561E+02  0.71938284109E+02  0.00000000000E+00 0.  1.
         22    1    3    3    0    0 -0.55235591156E+02 -0.92445639091E+02  0.62610364257E+02  0.12456815175E+03  0.00000000000E+00 0.  1.
</event>
<event>
 7    1  0.6235964E-006  0.4752342E+02  0.7818608E-02  0.1513281E+00
          2   -1    0    0  502    0  0.00000000000E+00  0.00000000000E+00  0.58846722048E+03  0.58846722048E+03  0.00000000000E+00 0. -1.
          1   -1    0    0  501    0 -0.00000000000E+00 -0.00000000000E+00 -0.13655573619E+04  0.13655573619E+04  0.00000000000E+00 0. -1.
         25    2    1    2    0    0 -0.18343826464E+01  0.53172008228E+02 -0.62463470055E+02  0.14952170375E+03  0.12499770950E+03 0.  0.
          2    1    1    2  501    0 -0.28176390346E+02 -0.16260052099E+02 -0.12583158936E+04  0.12587363450E+04  0.00000000000E+00 0. -1.
          1    1    1    2  502    0  0.30010772992E+02 -0.36911956129E+02  0.54368922214E+03  0.54576653367E+03  0.00000000000E+00 0. -1.
         22    1    3    3    0    0 -0.60530616143E+02  0.10447919887E+02 -0.40868762844E+02  0.73779199623E+02  0.00000000000E+00 0. -1.
         22    1    3    3    0    0  0.58696233496E+02  0.42724088341E+02 -0.21594707211E+02  0.75742504123E+02  0.00000000000E+00 0. -1.
</event>
<event>
 7    1  0.6235964E-006  0.1439467E+03  0.7818608E-02  0.1245647E+00
          2   -1    0    0  502    0  0.00000000000E+00  0.00000000000E+00  0.31649060816E+04  0.31649060816E+04  0.00000000000E+00 0. -1.
          1   -1    0    0  501    0 -0.00000000000E+00 -0.00000000000E+00 -0.33287522643E+02  0.33287522643E+02  0.00000000000E+00 0. -1.
         25    2    1    2    0    0  0.19352380523E+02  0.11367781440E+02  0.84513665611E+03  0.85462580198E+03  0.12500221130E+03 0.  0.
          2    1    1    2  501    0 -0.65699039181E+02  0.12807922261E+03  0.17331155363E+03  0.22529435332E+03  0.00000000000E+00 0. -1.
          1    1    1    2  502    0  0.46346658658E+02 -0.13944700405E+03  0.21131703492E+04  0.21182734489E+04  0.00000000000E+00 0. -1.
         22    1    3    3    0    0  0.33912595654E+02  0.76391276337E+01  0.59981259101E+02  0.69326559545E+02  0.00000000000E+00 0. -1.
         22    1    3    3    0    0 -0.14560215132E+02  0.37286538061E+01  0.78515539701E+03  0.78529924244E+03  0.00000000000E+00 0. -1.
</event>
<event>
 7    1  0.6235964E-006  0.9972008E+02  0.7818608E-02  0.1296319E+00
          2   -1    0    0  502    0  0.00000000000E+00  0.00000000000E+00  0.68684234742E+03  0.68684234742E+03  0.00000000000E+00 0. -1.
          1   -1    0    0  501    0 -0.00000000000E+00 -0.00000000000E+00 -0.81797016159E+03  0.81797016159E+03  0.00000000000E+00 0. -1.
         25    2    1    2    0    0  0.14425390671E+03 -0.57712885628E+02  0.24402865807E+03  0.31514043801E+03  0.12499417162E+03 0.  0.
          2    1    1    2  501    0 -0.98158637298E+02 -0.15212922272E+02 -0.77463821156E+03  0.78098073593E+03  0.00000000000E+00 0. -1.
          1    1    1    2  502    0 -0.46095269416E+02  0.72925807901E+02  0.39948173931E+03  0.40869133508E+03  0.00000000000E+00 0. -1.
         22    1    3    3    0    0  0.93435438804E+02 -0.61227426616E+02  0.23916667367E+03  0.26396908302E+03  0.00000000000E+00 0.  1.
         22    1    3    3    0    0  0.50818467910E+02  0.35145409877E+01  0.48619843963E+01  0.51171354988E+02  0.00000000000E+00 0.  1.
</event>
<event>
 7    1  0.6235964E-006  0.9940630E+02  0.7818608E-02  0.1350362E+00
          2   -1    0    0  502    0  0.00000000000E+00  0.00000000000E+00  0.31066622609E+02  0.31066622609E+02  0.00000000000E+00 0. -1.
          1   -1    0    0  501    0 -0.00000000000E+00 -0.00000000000E+00 -0.12256267818E+04  0.12256267818E+04  0.00000000000E+00 0. -1.
         25    2    1    2    0    0 -0.20370113967E+02 -0.72771353922E+02 -0.28412081713E+03  0.31947527524E+03  0.12501680395E+03 0.  0.
          2    1    1    2  501    0  0.93835999958E+01 -0.52695586912E+02 -0.59738773351E+03  0.59978077743E+03  0.00000000000E+00 0. -1.
          1    1    1    2  502    0  0.10986513971E+02  0.12546694083E+03 -0.31305160858E+03  0.33743735177E+03  0.00000000000E+00 0. -1.
         22    1    3    3    0    0  0.70384672942E+01 -0.81632658342E+02 -0.84187395194E+02  0.11747743800E+03  0.00000000000E+00 0.  1.
         22    1    3    3    0    0 -0.27408581261E+02  0.88613044200E+01 -0.19993342193E+03  0.20199783724E+03  0.00000000000E+00 0.  1.
</event>
<event>
 7    1  0.6235964E-006  0.8606698E+02  0.7818608E-02  0.1447983E+00
          2   -1    0    0  502    0  0.00000000000E+00  0.00000000000E+00  0.42760764923E+03  0.42760764923E+03  0.00000000000E+00 0. -1.
          1   -1    0    0  501    0 -0.00000000000E+00 -0.00000000000E+00 -0.19055007547E+04  0.19055007547E+04  0.00000000000E+00 0. -1.
         25    2    1    2    0    0  0.31884141288E+02  0.62067635762E+02  0.77560806516E+02  0.16282213361E+03  0.12500551432E+03 0.  0.
          2    1    1    2  501    0 -0.60364588517E+02 -0.61574400022E+02 -0.18612099220E+04  0.18632062860E+04  0.00000000000E+00 0. -1.
          1    1    1    2  502    0  0.28480447229E+02 -0.49323574073E+00  0.30575601000E+03  0.30707998438E+03  0.00000000000E+00 0. -1.
         22    1    3    3    0    0  0.70051979401E+02  0.30384220091E+02  0.83164693498E+02  0.11290193485E+03  0.00000000000E+00 0. -1.
         22    1    3    3    0    0 -0.38167838113E+02  0.31683415671E+02 -0.56038869818E+01  0.49920198759E+02  0.00000000000E+00 0. -1.
</event>
<event>
 7    1  0.6235964E-006  0.6673997E+02  0.7818608E-02  0.1524011E+00
          2   -1    0    0  502    0  0.00000000000E+00  0.00000000000E+00  0.28856349363E+04  0.28856349363E+04  0.00000000000E+00 0. -1.
          1   -1    0    0  501    0 -0.00000000000E+00 -0.00000000000E+00 -0.19486605230E+03  0.19486605230E+03  0.00000000000E+00 0. -1.
         25    2    1    2    0    0  0.26289826801E+02 -0.37085111642E+02  0.56024441031E+02  0.14432740513E+03  0.12500080551E+03 0.  0.
          2    1    1    2  501    0  0.10534742392E+02 -0.18808745036E+02 -0.14953938186E+03  0.15108532826E+03  0.00000000000E+00 0. -1.
          1    1    1    2  502    0 -0.36824569193E+02  0.55893856679E+02  0.27842838248E+04  0.27850882552E+04  0.00000000000E+00 0. -1.
         22    1    3    3    0    0 -0.42479168483E+02 -0.46637325481E+02  0.32908261666E+02  0.71151061615E+02  0.00000000000E+00 0. -1.
         22    1    3    3    0    0  0.68768995283E+02  0.95522138389E+01  0.23116179365E+02  0.73176343513E+02  0.00000000000E+00 0. -1.
</event>
<event>
 7    1  0.6235964E-006  0.1395597E+03  0.7818608E-02  0.1411029E+00
          2   -1    0    0  502    0  0.00000000000E+00  0.00000000000E+00  0.96120771668E+03  0.96120771668E+03  0.00000000000E+00 0. -1.
          1   -1    0    0  501    0 -0.00000000000E+00 -0.00000000000E+00 -0.18297543752E+04  0.18297543752E+04  0.00000000000E+00 0. -1.
         25    2    1    2    0    0 -0.15138905029E+03 -0.56207250932E+02 -0.26306311122E+02  0.20590003343E+03  0.12499960863E+03 0.  0.
          2    1    1    2  501    0  0.13185635590E+03  0.43593350531E+02 -0.17106816882E+04  0.17163095050E+04  0.00000000000E+00 0. -1.
          1    1    1    2  502    0  0.19532694384E+02  0.12613900401E+02  0.86844134080E+03  0.86875255340E+03  0.00000000000E+00 0. -1.
         22    1    3    3    0    0 -0.48782352590E+02 -0.60839449106E+02 -0.59357132936E+02  0.98002172027E+02  0.00000000000E+00 0. -1.
         22    1    3    3    0    0 -0.10260669770E+03  0.46321981738E+01  0.33050821814E+02  0.10789786140E+03  0.00000000000E+00 0. -1.
</event>
<event>
 7    1  0.6235964E-006  0.4680609E+02  0.7818608E-02  0.1482600E+00
          2   -1    0    0  502    0  0.00000000000E+00  0.00000000000E+00  0.21239851043E+03  0.21239851043E+03  0.00000000000E+00 0. -1.
          1   -1    0    0  501    0 -0.00000000000E+00 -0.00000000000E+00 -0.34721226996E+03  0.34721226996E+03  0.00000000000E+00 0. -1.
         25    2    1    2    0    0  0.76720724846E+02  0.29922567306E+02  0.72362739456E+02  0.16626108532E+03  0.12499981110E+03 0.  0.
          2    1    1    2  501    0 -0.34348719235E+02 -0.22031246214E+02 -0.29378703495E+03  0.29660753907E+03  0.00000000000E+00 0. -1.
          1    1    1    2  502    0 -0.42372005611E+02 -0.78913210914E+01  0.86610535966E+02  0.96742156005E+02  0.00000000000E+00 0. -1.
         22    1    3    3    0    0  0.33949970002E+02  0.62691052359E+02 -0.55758314505E+01  0.71511246706E+02  0.00000000000E+00 0.  1.
         22    1    3    3    0    0  0.42770754845E+02 -0.32768485053E+02  0.77938570907E+02  0.94749838615E+02  0.00000000000E+00 0.  1.
</event>
<event>
 7    1  0.6235964E-006  0.9005697E+02  0.7818608E-02  0.1349932E+00
          2   -1    0    0  502    0  0.00000000000E+00  0.00000000000E+00  0.42526959902E+03  0.42526959902E+03  0.00000000000E+00 0. -1.
          1   -1    0    0  501    0 -0.00000000000E+00 -0.00000000000E+00 -0.15003998050E+03  0.15003998050E+03  0.00000000000E+00 0. -1.
         25    2    1    2    0    0 -0.77589388759E+02 -0.58624045144E+02 -0.53626960724E+02  0.16720409965E+03  0.12499787241E+03 0.  0.
          2    1    1    2  501    0 -0.13062284848E+02  0.57841927457E+02 -0.74774803111E+01  0.59768089891E+02  0.00000000000E+00 0. -1.
          1    1    1    2  502    0  0.90651673607E+02  0.78211768667E+00  0.33633405955E+03  0.34833738997E+03  0.00000000000E+00 0. -1.
         22    1    3    3    0    0 -0.25649814585E+02 -0.52402734395E+02 -0.87293585317E+02  0.10499585515E+03  0.00000000000E+00 0.  1.
         22    1    3    3    0    0 -0.51939574174E+02 -0.62213107488E+01  0.33666624593E+02  0.62208244504E+02  0.00000000000E+00 0.  1.
</event>
<event>
 7    1  0.6235964E-006  0.1269249E+03  0.7818608E-02  0.1382474E+00
          2   -1    0    0  502    0  0.00000000000E+00  0.00000000000E+00  0.10593663049E+04  0.10593663049E+04  0.00000000000E+00 0. -1.
          1   -1    0    0  501    0 -0.00000000000E+00 -0.00000000000E+00 -0.18705218435E+03  0.18705218435E+03  0.00000000000E+00 0. -1.
         25    2    1    2    0    0  0.78141238803E+02  0.11482479588E+03  0.12317058567E+03  0.22378960482E+03  0.12498002682E+03 0.  0.
          2    1    1    2  501    0 -0.46104267421E+02 -0.11663021999E+03 -0.10762391877E+03  0.16526076237E+03  0.00000000000E+00 0. -1.
          1    1    1    2  502    0 -0.32036971383E+02  0.18054241125E+01  0.85676745366E+03  0.85736812207E+03  0.00000000000E+00 0. -1.
         22    1    3    3    0    0  0.52835711548E+02  0.59037862802E+02  0.13946791582E+03  0.16040068953E+03  0.00000000000E+00 0.  1.
         22    1    3    3    0    0  0.25305527255E+02  0.55786933074E+02 -0.16297330155E+02  0.63388915290E+02  0.00000000000E+00 0.  1.
</event>
<event>
 7    1  0.6235964E-006  0.6789436E+02  0.7818608E-02  0.1431584E+00
          2   -1    0    0  502    0  0.00000000000E+00  0.00000000000E+00  0.26047640136E+04  0.26047640136E+04  0.00000000000E+00 0. -1.
          1   -1    0    0  501    0 -0.00000000000E+00 -0.00000000000E+00 -0.82116743617E+03  0.82116743617E+03  0.00000000000E+00 0. -1.
         25    2    1    2    0    0 -0.44916384619E+02 -0.21491579529E+02  0.21238870525E+03  0.25142144698E+03  0.12499764913E+03 0.  0.
          2    1    1    2  501    0  0.66824890105E+02 -0.12948856510E+02 -0.80003019662E+03  0.80292064012E+03  0.00000000000E+00 0. -1.
          1    1    1    2  502    0 -0.21908505487E+02  0.34440436039E+02  0.23712380688E+04  0.23715893627E+04  0.00000000000E+00 0. -1.
         22    1    3    3    0    0  0.17182870155E+02  0.27718245512E+02  0.14116010865E+03  0.14487832286E+03  0.00000000000E+00 0.  1.
         22    1    3    3    0    0 -0.62099254773E+02 -0.49209825041E+02  0.71228596601E+02  0.10654312412E+03  0.00000000000E+00 0.  1.
</event>
<event>
 7    1  0.6235964E-006  0.1567601E+03  0.7818608E-02  0.1331673E+00
          2   -1    0    0  502    0  0.00000000000E+00  0.00000000000E+00  0.39217143351E+03  0.39217143351E+03  0.00000000000E+00 0. -1.
          1   -1    0    0  501    0 -0.00000000000E+00 -0.00000000000E+00 -0.70325137616E+03  0.70325137616E+03  0.00000000000E+00 0. -1.
         25    2    1    2    0    0 -0.17072549039E+03  0.65484420740E+01  0.33635872483E+03  0.39743138663E+03  0.12499776057E+03 0.  0.
          2    1    1    2  501    0  0.15061561695E+03 -0.41006063574E+02 -0.22599756167E+03  0.27466608673E+03  0.00000000000E+00 0. -1.
          1    1    1    2  502    0  0.20109873443E+02  0.34457621500E+02 -0.42144110581E+03  0.42332533630E+03  0.00000000000E+00 0. -1.
         22    1    3    3    0    0 -0.73274413353E+00 -0.36357289876E+02  0.56666430664E+02  0.67331076074E+02  0.00000000000E+00 0.  1.
         22    1    3    3    0    0 -0.16999274626E+03  0.42905731950E+02  0.27969229417E+03  0.33010031056E+03  0.00000000000E+00 0.  1.
</event>
<event>
 7    1  0.6235964E-006  0.6896995E+02  0.7818608E-02  0.1500500E+00
          2   -1    0    0  502    0  0.00000000000E+00  0.00000000000E+00  0.95584136700E+03  0.95584136700E+03  0.00000000000E+00 0. -1.
          1   -1    0    0  501    0 -0.00000000000E+00 -0.00000000000E+00 -0.18800453962E+02  0.18800453962E+02  0.00000000000E+00 0. -1.
         25    2    1    2    0    0  0.49906014587E+02 -0.15110512358E+02  0.32019504932E+03  0.34766211252E+03  0.12500054798E+03 0.  0.
          2    1    1    2  501    0  0.12261156113E+02 -0.21157169928E+02  0.50828488207E+02  0.56404760456E+02  0.00000000000E+00 0. -1.
          1    1    1    2  502    0 -0.62167170701E+02  0.36267682287E+02  0.56601737551E+03  0.57057494799E+03  0.00000000000E+00 0. -1.
         22    1    3    3    0    0  0.12544873630E+02  0.28742242282E+02  0.11135407693E+02  0.33278937037E+02  0.00000000000E+00 0. -1.
         22    1    3    3    0    0  0.37361140957E+02 -0.43852754640E+02  0.30905964163E+03  0.31438317548E+03  0.00000000000E+00 0. -1.
</event>
<event>
 7    1  0.6235964E-006  0.7013527E+02  0.7818608E-02  0.1416882E+00
          2   -1    0    0  502    0  0.00000000000E+00  0.00000000000E+00  0.23872573348E+03  0.23872573348E+03  0.00000000000E+00 0. -1.
          1   -1    0    0  501    0 -0.00000000000E+00 -0.00000000000E+00 -0.11015978012E+04  0.11015978012E+04  0.00000000000E+00 0. -1.
         25    2    1    2    0    0 -0.86311277096E+02  0.46295466891E+02 -0.61113894116E+02  0.17015661582E+03  0.12500183616E+03 0.  0.
          2    1    1    2  501    0  0.69477385935E+02 -0.54120082581E+01 -0.98205683108E+03  0.98452629038E+03  0.00000000000E+00 0. -1.
          1    1    1    2  502    0  0.16833891162E+02 -0.40883458633E+02  0.18029865744E+03  0.18564062851E+03  0.00000000000E+00 0. -1.
         22    1    3    3    0    0 -0.11884521734E+03  0.31115267274E+02 -0.49083336335E+02  0.13229330840E+03  0.00000000000E+00 0.  1.
         22    1    3    3    0    0  0.32533940243E+02  0.15180199617E+02 -0.12030557782E+02  0.37863307418E+02  0.00000000000E+00 0.  1.
</event>
<event>
 7    1  0.6235964E-006  0.4065316E+02  0.7818608E-02  0.1507692E+00
          2   -1    0    0  502    0  0.00000000000E+00  0.00000000000E+00  0.14902909125E+04  0.14902909125E+04  0.00000000000E+00 0. -1.
          1   -1    0    0  501    0 -0.00000000000E+00 -0.00000000000E+00 -0.17800474566E+03  0.17800474566E+03  0.00000000000E+00 0. -1.
         25    2    1    2    0    0 -0.11347591739E+02  0.29692871021E+02  0.59669818091E+02  0.14210523493E+03  0.12499190444E+03 0.  0.
          2    1    1    2  501    0 -0.29369542600E+02 -0.26408550438E+02 -0.13362877015E+03  0.13934356742E+03  0.00000000000E+00 0. -1.
          1    1    1    2  502    0  0.40717134338E+02 -0.32843205824E+01  0.13862451189E+04  0.13868468558E+04  0.00000000000E+00 0. -1.
         22    1    3    3    0    0 -0.12401320679E+02  0.37193161456E+02 -0.31702245491E+02  0.50419801495E+02  0.00000000000E+00 0.  1.
         22    1    3    3    0    0  0.10537289408E+01 -0.75002904349E+01  0.91372063582E+02  0.91685433437E+02  0.00000000000E+00 0.  1.
</event>
<event>
 7    1  0.6235964E-006  0.1762521E+03  0.7818608E-02  0.1310161E+00
          2   -1    0    0  502    0  0.00000000000E+00  0.00000000000E+00  0.15464398000E+03  0.15464398000E+03  0.00000000000E+00 0. -1.
          1   -1    0    0  501    0 -0.00000000000E+00 -0.00000000000E+00 -0.11256340697E+04  0.11256340697E+04  0.00000000000E+00 0. -1.
         25    2    1    2    0    0 -0.18691250650E+03 -0.37308993196E+02 -0.24494359914E+03  0.33458807745E+03  0.12499427486E+03 0.  0.
          2    1    1    2  501    0  0.17404894458E+03 -0.37134865788E+01 -0.82216538720E+03  0.84039440086E+03  0.00000000000E+00 0. -1.
          1    1    1    2  502    0  0.12863561918E+02  0.41022479774E+02  0.96118896618E+02  0.10529557141E+03  0.00000000000E+00 0. -1.
         22    1    3    3    0    0 -0.39968615592E+02  0.39620649460E+02 -0.97930222507E+02  0.11294961078E+03  0.00000000000E+00 0.  1.
         22    1    3    3    0    0 -0.14694389091E+03 -0.76929642655E+02 -0.14701337664E+03  0.22163846666E+03  0.00000000000E+00 0.  1.
</event>
<event>
 7    1  0.6235964E-006  0.5809581E+02  0.7818608E-02  0.1477383E+00
          2   -1    0    0  502    0  0.00000000000E+00  0.00000000000E+00  0.10342471644E+04  0.10342471644E+04  0.00000000000E+00 0. -1.
          1   -1    0    0  501    0 -0.00000000000E+00 -0.00000000000E+00 -0.21096353744E+03  0.21096353744E+03  0.00000000000E+00 0. -1.
         25    2    1    2    0    0 -0.20034965008E+02 -0.88935824916E+02  0.21217925640E+03  0.26259480816E+03  0.12500006261E+03 0.  0.
          2    1    1    2  501    0  0.84357120358E+01  0.56857363211E+02 -0.18093326263E+03  0.18984405842E+03  0.00000000000E+00 0. -1.
          1    1    1    2  502    0  0.11599252972E+02  0.32078461705E+02  0.79203763323E+03  0.79277183529E+03  0.00000000000E+00 0. -1.
         22    1    3    3    0    0  0.27470097616E+01 -0.53555294934E+02  0.81142044549E+01  0.54236113356E+02  0.00000000000E+00 0. -1.
         22    1    3    3    0    0 -0.22781974770E+02 -0.35380529982E+02  0.20406505195E+03  0.20835869481E+03  0.00000000000E+00 0. -1.
</event>
<event>
 7    1  0.6235964E-006  0.9847181E+02  0.7818608E-02  0.1331018E+00
          2   -1    0    0  502    0  0.00000000000E+00  0.00000000000E+00  0.13419564757E+04  0.13419564757E+04  0.00000000000E+00 0. -1.
          1   -1    0    0  501    0 -0.00000000000E+00 -0.00000000000E+00 -0.53034285422E+03  0.53034285422E+03  0.00000000000E+00 0. -1.
         25    2    1    2    0    0  0.88021173606E+02 -0.10225196212E+03  0.18856780694E+03  0.26341298098E+03  0.12500155988E+03 0.  0.
          2    1    1    2  501    0 -0.90133732114E+02  0.38408561078E+02 -0.48712447336E+03  0.49687982428E+03  0.00000000000E+00 0. -1.
          1    1    1    2  502    0  0.21125585075E+01  0.63843401043E+02  0.11101702879E+04  0.11120065247E+04  0.00000000000E+00 0. -1.
         22    1    3    3    0    0  0.15952573191E+02  0.14488776517E+02 -0.86061329674E+01  0.23205058953E+02  0.00000000000E+00 0. -1.
         22    1    3    3    0    0  0.72068600415E+02 -0.11674073864E+03  0.19717393991E+03  0.24020792202E+03  0.00000000000E+00 0. -1.
</event>
<event>
 7    1  0.6235964E-006  0.6393282E+02  0.7818608E-02  0.1445018E+00
          2   -1    0    0  502    0  0.00000000000E+00  0.00000000000E+00  0.19820485598E+04  0.19820485598E+04  0.00000000000E+00 0. -1.
          1   -1    0    0  501    0 -0.00000000000E+00 -0.00000000000E+00 -0.46712394821E+02  0.46712394821E+02  0.00000000000E+00 0. -1.
         25    2    1    2    0    0 -0.23858479215E+02  0.20301783608E+02  0.53721027080E+03  0.55245040869E+03  0.12500075827E+03 0.  0.
          2    1    1    2  501    0 -0.10675417658E+02  0.37715832780E+02 -0.28263127628E+02  0.48324455174E+02  0.00000000000E+00 0. -1.
          1    1    1    2  502    0  0.34533896873E+02 -0.58017616388E+02  0.14263890218E+04  0.14279860907E+04  0.00000000000E+00 0. -1.
         22    1    3    3    0    0  0.32578126493E+02  0.99064945571E+01  0.42551988809E+03  0.42688013320E+03  0.00000000000E+00 0.  1.
         22    1    3    3    0    0 -0.56436605708E+02  0.10395289051E+02  0.11169038271E+03  0.12557027549E+03  0.00000000000E+00 0.  1.
</event>
<event>
 7    1  0.6235964E-006  0.9059585E+02  0.7818608E-02  0.1454816E+00
          2   -1    0    0  502    0  0.00000000000E+00  0.00000000000E+00  0.24279143117E+03  0.24279143117E+03  0.00000000000E+00 0. -1.
          1   -1    0    0  501    0 -0.00000000000E+00 -0.00000000000E+00 -0.11496976483E+03  0.11496976483E+03  0.00000000000E+00 0. -1.
         25    2    1    2    0    0  0.71952596920E+02 -0.26128948540E+02  0.67311973532E+02  0.16129283001E+03  0.12499830830E+03 0.  0.
          2    1    1    2  501    0 -0.80837447542E+02  0.50281304626E+02 -0.32009590050E+02  0.10043662865E+03  0.00000000000E+00 0. -1.
          1    1    1    2  502    0  0.88848506221E+01 -0.24152356086E+02  0.92519282854E+02  0.96031737331E+02  0.00000000000E+00 0. -1.
         22    1    3    3    0    0  0.57968638084E+02  0.41464194240E+02  0.10799928255E+02  0.72085233270E+02  0.00000000000E+00 0.  1.
         22    1    3    3    0    0  0.13983958836E+02 -0.67593142780E+02  0.56512045277E+02  0.89207596745E+02  0.00000000000E+00 0.  1.
</event>
<event>
 7    1  0.6235964E-006  0.5096928E+02  0.7818608E-02  0.1500328E+00
          2   -1    0    0  502    0  0.00000000000E+00  0.00000000000E+00  0.16040029776E+04  0.16040029776E+04  0.00000000000E+00 0. -1.
          1   -1    0    0  501    0 -0.00000000000E+00 -0.00000000000E+00 -0.95142007620E+03  0.95142007620E+03  0.00000000000E+00 0. -1.
         25    2    1    2    0    0 -0.83572244184E+02  0.54456292541E+01  0.39048871377E+02  0.15544974108E+03  0.12500333103E+03 0.  0.
          2    1    1    2  501    0  0.33128292518E+02 -0.73045708825E-01 -0.89248524807E+03  0.89309988642E+03  0.00000000000E+00 0. -1.
          1    1    1    2  502    0  0.50443951665E+02 -0.53725835453E+01  0.15060192781E+04  0.15068734263E+04  0.00000000000E+00 0. -1.
         22    1    3    3    0    0 -0.38800235837E+02 -0.53201222895E+02  0.47489030667E+02  0.81185198480E+02  0.00000000000E+00 0.  1.
         22    1    3    3    0    0 -0.44772008346E+02  0.58646852149E+02 -0.84401592903E+01  0.74264542597E+02  0.00000000000E+00 0.  1.
</event>
<event>
 7    1  0.6235964E-006  0.3360073E+03  0.7818608E-02  0.1214195E+00
          2   -1    0    0  502    0  0.00000000000E+00  0.00000000000E+00  0.12054856970E+04  0.12054856970E+04  0.00000000000E+00 0. -1.
          1   -1    0    0  501    0 -0.00000000000E+00 -0.00000000000E+00 -0.74656952224E+03  0.74656952224E+03  0.00000000000E+00 0. -1.
         25    2    1    2    0    0 -0.35913620863E+03 -0.13273049979E+03  0.66730901515E+03  0.77943722284E+03  0.12499944288E+03 0.  0.
          2    1    1    2  501    0  0.30199301334E+03  0.14141155348E+03 -0.64824496281E+03  0.72898459475E+03  0.00000000000E+00 0. -1.
          1    1    1    2  502    0  0.57143195289E+02 -0.86810536876E+01  0.43985212246E+03  0.44363340168E+03  0.00000000000E+00 0. -1.
         22    1    3    3    0    0 -0.25026013550E+03 -0.15107589954E+03  0.48005238925E+03  0.56205369785E+03  0.00000000000E+00 0. -1.
         22    1    3    3    0    0 -0.10887607314E+03  0.18345399751E+02  0.18725662589E+03  0.21738352498E+03  0.00000000000E+00 0. -1.
</event>
<event>
 7    1  0.6235964E-006  0.8114031E+02  0.7818608E-02  0.1446609E+00
          2   -1    0    0  502    0  0.00000000000E+00  0.00000000000E+00  0.39715965092E+02  0.39715965092E+02  0.00000000000E+00 0. -1.
          1   -1    0    0  501    0 -0.00000000000E+00 -0.00000000000E+00 -0.52297197848E+03  0.52297197848E+03  0.00000000000E+00 0. -1.
         25    2    1    2    0    0 -0.62998284887E+02  0.96226279873E+01 -0.31058916165E+03  0.34081074165E+03  0.12499982167E+03 0.  0.
          2    1    1    2  501    0 -0.15099096367E+02  0.26526707479E+02 -0.11327293579E+03  0.11731328528E+03  0.00000000000E+00 0. -1.
          1    1    1    2  502    0  0.78097381255E+02 -0.36149335467E+02 -0.59393915955E+02  0.10456391665E+03  0.00000000000E+00 0. -1.
         22    1    3    3    0    0 -0.72161596579E+01 -0.18908602719E+02 -0.25861136433E+03  0.25940209324E+03  0.00000000000E+00 0. -1.
         22    1    3    3    0    0 -0.55782125229E+02  0.28531230706E+02 -0.51977797321E+02  0.81408648404E+02  0.00000000000E+00 0. -1.
</event>
<event>
 7    1  0.6235964E-006  0.4033951E+02  0.7818608E-02  0.1524388E+00
          2   -1    0    0  502    0  0.00000000000E+00  0.00000000000E+00  0.97227448379E+03  0.97227448379E+03  0.00000000000E+00 0. -1.
          1   -1    0    0  501    0 -0.00000000000E+00 -0.00000000000E+00 -0.55687716084E+02  0.55687716084E+02  0.00000000000E+00 0. -1.
         25    2    1    2    0    0 -0.19966634026E+02  0.16019413690E+01  0.82971152179E+03  0.83931355211E+03  0.12499918665E+03 0.  0.
          2    1    1    2  501    0  0.16763744929E+02 -0.37034987425E+02 -0.39908577382E+02  0.56967604709E+02  0.00000000000E+00 0. -1.
          1    1    1    2  502    0  0.32028890975E+01  0.35433046056E+02  0.12678382329E+03  0.13168104306E+03  0.00000000000E+00 0. -1.
         22    1    3    3    0    0 -0.25350906552E+02  0.78678074476E+00  0.28770419652E+02  0.38353937658E+02  0.00000000000E+00 0. -1.
         22    1    3    3    0    0  0.53842725254E+01  0.81516062427E+00  0.80094110214E+03  0.80095961445E+03  0.00000000000E+00 0. -1.
</event>
<event>
 7    1  0.6235964E-006  0.9667897E+02  0.7818608E-02  0.1470483E+00
          2   -1    0    0  502    0  0.00000000000E+00  0.00000000000E+00  0.34801968805E+03  0.34801968805E+03  0.00000000000E+00 0. -1.
          1   -1    0    0  501    0 -0.00000000000E+00 -0.00000000000E+00 -0.31375916643E+03  0.31375916643E+03  0.00000000000E+00 0. -1.
         25    2    1    2    0    0 -0.88827392022E+02  0.69237270717E+02 -0.74289895529E+02  0.18392356021E+03  0.12499912877E+03 0.  0.
          2    1    1    2  501    0  0.63497604952E+01 -0.20572976518E+02 -0.17616000246E+03  0.17747088011E+03  0.00000000000E+00 0. -1.
          1    1    1    2  502    0  0.82477631527E+02 -0.48664294200E+02  0.28471041961E+03  0.30038441416E+03  0.00000000000E+00 0. -1.
         22    1    3    3    0    0 -0.95039273126E+02 -0.36252598281E+01 -0.40693151317E+02  0.10344824073E+03  0.00000000000E+00 0. -1.
         22    1    3    3    0    0  0.62118811037E+01  0.72862530545E+02 -0.33596744212E+02  0.80475319484E+02  0.00000000000E+00 0. -1.
</event>
<event>
 7    1  0.6235964E-006  0.1699853E+03  0.7818608E-02  0.1379849E+00
          2   -1    0    0  502    0  0.00000000000E+00  0.00000000000E+00  0.20971403552E+04  0.20971403552E+04  0.00000000000E+00 0. -1.
          1   -1    0    0  501    0 -0.00000000000E+00 -0.00000000000E+00 -0.12666849559E+03  0.12666849559E+03  0.00000000000E+00 0. -1.
         25    2    1    2    0    0  0.76717116503E+02  0.13321641230E+03  0.63647056048E+03  0.66659732971E+03  0.12500038857E+03 0.  0.
          2    1    1    2  501    0 -0.70054887419E+02 -0.15676905878E+03 -0.45386354998E+02  0.17760671795E+03  0.00000000000E+00 0. -1.
          1    1    1    2  502    0 -0.66622290846E+01  0.23552646471E+02  0.13793876541E+04  0.13796048031E+04  0.00000000000E+00 0. -1.
         22    1    3    3    0    0  0.34023759977E+02  0.79869968428E+02  0.54789559073E+03  0.55473093157E+03  0.00000000000E+00 0. -1.
         22    1    3    3    0    0  0.42693356527E+02  0.53346443877E+02  0.88574969750E+02  0.11186639814E+03  0.00000000000E+00 0. -1.
</event>
<event>
 7    1  0.6235964E-006  0.4288620E+02  0.7818608E-02  0.1491944E+00
          2   -1    0    0  502    0  0.00000000000E+00  0.00000000000E+00  0.61445894569E+03  0.61445894569E+03  0.00000000000E+00 0. -1.
          1   -1    0    0  501    0 -0.00000000000E+00 -0.00000000000E+00 -0.97034204453E+02  0.97034204453E+02  0.00000000000E+00 0. -1.
         25    2    1    2    0    0  0.34695276618E+02 -0.54153220744E+02  0.13348011564E+03  0.19385043947E+03  0.12499887229E+03 0.  0.
          2    1    1    2  501    0  0.52897340898E+01  0.42248010174E+02 -0.58988190477E+02  0.72749448562E+02  0.00000000000E+00 0. -1.
          1    1    1    2  502    0 -0.39985010708E+02  0.11905210571E+02  0.44293281607E+03  0.44489326211E+03  0.00000000000E+00 0. -1.
         22    1    3    3    0    0  0.64485564432E+02 -0.24230165085E+02  0.18449705700E+02  0.71315359921E+02  0.00000000000E+00 0.  1.
         22    1    3    3    0    0 -0.29790287815E+02 -0.29923055659E+02  0.11503040994E+03  0.12253507955E+03  0.00000000000E+00 0.  1.
</event>
<event>
 7    1  0.6235964E-006  0.4466580E+02  0.7818608E-02  0.1482637E+00
          2   -1    0    0  502    0  0.00000000000E+00  0.00000000000E+00  0.96128802242E+03  0.96128802242E+03  0.00000000000E+00 0. -1.
          1   -1    0    0  501    0 -0.00000000000E+00 -0.00000000000E+00 -0.78014888094E+03  0.78014888094E+03  0.00000000000E+00 0. -1.
         25    2    1    2    0    0  0.21282263276E+02  0.52598938184E+02  0.66961421471E+02  0.15272569733E+03  0.12498689384E+03 0.  0.
          2    1    1    2  501    0 -0.40918921899E+02 -0.12382358022E+02 -0.73605796037E+03  0.73729844838E+03  0.00000000000E+00 0. -1.
          1    1    1    2  502    0  0.19636658623E+02 -0.40216580162E+02  0.85023568038E+03  0.85141275765E+03  0.00000000000E+00 0. -1.
         22    1    3    3    0    0  0.71222973533E+02  0.14242456449E+02  0.47619822888E+02  0.86851638191E+02  0.00000000000E+00 0. -1.
         22    1    3    3    0    0 -0.49940710257E+02  0.38356481735E+02  0.19341598582E+02  0.65874059142E+02  0.00000000000E+00 0. -1.
</event>
<event>
 7    1  0.6235964E-006  0.5147014E+02  0.7818608E-02  0.1491004E+00
          2   -1    0    0  502    0  0.00000000000E+00  0.00000000000E+00  0.59574346576E+03  0.59574346576E+03  0.00000000000E+00 0. -1.
          1   -1    0    0  501    0 -0.00000000000E+00 -0.00000000000E+00 -0.14119396169E+04  0.14119396169E+04  0.00000000000E+00 0. -1.
         25    2    1    2    0    0  0.34223155692E+02  0.75446795560E+02  0.92409404945E+02  0.17614835494E+03  0.12500120591E+03 0.  0.
          2    1    1    2  501    0 -0.23226495759E+02 -0.26169142101E+02 -0.13684648018E+04  0.13689120526E+04  0.00000000000E+00 0. -1.
          1    1    1    2  502    0 -0.10996659933E+02 -0.49277653458E+02  0.45985924570E+03  0.46262267510E+03  0.00000000000E+00 0. -1.
         22    1    3    3    0    0  0.55773938489E+02  0.86556092091E+02  0.27088529406E+02  0.10647289664E+03  0.00000000000E+00 0.  1.
         22    1    3    3    0    0 -0.21550782797E+02 -0.11109296531E+02  0.65320875539E+02  0.69675458303E+02  0.00000000000E+00 0.  1.
</event>
<event>
 7    1  0.6235964E-006  0.7307521E+02  0.7818608E-02  0.1402451E+00
          2   -1    0    0  502    0  0.00000000000E+00  0.00000000000E+00  0.22592520740E+03  0.22592520740E+03  0.00000000000E+00 0. -1.
          1   -1    0    0  501    0 -0.00000000000E+00 -0.00000000000E+00 -0.28290473076E+03  0.28290473076E+03  0.00000000000E+00 0. -1.
         25    2    1    2    0    0  0.27723253208E+02  0.59818980495E+01 -0.91114475553E+02  0.15726022591E+03  0.12499827649E+03 0.  0.
          2    1    1    2  501    0  0.47018729449E+02  0.67130808833E+01 -0.14738782075E+03  0.15485152915E+03  0.00000000000E+00 0. -1.
          1    1    1    2  502    0 -0.74741982657E+02 -0.12694978933E+02  0.18152277295E+03  0.19671818310E+03  0.00000000000E+00 0. -1.
         22    1    3    3    0    0 -0.23604029428E+02 -0.56423283068E+01 -0.10085969154E+03  0.10373843767E+03  0.00000000000E+00 0. -1.
         22    1    3    3    0    0  0.51327282636E+02  0.11624226356E+02  0.97452159853E+01  0.53521788234E+02  0.00000000000E+00 0. -1.
</event>
<event>
 7    1  0.6235964E-006  0.4293786E+02  0.7818608E-02  0.1511518E+00
          2   -1    0    0  502    0  0.00000000000E+00  0.00000000000E+00  0.81632393985E+03  0.81632393985E+03  0.00000000000E+00 0. -1.
          1   -1    0    0  501    0 -0.00000000000E+00 -0.00000000000E+00 -0.40623606689E+03  0.40623606689E+03  0.00000000000E+00 0. -1.
         25    2    1    2    0    0  0.16204508079E+02  0.38797119274E+02  0.63078164824E+03  0.64441937034E+03  0.12499213803E+03 0.  0.
          2    1    1    2  501    0  0.20221818635E+02 -0.37911600504E+02 -0.39638691836E+03  0.39870891694E+03  0.00000000000E+00 0. -1.
          1    1    1    2  502    0 -0.36426326714E+02 -0.88551876918E+00  0.17569314308E+03  0.17943171945E+03  0.00000000000E+00 0. -1.
         22    1    3    3    0    0  0.51260331856E+00  0.28722744910E+01  0.58122174290E+03  0.58122906598E+03  0.00000000000E+00 0. -1.
         22    1    3    3    0    0  0.15691904760E+02  0.35924844783E+02  0.49559905336E+02  0.63190304356E+02  0.00000000000E+00 0. -1.
</event>
<event>
 7    1  0.6235964E-006  0.1871019E+03  0.7818608E-02  0.1261233E+00
          2   -1    0    0  502    0  0.00000000000E+00  0.00000000000E+00  0.15815593827E+04  0.15815593827E+04  0.00000000000E+00 0. -1.
          1   -1    0    0  501    0 -0.00000000000E+00 -0.00000000000E+00 -0.17969139622E+04  0.17969139622E+04  0.00000000000E+00 0. -1.
         25    2    1    2    0    0  0.17795647693E+03 -0.30328039745E+02  0.22551464598E+03  0.31475295990E+03  0.12499709013E+03 0.  0.
          2    1    1    2  501    0  0.86355266138E+01  0.63668095364E+02 -0.17448513723E+04  0.17460339373E+04  0.00000000000E+00 0. -1.
          1    1    1    2  502    0 -0.18659200354E+03 -0.33340055619E+02  0.13039821469E+04  0.13176864477E+04  0.00000000000E+00 0. -1.
         22    1    3    3    0    0 -0.87490651130E+01  0.23635525439E+02  0.24451547961E+02  0.35114988264E+02  0.00000000000E+00 0.  1.
         22    1    3    3    0    0  0.18670554204E+03 -0.53963565184E+02  0.20106309802E+03  0.27963797164E+03  0.00000000000E+00 0.  1.
</event>
<event>
 7    1  0.6235964E-006  0.9153107E+02  0.7818608E-02  0.1396048E+00
          2   -1    0    0  502    0  0.00000000000E+00  0.00000000000E+00  0.21341503257E+04  0.21341503257E+04  0.00000000000E+00 0. -1.
          1   -1    0    0  501    0 -0.00000000000E+00 -0.00000000000E+00 -0.11327285452E+04  0.11327285452E+04  0.00000000000E+00 0. -1.
         25    2    1    2    0    0 -0.90372630787E+02 -0.22119140384E+02  0.13359579025E+04  0.13450148779E+04  0.12500014391E+03 0.  0.
          2    1    1    2  501    0  0.71442102475E+02  0.57234423822E+02 -0.11258398707E+04  0.11295552964E+04  0.00000000000E+00 0. -1.
          1    1    1    2  502    0  0.18930528312E+02 -0.35115283439E+02  0.79130374867E+03  0.79230869659E+03  0.00000000000E+00 0. -1.
         22    1    3    3    0    0 -0.47965299000E+02 -0.69192308088E+02  0.96684457392E+03  0.97050331041E+03  0.00000000000E+00 0. -1.
         22    1    3    3    0    0 -0.42407331787E+02  0.47073167704E+02  0.36911332854E+03  0.37451156753E+03  0.00000000000E+00 0. -1.
</event>
<event>
 7    1  0.6235964E-006  0.1178326E+03  0.7818608E-02  0.1277828E+00
          2   -1    0    0  502    0  0.00000000000E+00  0.00000000000E+00  0.25938154889E+03  0.25938154889E+03  0.00000000000E+00 0. -1.
          1   -1    0    0  501    0 -0.00000000000E+00 -0.00000000000E+00 -0.17671856377E+03  0.17671856377E+03  0.00000000000E+00 0. -1.
         25    2    1    2    0    0  0.22381292923E+02 -0.72887444890E+02 -0.19972246346E+02  0.14777532698E+03  0.12500061898E+03 0.  0.
          2    1    1    2  501    0 -0.12470472693E+03  0.14454281771E+02 -0.91914379077E+01  0.12587564384E+03  0.00000000000E+00 0. -1.
          1    1    1    2  502    0  0.10232343401E+03  0.58433163119E+02  0.11182666938E+03  0.16244914184E+03  0.00000000000E+00 0. -1.
         22    1    3    3    0    0  0.53558203473E+02 -0.66582708754E+02  0.28257397287E+02  0.90001215356E+02  0.00000000000E+00 0. -1.
         22    1    3    3    0    0 -0.31176910549E+02 -0.63047361367E+01 -0.48229643633E+02  0.57774111626E+02  0.00000000000E+00 0. -1.
</event>
<event>
 7    1  0.6235964E-006  0.1157581E+03  0.7818608E-02  0.1345001E+00
          2   -1    0    0  502    0  0.00000000000E+00  0.00000000000E+00  0.11940814956E+04  0.11940814956E+04  0.00000000000E+00 0. -1.
          1   -1    0    0  501    0 -0.00000000000E+00 -0.00000000000E+00 -0.25378573316E+03  0.25378573316E+03  0.00000000000E+00 0. -1.
         25    2    1    2    0    0 -0.60927575112E+02 -0.59424267398E+02  0.52020238220E+03  0.54173786546E+03  0.12500393377E+03 0.  0.
          2    1    1    2  501    0  0.10719208746E+03  0.46180690083E+02 -0.22806017314E+03  0.25619180768E+03  0.00000000000E+00 0. -1.
          1    1    1    2  502    0 -0.46264512352E+02  0.13243577314E+02  0.64815355335E+03  0.64993755559E+03  0.00000000000E+00 0. -1.
         22    1    3    3    0    0 -0.98305795576E+02 -0.28785594928E+02  0.37262719477E+03  0.38645008242E+03  0.00000000000E+00 0.  1.
         22    1    3    3    0    0  0.37378220464E+02 -0.30638672470E+02  0.14757518743E+03  0.15528778304E+03  0.00000000000E+00 0.  1.
</event>
<event>
 7    1  0.6235964E-006  0.9247224E+02  0.7818608E-02  0.1447759E+00
          2   -1    0    0  502    0  0.00000000000E+00  0.00000000000E+00  0.23141872634E+03  0.23141872634E+03  0.00000000000E+00 0. -1.
          1   -1    0    0  501    0 -0.00000000000E+00 -0.00000000000E+00 -0.27158874351E+03  0.27158874351E+03  0.00000000000E+00 0. -1.
         25    2    1    2    0    0 -0.25066217107E+01 -0.93481695779E+02 -0.11704292117E+03  0.19511276804E+03  0.12499934503E+03 0.  0.
          2    1    1    2  501    0 -0.23833743849E+02  0.90107809754E+02 -0.95525049009E+02  0.13346347707E+03  0.00000000000E+00 0. -1.
          1    1    1    2  502    0  0.26340365560E+02  0.33738860255E+01  0.17239795300E+03  0.17443122474E+03  0.00000000000E+00 0. -1.
         22    1    3    3    0    0 -0.59528587192E+02 -0.20011323881E+02 -0.53197510676E+02  0.82304804955E+02  0.00000000000E+00 0. -1.
         22    1    3    3    0    0  0.57021965482E+02 -0.73470371898E+02 -0.63845410493E+02  0.11280796308E+03  0.00000000000E+00 0. -1.
</event>
<event>
 7    1  0.6235964E-006  0.1019868E+03  0.7818608E-02  0.1396049E+00
          2   -1    0    0  502    0  0.00000000000E+00  0.00000000000E+00  0.39672751785E+03  0.39672751785E+03  0.00000000000E+00 0. -1.
          1   -1    0    0  501    0 -0.00000000000E+00 -0.00000000000E+00 -0.22449148924E+04  0.22449148924E+04  0.00000000000E+00 0. -1.
         25    2    1    2    0    0  0.61023317233E+02  0.75729271717E+02 -0.66121837210E+03  0.67992222208E+03  0.12500289850E+03 0.  0.
          2    1    1    2  501    0 -0.33247104995E+02 -0.98319475440E+02 -0.15718021975E+04  0.15752251386E+04  0.00000000000E+00 0. -1.
          1    1    1    2  502    0 -0.27776212238E+02  0.22590203724E+02  0.38483319508E+03  0.38649504953E+03  0.00000000000E+00 0. -1.
         22    1    3    3    0    0 -0.17049364251E+02 -0.25340963039E+02 -0.11724362616E+03  0.12115656443E+03  0.00000000000E+00 0.  1.
         22    1    3    3    0    0  0.78072681484E+02  0.10107023476E+03 -0.54397474594E+03  0.55876565765E+03  0.00000000000E+00 0.  1.
</event>
<event>
 7    1  0.6235964E-006  0.7414064E+02  0.7818608E-02  0.1370157E+00
          2   -1    0    0  502    0  0.00000000000E+00  0.00000000000E+00  0.18411238953E+04  0.18411238953E+04  0.00000000000E+00 0. -1.
          1   -1    0    0  501    0 -0.00000000000E+00 -0.00000000000E+00 -0.33102838253E+03  0.33102838253E+03  0.00000000000E+00 0. -1.
         25    2    1    2    0    0 -0.67718919630E+02  0.73302771658E+02  0.69533217115E+03  0.71349595944E+03  0.12502202803E+03 0.  0.
          2    1    1    2  501    0 -0.42619733529E+01 -0.60620960383E+02 -0.31789031290E+03  0.32364690063E+03  0.00000000000E+00 0. -1.
          1    1    1    2  502    0  0.71980892983E+02 -0.12681811275E+02  0.11326536545E+04  0.11350094178E+04  0.00000000000E+00 0. -1.
         22    1    3    3    0    0 -0.10465240796E+03  0.57338953077E+02  0.54107422018E+03  0.55407688435E+03  0.00000000000E+00 0. -1.
         22    1    3    3    0    0  0.36933488332E+02  0.15963818581E+02  0.15425795097E+03  0.15941907509E+03  0.00000000000E+00 0. -1.
</event>
<event>
 7    1  0.6235964E-006  0.3524839E+02  0.7818608E-02  0.1558084E+00
          2   -1    0    0  502    0  0.00000000000E+00  0.00000000000E+00  0.13956163305E+04  0.13956163305E+04  0.00000000000E+00 0. -1.
          1   -1    0    0  501    0 -0.00000000000E+00 -0.00000000000E+00 -0.67661730164E+02  0.67661730164E+02  0.00000000000E+00 0. -1.
         25    2    1    2    0    0 -0.10270675299E+01 -0.49711648695E+01  0.19082529963E+03  0.22818140547E+03  0.12500676571E+03 0.  0.
          2    1    1    2  501    0 -0.30518882537E+02 -0.11766227988E+02 -0.43223144382E+02  0.54204119056E+02  0.00000000000E+00 0. -1.
          1    1    1    2  502    0  0.31545950067E+02  0.16737392858E+02  0.11803524451E+04  0.11808925361E+04  0.00000000000E+00 0. -1.
         22    1    3    3    0    0 -0.11817551038E+02  0.53157884160E+02  0.44371177640E+02  0.70243978860E+02  0.00000000000E+00 0. -1.
         22    1    3    3    0    0  0.10790483508E+02 -0.58129049030E+02  0.14645412199E+03  0.15793742661E+03  0.00000000000E+00 0. -1.
</event>
<event>
 7    1  0.6235964E-006  0.1328074E+03  0.7818608E-02  0.1341291E+00
          2   -1    0    0  502    0  0.00000000000E+00  0.00000000000E+00  0.26630007637E+04  0.26630007637E+04  0.00000000000E+00 0. -1.
          1   -1    0    0  501    0 -0.00000000000E+00 -0.00000000000E+00 -0.40148620413E+03  0.40148620413E+03  0.00000000000E+00 0. -1.
         25    2    1    2    0    0 -0.10594507000E+02  0.10178512580E+03  0.47792019644E+03  0.50448473678E+03  0.12499872027E+03 0.  0.
          2    1    1    2  501    0 -0.31373226343E+02  0.29854701483E+02 -0.38479043870E+03  0.38721991716E+03  0.00000000000E+00 0. -1.
          1    1    1    2  502    0  0.41967733343E+02 -0.13163982728E+03  0.21683848019E+04  0.21727823139E+04  0.00000000000E+00 0. -1.
         22    1    3    3    0    0  0.79563346962E+01  0.49832336060E+02  0.42518145808E+03  0.42816566569E+03  0.00000000000E+00 0.  1.
         22    1    3    3    0    0 -0.18550841696E+02  0.51952789737E+02  0.52738738358E+02  0.76319071094E+02  0.00000000000E+00 0.  1.
</event>
<event>
 7    1  0.6235964E-006  0.1360133E+03  0.7818608E-02  0.1292441E+00
          2   -1    0    0  502    0  0.00000000000E+00  0.00000000000E+00  0.12906530244E+04  0.12906530244E+04  0.00000000000E+00 0. -1.
          1   -1    0    0  501    0 -0.00000000000E+00 -0.00000000000E+00 -0.70726528162E+03  0.70726528162E+03  0.00000000000E+00 0. -1.
         25    2    1    2    0    0  0.43376694479E+02 -0.16728231984E+03 -0.30419212341E+03  0.37151279595E+03  0.12499598976E+03 0.  0.
          2    1    1    2  501    0 -0.67700281926E+02  0.10638550712E+03 -0.35776387012E+03  0.37933651427E+03  0.00000000000E+00 0. -1.
          1    1    1    2  502    0  0.24323587447E+02  0.60896812725E+02  0.12453437363E+04  0.12470689957E+04  0.00000000000E+00 0. -1.
         22    1    3    3    0    0  0.65718255149E+02 -0.16017346515E+03 -0.30181614765E+03  0.34794743135E+03  0.00000000000E+00 0. -1.
         22    1    3    3    0    0 -0.22341560670E+02 -0.71088546928E+01 -0.23759757608E+01  0.23565364607E+02  0.00000000000E+00 0. -1.
</event>
<event>
 7    1  0.6235964E-006  0.3015467E+02  0.7818608E-02  0.1636195E+00
          2   -1    0    0  502    0  0.00000000000E+00  0.00000000000E+00  0.16424509723E+03  0.16424509723E+03  0.00000000000E+00 0. -1.
          1   -1    0    0  501    0 -0.00000000000E+00 -0.00000000000E+00 -0.93991981968E+03  0.93991981968E+03  0.00000000000E+00 0. -1.
         25    2    1    2    0    0 -0.18640389664E+02 -0.26663307861E+02 -0.17022999800E+03  0.21368758405E+03  0.12500294095E+03 0.  0.
          2    1    1    2  501    0 -0.49966404510E+01  0.29835245939E+02 -0.74665487415E+03  0.74726742831E+03  0.00000000000E+00 0. -1.
          1    1    1    2  502    0  0.23637030115E+02 -0.31719380778E+01  0.14121014970E+03  0.14320990455E+03  0.00000000000E+00 0. -1.
         22    1    3    3    0    0 -0.35634345051E+02  0.23677565298E+01 -0.17597415678E+03  0.17956145653E+03  0.00000000000E+00 0. -1.
         22    1    3    3    0    0  0.16993955387E+02 -0.29031064391E+02  0.57441587765E+01  0.34126127519E+02  0.00000000000E+00 0. -1.
</event>
<event>
 7    1  0.6235964E-006  0.8075092E+02  0.7818608E-02  0.1429051E+00
          2   -1    0    0  502    0  0.00000000000E+00  0.00000000000E+00  0.55181599647E+02  0.55181599647E+02  0.00000000000E+00 0. -1.
          1   -1    0    0  501    0 -0.00000000000E+00 -0.00000000000E+00 -0.12416172630E+04  0.12416172630E+04  0.00000000000E+00 0. -1.
         25    2    1    2    0    0 -0.72793254071E+02  0.66930112594E+02 -0.59178785643E+03  0.61287575702E+03  0.12500131481E+03 0.  0.
          2    1    1    2  501    0  0.34815071842E+02  0.34394714088E+01 -0.60255452813E+03  0.60356928232E+03  0.00000000000E+00 0. -1.
          1    1    1    2  502    0  0.37978182229E+02 -0.70369584003E+02  0.79067212229E+01  0.80353823298E+02  0.00000000000E+00 0. -1.
         22    1    3    3    0    0 -0.50893088477E+02  0.17586293598E+01 -0.47216151099E+03  0.47489966487E+03  0.00000000000E+00 0.  1.
         22    1    3    3    0    0 -0.21900165594E+02  0.65171483234E+02 -0.11962634545E+03  0.13797609215E+03  0.00000000000E+00 0.  1.
</event>
<event>
 7    1  0.6235964E-006  0.8065652E+02  0.7818608E-02  0.1332034E+00
          2   -1    0    0  502    0  0.00000000000E+00  0.00000000000E+00  0.15210760920E+03  0.15210760920E+03  0.00000000000E+00 0. -1.
          1   -1    0    0  501    0 -0.00000000000E+00 -0.00000000000E+00 -0.99263534665E+03  0.99263534665E+03  0.00000000000E+00 0. -1.
         25    2    1    2    0    0 -0.58664554956E+02 -0.70242395153E+02 -0.68914288080E+03  0.70634164470E+03  0.12500033917E+03 0.  0.
          2    1    1    2  501    0 -0.22326685640E+02  0.74000760590E+02 -0.27772621051E+03  0.28828187849E+03  0.00000000000E+00 0. -1.
          1    1    1    2  502    0  0.80991240595E+02 -0.37583654369E+01  0.12634135387E+03  0.15011943266E+03  0.00000000000E+00 0. -1.
         22    1    3    3    0    0  0.25801429380E+00 -0.54544554801E+01  0.45714005088E+01  0.71214716578E+01  0.00000000000E+00 0. -1.
         22    1    3    3    0    0 -0.58922569249E+02 -0.64787939673E+02 -0.69371428131E+03  0.69922017304E+03  0.00000000000E+00 0. -1.
</event>
<event>
 7    1  0.6235964E-006  0.5880677E+02  0.7818608E-02  0.1490704E+00
          2   -1    0    0  502    0  0.00000000000E+00  0.00000000000E+00  0.15135510817E+04  0.15135510817E+04  0.00000000000E+00 0. -1.
          1   -1    0    0  501    0 -0.00000000000E+00 -0.00000000000E+00 -0.18352555134E+03  0.18352555134E+03  0.00000000000E+00 0. -1.
         25    2    1    2    0    0 -0.27180093841E+01 -0.84808444928E+02  0.48182618490E+02  0.15857716305E+03  0.12500116803E+03 0.  0.
          2    1    1    2  501    0  0.12821861121E+02  0.55830776271E+02 -0.12175945021E+03  0.13456165657E+03  0.00000000000E+00 0. -1.
          1    1    1    2  502    0 -0.10103851737E+02  0.28977668656E+02  0.14036023621E+04  0.14039378134E+04  0.00000000000E+00 0. -1.
         22    1    3    3    0    0 -0.22954701214E+01 -0.30741710721E+02 -0.42797073575E+02  0.52743828717E+02  0.00000000000E+00 0.  1.
         22    1    3    3    0    0 -0.42253926278E+00 -0.54066734206E+02  0.90979692066E+02  0.10583333433E+03  0.00000000000E+00 0.  1.
</event>
<event>
 7    1  0.6235964E-006  0.6766403E+02  0.7818608E-02  0.1521292E+00
          2   -1    0    0  502    0  0.00000000000E+00  0.00000000000E+00  0.11940946181E+04  0.11940946181E+04  0.00000000000E+00 0. -1.
          1   -1    0    0  501    0 -0.00000000000E+00 -0.00000000000E+00 -0.27097794811E+03  0.27097794811E+03  0.00000000000E+00 0. -1.
         25    2    1    2    0    0  0.79709678221E+02  0.15794479175E+02 -0.14302939069E+03  0.20660669716E+03  0.12500328930E+03 0.  0.
          2    1    1    2  501    0 -0.12144109427E+02 -0.17926101172E+02 -0.93944509725E+02  0.96407444756E+02  0.00000000000E+00 0. -1.
          1    1    1    2  502    0 -0.67565568795E+02  0.21316219969E+01  0.11600905704E+04  0.11620584243E+04  0.00000000000E+00 0. -1.
         22    1    3    3    0    0  0.48513658619E+02  0.52990416876E+02 -0.20348842113E+02  0.74670172952E+02  0.00000000000E+00 0. -1.
         22    1    3    3    0    0  0.31196019602E+02 -0.37195937701E+02 -0.12268054858E+03  0.13193652421E+03  0.00000000000E+00 0. -1.
</event>
<event>
 7    1  0.6235964E-006  0.5923042E+02  0.7818608E-02  0.1422271E+00
          2   -1    0    0  502    0  0.00000000000E+00  0.00000000000E+00  0.23526634248E+04  0.23526634248E+04  0.00000000000E+00 0. -1.
          1   -1    0    0  501    0 -0.00000000000E+00 -0.00000000000E+00 -0.83946135000E+01  0.83946135000E+01  0.00000000000E+00 0. -1.
         25    2    1    2    0    0 -0.61642005236E+02  0.30688104672E+02  0.88343317943E+03  0.89488617810E+03  0.12500237061E+03 0.  0.
          2    1    1    2  501    0  0.42595176924E+02  0.26616205947E+02  0.33778269031E+03  0.34149658474E+03  0.00000000000E+00 0. -1.
          1    1    1    2  502    0  0.19046828312E+02 -0.57304310619E+02  0.11230529415E+04  0.11246752754E+04  0.00000000000E+00 0. -1.
         22    1    3    3    0    0  0.21839131244E+02 -0.19031705806E+02  0.71283889391E+02  0.76945086692E+02  0.00000000000E+00 0. -1.
         22    1    3    3    0    0 -0.83481136480E+02  0.49719810478E+02  0.81214929004E+03  0.81794109141E+03  0.00000000000E+00 0. -1.
</event>
<event>
 7    1  0.6235964E-006  0.8988431E+02  0.7818608E-02  0.1330289E+00
          2   -1    0    0  502    0  0.00000000000E+00  0.00000000000E+00  0.19482794715E+03  0.19482794715E+03  0.00000000000E+00 0. -1.
          1   -1    0    0  501    0 -0.00000000000E+00 -0.00000000000E+00 -0.17808996416E+04  0.17808996416E+04  0.00000000000E+00 0. -1.
         25    2    1    2    0    0  0.38587920810E+02  0.39785320663E+02 -0.89708543382E+03  0.90744691813E+03  0.12500293712E+03 0.  0.
          2    1    1    2  501    0 -0.46259418164E+02 -0.10979742616E+03 -0.86788085955E+03  0.87602088727E+03  0.00000000000E+00 0. -1.
          1    1    1    2  502    0  0.76714973537E+01  0.70012105501E+02  0.17889459890E+03  0.19225978337E+03  0.00000000000E+00 0. -1.
         22    1    3    3    0    0  0.71883917517E+01  0.82863703827E+02 -0.51919935901E+03  0.52581939940E+03  0.00000000000E+00 0. -1.
         22    1    3    3    0    0  0.31399529058E+02 -0.43078383164E+02 -0.37788607480E+03  0.38162751873E+03  0.00000000000E+00 0. -1.
</event>
<event>
 7    1  0.6235964E-006  0.8345455E+02  0.7818608E-02  0.1402170E+00
          2   -1    0    0  502    0  0.00000000000E+00  0.00000000000E+00  0.81974304767E+02  0.81974304767E+02  0.00000000000E+00 0. -1.
          1   -1    0    0  501    0 -0.00000000000E+00 -0.00000000000E+00 -0.38281569724E+03  0.38281569724E+03  0.00000000000E+00 0. -1.
         25    2    1    2    0    0 -0.20212515292E+02  0.42578560084E+02 -0.23586851642E+03  0.27107178316E+03  0.12499790012E+03 0.  0.
          2    1    1    2  501    0 -0.26538275460E+02  0.32140173058E+02 -0.92436695718E+02  0.10139927763E+03  0.00000000000E+00 0. -1.
          1    1    1    2  502    0  0.46750790752E+02 -0.74718733141E+02  0.27463819659E+02  0.92318941222E+02  0.00000000000E+00 0. -1.
         22    1    3    3    0    0 -0.41518736271E+02  0.28524858737E+02 -0.23998804518E+03  0.24521772949E+03  0.00000000000E+00 0. -1.
         22    1    3    3    0    0  0.21306220978E+02  0.14053701346E+02  0.41195287607E+01  0.25854053669E+02  0.00000000000E+00 0. -1.
</event>
<event>
 7    1  0.6235964E-006  0.1408717E+03  0.7818608E-02  0.1216858E+00
          2   -1    0    0  502    0  0.00000000000E+00  0.00000000000E+00  0.17330598580E+04  0.17330598580E+04  0.00000000000E+00 0. -1.
          1   -1    0    0  501    0 -0.00000000000E+00 -0.00000000000E+00 -0.64420232805E+03  0.64420232805E+03  0.00000000000E+00 0. -1.
         25    2    1    2    0    0 -0.35709878454E+02 -0.43977033064E+02  0.29316822152E+03  0.32370046027E+03  0.12500082804E+03 0.  0.
          2    1    1    2  501    0  0.80919240893E+02 -0.11531219481E+03 -0.61614855315E+03  0.63204736007E+03  0.00000000000E+00 0. -1.
          1    1    1    2  502    0 -0.45209362439E+02  0.15928922788E+03  0.14118378615E+04  0.14215143657E+04  0.00000000000E+00 0. -1.
         22    1    3    3    0    0  0.24146373789E+02 -0.56244775985E+01  0.22104577077E+03  0.22243182077E+03  0.00000000000E+00 0. -1.
         22    1    3    3    0    0 -0.59856252243E+02 -0.38352555465E+02  0.72122450756E+02  0.10126863950E+03  0.00000000000E+00 0. -1.
</event>
<event>
 7    1  0.6235964E-006  0.8121153E+02  0.7818608E-02  0.1444300E+00
          2   -1    0    0  502    0  0.00000000000E+00  0.00000000000E+00  0.25831738833E+04  0.25831738833E+04  0.00000000000E+00 0. -1.
          1   -1    0    0  501    0 -0.00000000000E+00 -0.00000000000E+00 -0.10948128787E+03  0.10948128787E+03  0.00000000000E+00 0. -1.
         25    2    1    2    0    0  0.23122595659E+02 -0.10946881315E+03  0.13879749498E+04  0.13980761604E+04  0.12499765436E+03 0.  0.
          2    1    1    2  501    0 -0.16262111518E+02  0.79214148666E+02 -0.88540317775E+02  0.11991132345E+03  0.00000000000E+00 0. -1.
          1    1    1    2  502    0 -0.68604841415E+01  0.30254664479E+02  0.11742579634E+04  0.11746676873E+04  0.00000000000E+00 0. -1.
         22    1    3    3    0    0  0.11259920481E+02  0.27787956180E+02  0.25271084715E+03  0.25448325796E+03  0.00000000000E+00 0.  1.
         22    1    3    3    0    0  0.11862675179E+02 -0.13725676933E+03  0.11352641026E+04  0.11435929025E+04  0.00000000000E+00 0.  1.
</event>
<event>
 7    1  0.6235964E-006  0.4004578E+02  0.7818608E-02  0.1543549E+00
          2   -1    0    0  502    0  0.00000000000E+00  0.00000000000E+00  0.16160757122E+04  0.16160757122E+04  0.00000000000E+00 0. -1.
          1   -1    0    0  501    0 -0.00000000000E+00 -0.00000000000E+00 -0.72286099843E+01  0.72286099843E+01  0.00000000000E+00 0. -1.
         25    2    1    2    0    0  0.20428684472E+02  0.45807692155E+02  0.83283621168E+03  0.84365621404E+03  0.12499590470E+03 0.  0.
          2    1    1    2  501    0 -0.35016708150E+02 -0.17771886773E+02  0.29530564956E+03  0.29790507964E+03  0.00000000000E+00 0. -1.
          1    1    1    2  502    0  0.14588023678E+02 -0.28035805382E+02  0.48070524093E+03  0.48174302847E+03  0.00000000000E+00 0. -1.
         22    1    3    3    0    0  0.64299022807E+02 -0.60383270901E+00  0.28807391651E+03  0.29516319270E+03  0.00000000000E+00 0. -1.
         22    1    3    3    0    0 -0.43870338335E+02  0.46411524864E+02  0.54476229517E+03  0.54849302134E+03  0.00000000000E+00 0. -1.
</event>
<event>
 7    1  0.6235964E-006  0.7877198E+02  0.7818608E-02  0.1409106E+00
          2   -1    0    0  502    0  0.00000000000E+00  0.00000000000E+00  0.22797797225E+04  0.22797797225E+04  0.00000000000E+00 0. -1.
          1   -1    0    0  501    0 -0.00000000000E+00 -0.00000000000E+00 -0.26893137784E+04  0.26893137784E+04  0.00000000000E+00 0. -1.
         25    2    1    2    0    0  0.76409737081E+02 -0.89034422100E+02  0.25855320095E+02  0.17336805801E+03  0.12498963845E+03 0.  0.
          2    1    1    2  501    0 -0.35466845294E+02  0.22154094615E+02 -0.26146850256E+04  0.26150194042E+04  0.00000000000E+00 0. -1.
          1    1    1    2  502    0 -0.40942891787E+02  0.66880327485E+02  0.21792956496E+04  0.21807060387E+04  0.00000000000E+00 0. -1.
         22    1    3    3    0    0 -0.32762666673E+02 -0.22946937533E+02  0.22093208387E+02  0.45695340315E+02  0.00000000000E+00 0. -1.
         22    1    3    3    0    0  0.10917240375E+03 -0.66087484567E+02  0.37621117085E+01  0.12767271769E+03  0.00000000000E+00 0. -1.
</event>
<event>
 7    1  0.6235964E-006  0.1487598E+03  0.7818608E-02  0.1217697E+00
          2   -1    0    0  502    0  0.00000000000E+00  0.00000000000E+00  0.32009758152E+03  0.32009758152E+03  0.00000000000E+00 0. -1.
          1   -1    0    0  501    0 -0.00000000000E+00 -0.00000000000E+00 -0.13373466130E+04  0.13373466130E+04  0.00000000000E+00 0. -1.
         25    2    1    2    0    0 -0.18171656504E+03 -0.13436335954E+03  0.14181181976E+03  0.29463847206E+03  0.12500725817E+03 0.  0.
          2    1    1    2  501    0  0.14722379557E+03  0.13378032599E+02 -0.12158299898E+04  0.12247842185E+04  0.00000000000E+00 0. -1.
          1    1    1    2  502    0  0.34492769472E+02  0.12098532694E+03  0.56769138522E+02  0.13802150401E+03  0.00000000000E+00 0. -1.
         22    1    3    3    0    0 -0.15524385010E+02  0.20764652589E+02  0.34729449789E+02  0.43339497110E+02  0.00000000000E+00 0. -1.
         22    1    3    3    0    0 -0.16619218003E+03 -0.15512801213E+03  0.10708236997E+03  0.25129897495E+03  0.00000000000E+00 0. -1.
</event>
<event>
 7    1  0.6235964E-006  0.7913202E+02  0.7818608E-02  0.1382892E+00
          2   -1    0    0  502    0  0.00000000000E+00  0.00000000000E+00  0.31984902323E+04  0.31984902323E+04  0.00000000000E+00 0. -1.
          1   -1    0    0  501    0 -0.00000000000E+00 -0.00000000000E+00 -0.69369208792E+02  0.69369208792E+02  0.00000000000E+00 0. -1.
         25    2    1    2    0    0 -0.68920574548E+01  0.59550012989E+02  0.95937149817E+02  0.16858963949E+03  0.12499930129E+03 0.  0.
          2    1    1    2  501    0 -0.51052461910E+02 -0.49638236163E+01 -0.12298638940E+02  0.52747037185E+02  0.00000000000E+00 0. -1.
          1    1    1    2  502    0  0.57944519365E+02 -0.54586189373E+02  0.30454825126E+04  0.30465227644E+04  0.00000000000E+00 0. -1.
         22    1    3    3    0    0  0.33991112436E+02  0.45588611281E+02  0.10943585203E+03  0.12332851622E+03  0.00000000000E+00 0. -1.
         22    1    3    3    0    0 -0.40883169891E+02  0.13961401709E+02 -0.13498702213E+02  0.45261123267E+02  0.00000000000E+00 0. -1.
</event>
<event>
 7    1  0.6235964E-006  0.2313299E+03  0.7818608E-02  0.1242246E+00
          2   -1    0    0  502    0  0.00000000000E+00  0.00000000000E+00  0.22968956807E+04  0.22968956807E+04  0.00000000000E+00 0. -1.
          1   -1    0    0  501    0 -0.00000000000E+00 -0.00000000000E+00 -0.15180552299E+04  0.15180552299E+04  0.00000000000E+00 0. -1.
         25    2    1    2    0    0  0.12888878664E+03  0.26214979800E+03  0.24299574986E+03  0.40000808537E+03  0.12499879200E+03 0.  0.
          2    1    1    2  501    0 -0.10586648933E+03 -0.20373647568E+03 -0.14298896475E+04  0.14482060175E+04  0.00000000000E+00 0. -1.
          1    1    1    2  502    0 -0.23022297308E+02 -0.58413322321E+02  0.19657343485E+04  0.19667368078E+04  0.00000000000E+00 0. -1.
         22    1    3    3    0    0 -0.83985502692E+01  0.98550970418E+02  0.44572006377E+02  0.10848729497E+03  0.00000000000E+00 0. -1.
         22    1    3    3    0    0  0.13728733691E+03  0.16359882759E+03  0.19842374348E+03  0.29152079041E+03  0.00000000000E+00 0. -1.
</event>
<event>
 7    1  0.6235964E-006  0.6322891E+02  0.7818608E-02  0.1421197E+00
          2   -1    0    0  502    0  0.00000000000E+00  0.00000000000E+00  0.16636401209E+04  0.16636401209E+04  0.00000000000E+00 0. -1.
          1   -1    0    0  501    0 -0.00000000000E+00 -0.00000000000E+00 -0.95163756628E+02  0.95163756628E+02  0.00000000000E+00 0. -1.
         25    2    1    2    0    0 -0.78013592916E+02  0.14882800061E+02  0.58203181151E+03  0.60057809559E+03  0.12500160350E+03 0.  0.
          2    1    1    2  501    0  0.35418809272E+02  0.31560659730E+02 -0.78336495933E+02  0.91581514990E+02  0.00000000000E+00 0. -1.
          1    1    1    2  502    0  0.42594783644E+02 -0.46443459791E+02  0.10647810487E+04  0.10666442670E+04  0.00000000000E+00 0. -1.
         22    1    3    3    0    0  0.52279889791E+01  0.18334981041E+02  0.82413379198E+01  0.20770725776E+02  0.00000000000E+00 0.  1.
         22    1    3    3    0    0 -0.83241581895E+02 -0.34521809800E+01  0.57379047359E+03  0.57980736982E+03  0.00000000000E+00 0.  1.
</event>
<event>
 7    1  0.6235964E-006  0.8563361E+02  0.7818608E-02  0.1317802E+00
          2   -1    0    0  502    0  0.00000000000E+00  0.00000000000E+00  0.27324247427E+04  0.27324247427E+04  0.00000000000E+00 0. -1.
          1   -1    0    0  501    0 -0.00000000000E+00 -0.00000000000E+00 -0.12787930209E+03  0.12787930209E+03  0.00000000000E+00 0. -1.
         25    2    1    2    0    0 -0.82785202289E+02  0.28120490077E+02  0.51396420228E+03  0.53612663478E+03  0.12501366169E+03 0.  0.
          2    1    1    2  501    0  0.21916847975E+02 -0.83950000718E+02 -0.99798471569E+02  0.13224101396E+03  0.00000000000E+00 0. -1.
          1    1    1    2  502    0  0.60868354315E+02  0.55829510641E+02  0.21903797099E+04  0.21919363960E+04  0.00000000000E+00 0. -1.
         22    1    3    3    0    0 -0.63781143182E+01 -0.39868762590E+02  0.72648983158E+02  0.83114820139E+02  0.00000000000E+00 0. -1.
         22    1    3    3    0    0 -0.76407087971E+02  0.67989252667E+02  0.44131521913E+03  0.45301181464E+03  0.00000000000E+00 0. -1.
</event>
<event>
 7    1  0.6235964E-006  0.1263463E+03  0.7818608E-02  0.1373462E+00
          2   -1    0    0  502    0  0.00000000000E+00  0.00000000000E+00  0.10134514517E+04  0.10134514517E+04  0.00000000000E+00 0. -1.
          1   -1    0    0  501    0 -0.00000000000E+00 -0.00000000000E+00 -0.11445822073E+04  0.11445822073E+04  0.00000000000E+00 0. -1.
         25    2    1    2    0    0 -0.14292113220E+03 -0.61003128390E+02  0.26545677810E+03  0.33202133442E+03  0.12499213482E+03 0.  0.
          2    1    1    2  501    0  0.27994053400E+02  0.20505621333E+02 -0.11058319950E+04  0.11063763142E+04  0.00000000000E+00 0. -1.
          1    1    1    2  502    0  0.11492707880E+03  0.40497507057E+02  0.70924446127E+03  0.71963601033E+03  0.00000000000E+00 0. -1.
         22    1    3    3    0    0 -0.48522983250E+02 -0.87140430285E+02  0.15577236846E+03  0.18496747084E+03  0.00000000000E+00 0.  1.
         22    1    3    3    0    0 -0.94398148949E+02  0.26137301895E+02  0.10968440965E+03  0.14705386358E+03  0.00000000000E+00 0.  1.
</event>
<event>
 7    1  0.6235964E-006  0.1061537E+03  0.7818608E-02  0.1275833E+00
          2   -1    0    0  502    0  0.00000000000E+00  0.00000000000E+00  0.74679681233E+03  0.74679681233E+03  0.00000000000E+00 0. -1.
          1   -1    0    0  501    0 -0.00000000000E+00 -0.00000000000E+00 -0.92288229771E+03  0.92288229771E+03  0.00000000000E+00 0. -1.
         25    2    1    2    0    0  0.91028960569E+02  0.21702344303E+02  0.14996361232E+03  0.21649828102E+03  0.12500062901E+03 0.  0.
          2    1    1    2  501    0 -0.54957877094E+01 -0.98149166667E+02 -0.88101500627E+03  0.88648232012E+03  0.00000000000E+00 0. -1.
          1    1    1    2  502    0 -0.85533172860E+02  0.76446822363E+02  0.55496590858E+03  0.56669850891E+03  0.00000000000E+00 0. -1.
         22    1    3    3    0    0  0.62092360098E+02 -0.35678139303E+02  0.24772641454E+02  0.75776477691E+02  0.00000000000E+00 0. -1.
         22    1    3    3    0    0  0.28936600472E+02  0.57380483606E+02  0.12519097087E+03  0.14072180333E+03  0.00000000000E+00 0. -1.
</event>
<event>
 7    1  0.6235964E-006  0.4626028E+02  0.7818608E-02  0.1567296E+00
          2   -1    0    0  502    0  0.00000000000E+00  0.00000000000E+00  0.45014683066E+03  0.45014683066E+03  0.00000000000E+00 0. -1.
          1   -1    0    0  501    0 -0.00000000000E+00 -0.00000000000E+00 -0.29927735249E+03  0.29927735249E+03  0.00000000000E+00 0. -1.
         25    2    1    2    0    0 -0.54062220385E+02  0.43419395772E+02 -0.22903945580E+03  0.26997434719E+03  0.12497643067E+03 0.  0.
          2    1    1    2  501    0  0.16194065064E+02 -0.17048395488E+02 -0.45674606482E+02  0.51371832840E+02  0.00000000000E+00 0. -1.
          1    1    1    2  502    0  0.37868155321E+02 -0.26371000284E+02  0.42558354046E+03  0.42807800312E+03  0.00000000000E+00 0. -1.
         22    1    3    3    0    0 -0.29137873877E+02  0.58883118331E+02 -0.36386658370E+02  0.75101439572E+02  0.00000000000E+00 0. -1.
         22    1    3    3    0    0 -0.24924346508E+02 -0.15463722559E+02 -0.19265279743E+03  0.19487290762E+03  0.00000000000E+00 0. -1.
</event>
<event>
 7    1  0.6235964E-006  0.7730254E+02  0.7818608E-02  0.1367243E+00
          2   -1    0    0  502    0  0.00000000000E+00  0.00000000000E+00  0.50166872715E+03  0.50166872715E+03  0.00000000000E+00 0. -1.
          1   -1    0    0  501    0 -0.00000000000E+00 -0.00000000000E+00 -0.86131696583E+03  0.86131696583E+03  0.00000000000E+00 0. -1.
         25    2    1    2    0    0 -0.11239649736E+03  0.51142335516E+02 -0.83831839902E+02  0.19468176806E+03  0.12499880932E+03 0.  0.
          2    1    1    2  501    0  0.75825725951E+02 -0.39413592817E+01 -0.71805212450E+03  0.72205535004E+03  0.00000000000E+00 0. -1.
          1    1    1    2  502    0  0.36570771410E+02 -0.47200976235E+02  0.44223572572E+03  0.44624857488E+03  0.00000000000E+00 0. -1.
         22    1    3    3    0    0 -0.81570329544E+02 -0.14134263758E+02 -0.89932967524E+02  0.12223516156E+03  0.00000000000E+00 0. -1.
         22    1    3    3    0    0 -0.30826167817E+02  0.65276599275E+02  0.61011276214E+01  0.72446606500E+02  0.00000000000E+00 0. -1.
</event>
<event>
 7    1  0.6235964E-006  0.9039957E+02  0.7818608E-02  0.1328525E+00
          2   -1    0    0  502    0  0.00000000000E+00  0.00000000000E+00  0.14341817128E+04  0.14341817128E+04  0.00000000000E+00 0. -1.
          1   -1    0    0  501    0 -0.00000000000E+00 -0.00000000000E+00 -0.19760889478E+03  0.19760889478E+03  0.00000000000E+00 0. -1.
         25    2    1    2    0    0  0.97412525515E+02  0.12277156794E+03  0.12765568966E+03  0.23766702235E+03  0.12501032113E+03 0.  0.
          2    1    1    2  501    0 -0.51058826147E+02 -0.68824832332E+02 -0.12861459747E+03  0.15454959060E+03  0.00000000000E+00 0. -1.
          1    1    1    2  502    0 -0.46353699368E+02 -0.53946735609E+02  0.12375317258E+04  0.12395739946E+04  0.00000000000E+00 0. -1.
         22    1    3    3    0    0  0.11168216462E+03  0.11380165645E+03  0.14351545956E+03  0.21452368177E+03  0.00000000000E+00 0.  1.
         22    1    3    3    0    0 -0.14269639106E+02  0.89699114873E+01 -0.15859769896E+02  0.23143340585E+02  0.00000000000E+00 0.  1.
</event>
<event>
 7    1  0.6235964E-006  0.2730967E+03  0.7818608E-02  0.1251863E+00
          2   -1    0    0  502    0  0.00000000000E+00  0.00000000000E+00  0.35457071503E+04  0.35457071503E+04  0.00000000000E+00 0. -1.
          1   -1    0    0  501    0 -0.00000000000E+00 -0.00000000000E+00 -0.85779490969E+03  0.85779490969E+03  0.00000000000E+00 0. -1.
         25    2    1    2    0    0  0.18199777469E+03  0.22174535768E+03  0.10539004550E+04  0.10993748966E+04  0.12499920258E+03 0.  0.
          2    1    1    2  501    0 -0.13603759405E+03 -0.23656531392E+03 -0.81251837562E+03  0.85712046146E+03  0.00000000000E+00 0. -1.
          1    1    1    2  502    0 -0.45960180634E+02  0.14819956235E+02  0.24465301612E+04  0.24470067019E+04  0.00000000000E+00 0. -1.
         22    1    3    3    0    0  0.99837539851E+02  0.20605417734E+03  0.79302119114E+03  0.82541411907E+03  0.00000000000E+00 0.  1.
         22    1    3    3    0    0  0.82160234836E+02  0.15691180341E+02  0.26087926386E+03  0.27396077756E+03  0.00000000000E+00 0.  1.
</event>
<event>
 7    1  0.6235964E-006  0.6042887E+02  0.7818608E-02  0.1485759E+00
          2   -1    0    0  502    0  0.00000000000E+00  0.00000000000E+00  0.17598953137E+04  0.17598953137E+04  0.00000000000E+00 0. -1.
          1   -1    0    0  501    0 -0.00000000000E+00 -0.00000000000E+00 -0.11476314383E+03  0.11476314383E+03  0.00000000000E+00 0. -1.
         25    2    1    2    0    0  0.57097100924E+02  0.15857656071E+02  0.12106799362E+04  0.12185574408E+04  0.12499913808E+03 0.  0.
          2    1    1    2  501    0  0.46015746759E+01 -0.30569838148E+02 -0.10677988418E+03  0.11116489176E+03  0.00000000000E+00 0. -1.
          1    1    1    2  502    0 -0.61698675600E+02  0.14712182077E+02  0.54123211789E+03  0.54493612498E+03  0.00000000000E+00 0. -1.
         22    1    3    3    0    0 -0.27002856931E+02  0.32845659152E+02  0.64585122321E+03  0.64724940643E+03  0.00000000000E+00 0.  1.
         22    1    3    3    0    0  0.84099957855E+02 -0.16988003081E+02  0.56482871298E+03  0.57130803439E+03  0.00000000000E+00 0.  1.
</event>
<event>
 7    1  0.7108359E-006  0.7103772E+02  0.7818608E-02  0.1405450E+00
          2   -1    0    0  502    0  0.00000000000E+00  0.00000000000E+00  0.20823514485E+04  0.20823514485E+04  0.00000000000E+00 0. -1.
          1   -1    0    0  501    0 -0.00000000000E+00 -0.00000000000E+00 -0.71158859078E+03  0.71158859078E+03  0.00000000000E+00 0. -1.
         25    2    1    2    0    0 -0.39647665991E+02 -0.20828414231E+02 -0.75804691028E+01  0.13300668620E+03  0.12501021880E+03 0.  0.
          2    1    1    2  501    0 -0.29805706106E+02  0.37263922088E+02 -0.63977566672E+03  0.64155271314E+03  0.00000000000E+00 0. -1.
          1    1    1    2  502    0  0.69453372098E+02 -0.16435507857E+02  0.20181189936E+04  0.20193806400E+04  0.00000000000E+00 0. -1.
         22    1    3    3    0    0 -0.16113406495E+02 -0.46167056950E+01  0.58583813729E+02  0.60934547438E+02  0.00000000000E+00 0. -1.
         22    1    3    3    0    0 -0.23534259496E+02 -0.16211708536E+02 -0.66164282832E+02  0.72072138767E+02  0.00000000000E+00 0. -1.
</event>
<event>
 7    1  0.6235964E-006  0.1858463E+03  0.7818608E-02  0.1357970E+00
          2   -1    0    0  502    0  0.00000000000E+00  0.00000000000E+00  0.22393409008E+04  0.22393409008E+04  0.00000000000E+00 0. -1.
          1   -1    0    0  501    0 -0.00000000000E+00 -0.00000000000E+00 -0.20697840629E+03  0.20697840629E+03  0.00000000000E+00 0. -1.
         25    2    1    2    0    0 -0.10850144317E+03  0.12995426236E+03  0.27036816738E+03  0.34261437962E+03  0.12499997484E+03 0.  0.
          2    1    1    2  501    0  0.10542795638E+03 -0.15661886511E+03 -0.11857426832E+03  0.22294479137E+03  0.00000000000E+00 0. -1.
          1    1    1    2  502    0  0.30734867872E+01  0.26664602741E+02  0.18805685954E+04  0.18807601361E+04  0.00000000000E+00 0. -1.
         22    1    3    3    0    0  0.25876334739E+02  0.75307067986E+01  0.21773699920E+02  0.34646648505E+02  0.00000000000E+00 0. -1.
         22    1    3    3    0    0 -0.13437777791E+03  0.12242355557E+03  0.24859446746E+03  0.30796773111E+03  0.00000000000E+00 0. -1.
</event>
<event>
 7    1  0.6235964E-006  0.1006760E+03  0.7818608E-02  0.1427073E+00
          2   -1    0    0  502    0  0.00000000000E+00  0.00000000000E+00  0.40453568996E+03  0.40453568996E+03  0.00000000000E+00 0. -1.
          1   -1    0    0  501    0 -0.00000000000E+00 -0.00000000000E+00 -0.29377750198E+03  0.29377750198E+03  0.00000000000E+00 0. -1.
         25    2    1    2    0    0 -0.65030850455E+02  0.33616053730E+02 -0.17474466966E+03  0.22698009859E+03  0.12500086001E+03 0.  0.
          2    1    1    2  501    0 -0.26333555022E+02  0.10861485682E+02 -0.83693315674E+02  0.88408139217E+02  0.00000000000E+00 0. -1.
          1    1    1    2  502    0  0.91364405476E+02 -0.44477539413E+02  0.36919617332E+03  0.38292495413E+03  0.00000000000E+00 0. -1.
         22    1    3    3    0    0  0.17515825567E+02 -0.30269552991E+02 -0.74304317255E+02  0.82122966010E+02  0.00000000000E+00 0.  1.
         22    1    3    3    0    0 -0.82546676022E+02  0.63885606722E+02 -0.10044035241E+03  0.14485713258E+03  0.00000000000E+00 0.  1.
</event>
<event>
 7    1  0.6235964E-006  0.1515904E+03  0.7818608E-02  0.1223677E+00
          2   -1    0    0  502    0  0.00000000000E+00  0.00000000000E+00  0.97868765022E+03  0.97868765022E+03  0.00000000000E+00 0. -1.
          1   -1    0    0  501    0 -0.00000000000E+00 -0.00000000000E+00 -0.12143214661E+04  0.12143214661E+04  0.00000000000E+00 0. -1.
         25    2    1    2    0    0  0.20731894556E+03 -0.24990088480E+02 -0.56739976073E+02  0.24989888428E+03  0.12499751105E+03 0.  0.
          2    1    1    2  501    0 -0.11555427798E+03  0.95873065400E+02 -0.10518370236E+04  0.10624996753E+04  0.00000000000E+00 0. -1.
          1    1    1    2  502    0 -0.91764667581E+02 -0.70882976921E+02  0.87294318375E+03  0.88061055677E+03  0.00000000000E+00 0. -1.
         22    1    3    3    0    0  0.74291246881E+01 -0.26234274037E+02  0.22021413555E+02  0.35048133799E+02  0.00000000000E+00 0.  1.
         22    1    3    3    0    0  0.19988982087E+03  0.12441855569E+01 -0.78761389627E+02  0.21485075048E+03  0.00000000000E+00 0.  1.
</event>
<event>
 7    1  0.6235964E-006  0.7124111E+02  0.7818608E-02  0.1375906E+00
          2   -1    0    0  502    0  0.00000000000E+00  0.00000000000E+00  0.54404167677E+03  0.54404167677E+03  0.00000000000E+00 0. -1.
          1   -1    0    0  501    0 -0.00000000000E+00 -0.00000000000E+00 -0.28967357827E+03  0.28967357827E+03  0.00000000000E+00 0. -1.
         25    2    1    2    0    0  0.63313717310E+02 -0.30420620323E+01  0.10906940490E+03  0.17759305395E+03  0.12500110715E+03 0.  0.
          2    1    1    2  501    0 -0.47025888279E+02 -0.55034975026E+02 -0.24793633541E+03  0.25828803507E+03  0.00000000000E+00 0. -1.
          1    1    1    2  502    0 -0.16287829031E+02  0.58077037059E+02  0.39323502901E+03  0.39783416602E+03  0.00000000000E+00 0. -1.
         22    1    3    3    0    0  0.85319085785E+02  0.92440297498E+01  0.12208336813E+03  0.14922850686E+03  0.00000000000E+00 0. -1.
         22    1    3    3    0    0 -0.22005368475E+02 -0.12286091782E+02 -0.13013963234E+02  0.28364547097E+02  0.00000000000E+00 0. -1.
</event>
<event>
 7    1  0.6235964E-006  0.5212331E+02  0.7818608E-02  0.1453674E+00
          2   -1    0    0  502    0  0.00000000000E+00  0.00000000000E+00  0.11969323701E+04  0.11969323701E+04  0.00000000000E+00 0. -1.
          1   -1    0    0  501    0 -0.00000000000E+00 -0.00000000000E+00 -0.12922860553E+02  0.12922860553E+02  0.00000000000E+00 0. -1.
         25    2    1    2    0    0 -0.76885815718E+01 -0.37059761009E+02  0.63320579853E+03  0.64653508799E+03  0.12500198612E+03 0.  0.
          2    1    1    2  501    0 -0.48599257322E+02  0.18840171487E+02  0.35397401641E+03  0.35779106217E+03  0.00000000000E+00 0. -1.
          1    1    1    2  502    0  0.56287838894E+02  0.18219589522E+02  0.19682969457E+03  0.20552908046E+03  0.00000000000E+00 0. -1.
         22    1    3    3    0    0  0.29028005027E+02 -0.64010067535E+02  0.22313284934E+03  0.23394055286E+03  0.00000000000E+00 0. -1.
         22    1    3    3    0    0 -0.36716586599E+02  0.26950306526E+02  0.41007294919E+03  0.41259453512E+03  0.00000000000E+00 0. -1.
</event>
<event>
 7    1  0.6235964E-006  0.2686131E+03  0.7818608E-02  0.1205663E+00
          2   -1    0    0  502    0  0.00000000000E+00  0.00000000000E+00  0.10837271945E+03  0.10837271945E+03  0.00000000000E+00 0. -1.
          1   -1    0    0  501    0 -0.00000000000E+00 -0.00000000000E+00 -0.21471699801E+04  0.21471699801E+04  0.00000000000E+00 0. -1.
         25    2    1    2    0    0  0.19739883764E+03 -0.54494531068E+02 -0.26327356546E+03  0.35619402276E+03  0.12500102624E+03 0.  0.
          2    1    1    2  501    0 -0.27295329022E+03  0.78233557761E+02 -0.17953855387E+04  0.18176999810E+04  0.00000000000E+00 0. -1.
          1    1    1    2  502    0  0.75554452582E+02 -0.23739026692E+02  0.19861843556E+02  0.81648695781E+02  0.00000000000E+00 0. -1.
         22    1    3    3    0    0  0.92748021188E+02 -0.15610266195E+02 -0.31936009557E+02  0.99326655795E+02  0.00000000000E+00 0.  1.
         22    1    3    3    0    0  0.10465081645E+03 -0.38884264873E+02 -0.23133755591E+03  0.25686736697E+03  0.00000000000E+00 0.  1.
</event>
<event>
 7    1  0.6235964E-006  0.2041515E+03  0.7818608E-02  0.1227030E+00
          2   -1    0    0  502    0  0.00000000000E+00  0.00000000000E+00  0.13671120858E+04  0.13671120858E+04  0.00000000000E+00 0. -1.
          1   -1    0    0  501    0 -0.00000000000E+00 -0.00000000000E+00 -0.74251986943E+03  0.74251986943E+03  0.00000000000E+00 0. -1.
         25    2    1    2    0    0  0.32547753499E+02 -0.25995095346E+03  0.17199160440E+02  0.29078312903E+03  0.12500065017E+03 0.  0.
          2    1    1    2  501    0 -0.70277895099E+02  0.18585640930E+03 -0.58794964741E+03  0.62061773686E+03  0.00000000000E+00 0. -1.
          1    1    1    2  502    0  0.37730141601E+02  0.74094544167E+02  0.11953427034E+04  0.11982310894E+04  0.00000000000E+00 0. -1.
         22    1    3    3    0    0 -0.14435426242E+02 -0.23649147850E+03  0.22521763263E+02  0.23799964445E+03  0.00000000000E+00 0. -1.
         22    1    3    3    0    0  0.46983179741E+02 -0.23459474961E+02 -0.53226028236E+01  0.52783484584E+02  0.00000000000E+00 0. -1.
</event>
<event>
 7    1  0.6235964E-006  0.1548813E+03  0.7818608E-02  0.1228708E+00
          2   -1    0    0  502    0  0.00000000000E+00  0.00000000000E+00  0.19992956337E+03  0.19992956337E+03  0.00000000000E+00 0. -1.
          1   -1    0    0  501    0 -0.00000000000E+00 -0.00000000000E+00 -0.14146350340E+04  0.14146350340E+04  0.00000000000E+00 0. -1.
         25    2    1    2    0    0  0.49994959636E+02  0.70543932327E+02 -0.46897835201E+03  0.49299397822E+03  0.12500570197E+03 0.  0.
          2    1    1    2  501    0 -0.58507505085E+02  0.90434074901E+02 -0.89524578973E+03  0.90170198741E+03  0.00000000000E+00 0. -1.
          1    1    1    2  502    0  0.85125454493E+01 -0.16097800723E+03  0.14951867108E+03  0.21986863178E+03  0.00000000000E+00 0. -1.
         22    1    3    3    0    0 -0.41111573948E+02  0.25457128583E+02 -0.11613554935E+03  0.12580020959E+03  0.00000000000E+00 0. -1.
         22    1    3    3    0    0  0.91106533584E+02  0.45086803744E+02 -0.35284280266E+03  0.36719376863E+03  0.00000000000E+00 0. -1.
</event>
<event>
 7    1  0.6235964E-006  0.2670607E+03  0.7818608E-02  0.1147593E+00
          2   -1    0    0  502    0  0.00000000000E+00  0.00000000000E+00  0.90090793811E+03  0.90090793811E+03  0.00000000000E+00 0. -1.
          1   -1    0    0  501    0 -0.00000000000E+00 -0.00000000000E+00 -0.90706706246E+03  0.90706706246E+03  0.00000000000E+00 0. -1.
         25    2    1    2    0    0  0.48758308858E+02  0.11717558211E+03  0.21181991530E+03  0.27676683211E+03  0.12499885245E+03 0.  0.
          2    1    1    2  501    0 -0.90856847523E+02 -0.26494043653E+03 -0.84261870356E+03  0.88794970648E+03  0.00000000000E+00 0. -1.
          1    1    1    2  502    0  0.42098538665E+02  0.14776485442E+03  0.62463966391E+03  0.64325846197E+03  0.00000000000E+00 0. -1.
         22    1    3    3    0    0  0.93173008256E+01  0.25320638919E+02 -0.13571848046E+02  0.30201687194E+02  0.00000000000E+00 0.  1.
         22    1    3    3    0    0  0.39441008032E+02  0.91854943192E+02  0.22539176335E+03  0.24656514492E+03  0.00000000000E+00 0.  1.
</event>
<event>
 7    1  0.6235964E-006  0.9434112E+02  0.7818608E-02  0.1404108E+00
          2   -1    0    0  502    0  0.00000000000E+00  0.00000000000E+00  0.32425150380E+04  0.32425150380E+04  0.00000000000E+00 0. -1.
          1   -1    0    0  501    0 -0.00000000000E+00 -0.00000000000E+00 -0.37216656758E+02  0.37216656758E+02  0.00000000000E+00 0. -1.
         25    2    1    2    0    0 -0.59586625746E+02 -0.95063986939E+01  0.30210730128E+03  0.33246802115E+03  0.12500090405E+03 0.  0.
          2    1    1    2  501    0 -0.36253758437E+02  0.20580849114E+01 -0.57241312556E+01  0.36760527648E+02  0.00000000000E+00 0. -1.
          1    1    1    2  502    0  0.95840384183E+02  0.74483137825E+01  0.29089152112E+04  0.29105031460E+04  0.00000000000E+00 0. -1.
         22    1    3    3    0    0  0.19407404748E+02 -0.39749239975E+02  0.16952951232E+03  0.17520532236E+03  0.00000000000E+00 0.  1.
         22    1    3    3    0    0 -0.78994030495E+02  0.30242841281E+02  0.13257778897E+03  0.15726269879E+03  0.00000000000E+00 0.  1.
</event>
<event>
 7    1  0.6235964E-006  0.1100857E+03  0.7818608E-02  0.1401714E+00
          2   -1    0    0  502    0  0.00000000000E+00  0.00000000000E+00  0.28091401187E+03  0.28091401187E+03  0.00000000000E+00 0. -1.
          1   -1    0    0  501    0 -0.00000000000E+00 -0.00000000000E+00 -0.13467921279E+04  0.13467921279E+04  0.00000000000E+00 0. -1.
         25    2    1    2    0    0  0.96142212595E+02 -0.25614373005E+02 -0.51769741728E+03  0.54179107287E+03  0.12501011814E+03 0.  0.
          2    1    1    2  501    0 -0.17660132189E+01 -0.31662350095E+02 -0.80539042411E+03  0.80601449023E+03  0.00000000000E+00 0. -1.
          1    1    1    2  502    0 -0.94376199376E+02  0.57276723100E+02  0.25720972534E+03  0.27990057669E+03  0.00000000000E+00 0. -1.
         22    1    3    3    0    0  0.11422900634E+03 -0.40023991047E+02 -0.49426432916E+03  0.50886875796E+03  0.00000000000E+00 0.  1.
         22    1    3    3    0    0 -0.18086793748E+02  0.14409618042E+02 -0.23433088127E+02  0.32922314915E+02  0.00000000000E+00 0.  1.
</event>
<event>
 7    1  0.6235964E-006  0.6858349E+02  0.7818608E-02  0.1400101E+00
          2   -1    0    0  502    0  0.00000000000E+00  0.00000000000E+00  0.82769014493E+03  0.82769014493E+03  0.00000000000E+00 0. -1.
          1   -1    0    0  501    0 -0.00000000000E+00 -0.00000000000E+00 -0.22494150120E+03  0.22494150120E+03  0.00000000000E+00 0. -1.
         25    2    1    2    0    0 -0.44570857331E+02  0.75213951615E+02  0.21943010412E+03  0.26724017659E+03  0.12499616613E+03 0.  0.
          2    1    1    2  501    0 -0.65063620778E+01 -0.68213218371E+02 -0.19401530239E+03  0.20576033017E+03  0.00000000000E+00 0. -1.
          1    1    1    2  502    0  0.51077219409E+02 -0.70007332433E+01  0.57733384200E+03  0.57963113937E+03  0.00000000000E+00 0. -1.
         22    1    3    3    0    0 -0.26738848982E+02  0.50472916235E+02  0.22841370500E+03  0.23544702578E+03  0.00000000000E+00 0. -1.
         22    1    3    3    0    0 -0.17832008349E+02  0.24741035380E+02 -0.89836008776E+01  0.31793150806E+02  0.00000000000E+00 0. -1.
</event>
<event>
 7    1  0.6235964E-006  0.1612727E+03  0.7818608E-02  0.1262076E+00
          2   -1    0    0  502    0  0.00000000000E+00  0.00000000000E+00  0.25394718948E+03  0.25394718948E+03  0.00000000000E+00 0. -1.
          1   -1    0    0  501    0 -0.00000000000E+00 -0.00000000000E+00 -0.28151638124E+03  0.28151638124E+03  0.00000000000E+00 0. -1.
         25    2    1    2    0    0 -0.18683965131E+03  0.34075258015E+01 -0.99481898607E+02  0.24584849499E+03  0.12499667118E+03 0.  0.
          2    1    1    2  501    0  0.40014085242E+02 -0.62163208619E+02 -0.50583155473E+02  0.89577045838E+02  0.00000000000E+00 0. -1.
          1    1    1    2  502    0  0.14682556607E+03  0.58755682817E+02  0.12249586232E+03  0.20003802988E+03  0.00000000000E+00 0. -1.
         22    1    3    3    0    0 -0.12091392675E+03  0.36939922724E+02 -0.11427318344E+03  0.17042035098E+03  0.00000000000E+00 0. -1.
         22    1    3    3    0    0 -0.65925724563E+02 -0.33532396922E+02  0.14791284837E+02  0.75428144016E+02  0.00000000000E+00 0. -1.
</event>
<event>
 7    1  0.6235964E-006  0.1897864E+03  0.7818608E-02  0.1302926E+00
          2   -1    0    0  502    0  0.00000000000E+00  0.00000000000E+00  0.63507063373E+03  0.63507063373E+03  0.00000000000E+00 0. -1.
          1   -1    0    0  501    0 -0.00000000000E+00 -0.00000000000E+00 -0.34265947118E+03  0.34265947118E+03  0.00000000000E+00 0. -1.
         25    2    1    2    0    0  0.87415989014E+02  0.15727131761E+03 -0.11289772959E+03  0.24647043121E+03  0.12500381449E+03 0.  0.
          2    1    1    2  501    0 -0.33750978991E+02  0.26075867369E+02 -0.14373479659E+03  0.14992922061E+03  0.00000000000E+00 0. -1.
          1    1    1    2  502    0 -0.53665010024E+02 -0.18334718498E+03  0.54904368874E+03  0.58133045308E+03  0.00000000000E+00 0. -1.
         22    1    3    3    0    0  0.53540970911E+02  0.11045145613E+03 -0.13692285037E+03  0.18388590669E+03  0.00000000000E+00 0. -1.
         22    1    3    3    0    0  0.33875018103E+02  0.46819861482E+02  0.24025120779E+02  0.62584524518E+02  0.00000000000E+00 0. -1.
</event>
<event>
 7    1  0.6235964E-006  0.2063130E+03  0.7818608E-02  0.1334662E+00
          2   -1    0    0  502    0  0.00000000000E+00  0.00000000000E+00  0.23549533633E+03  0.23549533633E+03  0.00000000000E+00 0. -1.
          1   -1    0    0  501    0 -0.00000000000E+00 -0.00000000000E+00 -0.14418106331E+04  0.14418106331E+04  0.00000000000E+00 0. -1.
         25    2    1    2    0    0 -0.14875286953E+03 -0.10065028375E+03  0.15368874744E+02  0.21936097900E+03  0.12500056393E+03 0.  0.
          2    1    1    2  501    0  0.16774519609E+03  0.12326412821E+03 -0.13297356256E+04  0.13459306558E+04  0.00000000000E+00 0. -1.
          1    1    1    2  502    0 -0.18992326555E+02 -0.22613844462E+02  0.10805145412E+03  0.11201433465E+03  0.00000000000E+00 0. -1.
         22    1    3    3    0    0 -0.11459197024E+03 -0.40426848773E+02  0.61472449912E+02  0.13617823557E+03  0.00000000000E+00 0. -1.
         22    1    3    3    0    0 -0.34160899297E+02 -0.60223434975E+02 -0.46103575168E+02  0.83182743428E+02  0.00000000000E+00 0. -1.
</event>
<event>
 7    1  0.6235964E-006  0.1138993E+03  0.7818608E-02  0.1325329E+00
          2   -1    0    0  502    0  0.00000000000E+00  0.00000000000E+00  0.28326300722E+04  0.28326300722E+04  0.00000000000E+00 0. -1.
          1   -1    0    0  501    0 -0.00000000000E+00 -0.00000000000E+00 -0.28674578013E+03  0.28674578013E+03  0.00000000000E+00 0. -1.
         25    2    1    2    0    0  0.89488907354E+02  0.36455971186E+02  0.14221539029E+04  0.14309029745E+04  0.12499718673E+03 0.  0.
          2    1    1    2  501    0 -0.11292298565E+03  0.16674071999E+02 -0.27020610356E+03  0.29332740030E+03  0.00000000000E+00 0. -1.
          1    1    1    2  502    0  0.23434078298E+02 -0.53130043185E+02  0.13939364928E+04  0.13951454775E+04  0.00000000000E+00 0. -1.
         22    1    3    3    0    0  0.64099702346E+02  0.62241839177E+02  0.49209171975E+03  0.50013706025E+03  0.00000000000E+00 0.  1.
         22    1    3    3    0    0  0.25389205008E+02 -0.25785867991E+02  0.93006218312E+03  0.93076591428E+03  0.00000000000E+00 0.  1.
</event>
<event>
 7    1  0.6235964E-006  0.9186524E+02  0.7818608E-02  0.1333442E+00
          2   -1    0    0  502    0  0.00000000000E+00  0.00000000000E+00  0.12393920280E+04  0.12393920280E+04  0.00000000000E+00 0. -1.
          1   -1    0    0  501    0 -0.00000000000E+00 -0.00000000000E+00 -0.30012826512E+03  0.30012826512E+03  0.00000000000E+00 0. -1.
         25    2    1    2    0    0 -0.46722673942E+02 -0.13313384273E+03  0.14303614785E+03  0.23662672571E+03  0.12500095754E+03 0.  0.
          2    1    1    2  501    0  0.59922239322E+02  0.67413141526E+02 -0.24419187349E+03  0.26031687901E+03  0.00000000000E+00 0. -1.
          1    1    1    2  502    0 -0.13199565380E+02  0.65720701207E+02  0.10404194885E+04  0.10425766884E+04  0.00000000000E+00 0. -1.
         22    1    3    3    0    0  0.17296844872E+02 -0.73400649056E+02  0.81999734085E+01  0.75855623972E+02  0.00000000000E+00 0.  1.
         22    1    3    3    0    0 -0.64019518813E+02 -0.59733193677E+02  0.13483617444E+03  0.16077110173E+03  0.00000000000E+00 0.  1.
</event>
<event>
 7    1  0.6235964E-006  0.1168671E+03  0.7818608E-02  0.1325345E+00
          2   -1    0    0  502    0  0.00000000000E+00  0.00000000000E+00  0.18733933716E+03  0.18733933716E+03  0.00000000000E+00 0. -1.
          1   -1    0    0  501    0 -0.00000000000E+00 -0.00000000000E+00 -0.15528270575E+04  0.15528270575E+04  0.00000000000E+00 0. -1.
         25    2    1    2    0    0  0.56875606891E+02  0.31548613826E+02 -0.84999954620E+01  0.14115861483E+03  0.12499341952E+03 0.  0.
          2    1    1    2  501    0 -0.90230517049E+02 -0.77258561748E+02 -0.14688512863E+04  0.14736466785E+04  0.00000000000E+00 0. -1.
          1    1    1    2  502    0  0.33354910158E+02  0.45709947922E+02  0.11186356143E+03  0.12536110141E+03  0.00000000000E+00 0. -1.
         22    1    3    3    0    0  0.39648567648E+02 -0.19447082637E+02 -0.54645570648E+02  0.70259065828E+02  0.00000000000E+00 0. -1.
         22    1    3    3    0    0  0.17227039243E+02  0.50995696463E+02  0.46145575186E+02  0.70899548998E+02  0.00000000000E+00 0. -1.
</event>
<event>
 7    1  0.6235964E-006  0.4421175E+02  0.7818608E-02  0.1557476E+00
          2   -1    0    0  502    0  0.00000000000E+00  0.00000000000E+00  0.14069735395E+02  0.14069735395E+02  0.00000000000E+00 0. -1.
          1   -1    0    0  501    0 -0.00000000000E+00 -0.00000000000E+00 -0.12525490376E+04  0.12525490376E+04  0.00000000000E+00 0. -1.
         25    2    1    2    0    0 -0.61755266275E+02  0.15165755564E+01 -0.52419990526E+03  0.54242667094E+03  0.12500055905E+03 0.  0.
          2    1    1    2  501    0  0.40032174207E+02 -0.16124974389E+02 -0.67843372215E+03  0.67980504935E+03  0.00000000000E+00 0. -1.
          1    1    1    2  502    0  0.21723092068E+02  0.14608398833E+02 -0.35845674757E+02  0.44387052665E+02  0.00000000000E+00 0. -1.
         22    1    3    3    0    0  0.17728752473E+02  0.33325704774E+02 -0.63768871172E+02  0.74103847360E+02  0.00000000000E+00 0.  1.
         22    1    3    3    0    0 -0.79484018748E+02 -0.31809129218E+02 -0.46043103409E+03  0.46832282358E+03  0.00000000000E+00 0.  1.
</event>
<event>
 7    1  0.6235964E-006  0.4782634E+02  0.7818608E-02  0.1505058E+00
          2   -1    0    0  502    0  0.00000000000E+00  0.00000000000E+00  0.12168579194E+03  0.12168579194E+03  0.00000000000E+00 0. -1.
          1   -1    0    0  501    0 -0.00000000000E+00 -0.00000000000E+00 -0.12098122672E+04  0.12098122672E+04  0.00000000000E+00 0. -1.
         25    2    1    2    0    0  0.11685655658E+02  0.26293501758E+02 -0.21820160602E+03  0.25311109386E+03  0.12500152872E+03 0.  0.
          2    1    1    2  501    0 -0.45021245124E+02 -0.18740435211E+02 -0.97072507900E+03  0.97194922471E+03  0.00000000000E+00 0. -1.
          1    1    1    2  502    0  0.33335589466E+02 -0.75530665470E+01  0.10080020973E+03  0.10643774059E+03  0.00000000000E+00 0. -1.
         22    1    3    3    0    0 -0.41802741994E+02  0.25525569774E+02 -0.29960162543E+02  0.57416332956E+02  0.00000000000E+00 0. -1.
         22    1    3    3    0    0  0.53488397652E+02  0.76793198375E+00 -0.18824144348E+03  0.19569476090E+03  0.00000000000E+00 0. -1.
</event>
<event>
 7    1  0.6235964E-006  0.1128544E+03  0.7818608E-02  0.1338208E+00
          2   -1    0    0  502    0  0.00000000000E+00  0.00000000000E+00  0.17176367397E+03  0.17176367397E+03  0.00000000000E+00 0. -1.
          1   -1    0    0  501    0 -0.00000000000E+00 -0.00000000000E+00 -0.51078775505E+03  0.51078775505E+03  0.00000000000E+00 0. -1.
         25    2    1    2    0    0  0.92885584256E+02 -0.68982390558E+02 -0.14822040415E+03  0.22578932357E+03  0.12500091384E+03 0.  0.
          2    1    1    2  501    0 -0.52276522484E+02  0.10201083241E+03 -0.30787522661E+03  0.32852123203E+03  0.00000000000E+00 0. -1.
          1    1    1    2  502    0 -0.40609061771E+02 -0.33028441853E+02  0.11707154969E+03  0.12824087342E+03  0.00000000000E+00 0. -1.
         22    1    3    3    0    0  0.52888446470E+02 -0.10166173148E+03 -0.12366945540E+03  0.16860139269E+03  0.00000000000E+00 0.  1.
         22    1    3    3    0    0  0.39997137786E+02  0.32679340917E+02 -0.24550948752E+02  0.57187930881E+02  0.00000000000E+00 0.  1.
</event>
<event>
 7    1  0.6235964E-006  0.1202821E+03  0.7818608E-02  0.1252450E+00
          2   -1    0    0  502    0  0.00000000000E+00  0.00000000000E+00  0.19056377051E+03  0.19056377051E+03  0.00000000000E+00 0. -1.
          1   -1    0    0  501    0 -0.00000000000E+00 -0.00000000000E+00 -0.10048604996E+04  0.10048604996E+04  0.00000000000E+00 0. -1.
         25    2    1    2    0    0  0.79503749725E+02  0.49947560455E+02 -0.12652741634E+03  0.20111950741E+03  0.12499705660E+03 0.  0.
          2    1    1    2  501    0  0.41555698497E+02 -0.10077071058E+03 -0.80857453954E+03  0.81588871678E+03  0.00000000000E+00 0. -1.
          1    1    1    2  502    0 -0.12105944822E+03  0.50823150129E+02  0.12080522684E+03  0.17841604587E+03  0.00000000000E+00 0. -1.
         22    1    3    3    0    0  0.65641670990E+02  0.72556397767E+02 -0.32000946979E+02  0.10294328747E+03  0.00000000000E+00 0. -1.
         22    1    3    3    0    0  0.13862078734E+02 -0.22608837311E+02 -0.94526469362E+02  0.98176219938E+02  0.00000000000E+00 0. -1.
</event>
<event>
 7    1  0.6235964E-006  0.1157727E+03  0.7818608E-02  0.1295872E+00
          2   -1    0    0  502    0  0.00000000000E+00  0.00000000000E+00  0.34154733248E+04  0.34154733248E+04  0.00000000000E+00 0. -1.
          1   -1    0    0  501    0 -0.00000000000E+00 -0.00000000000E+00 -0.39093769188E+03  0.39093769188E+03  0.00000000000E+00 0. -1.
         25    2    1    2    0    0  0.14812146036E+03 -0.14729802276E+02  0.18659921581E+03  0.26944645822E+03  0.12500076966E+03 0.  0.
          2    1    1    2  501    0 -0.94171979653E+02  0.66279674987E+02 -0.33957858826E+03  0.35857352757E+03  0.00000000000E+00 0. -1.
          1    1    1    2  502    0 -0.53949480705E+02 -0.51549872711E+02  0.31775150054E+04  0.31783910309E+04  0.00000000000E+00 0. -1.
         22    1    3    3    0    0  0.12531979090E+03  0.21761328820E+01  0.58642161795E+02  0.13837878698E+03  0.00000000000E+00 0.  1.
         22    1    3    3    0    0  0.22801669457E+02 -0.16905935158E+02  0.12795705401E+03  0.13106767124E+03  0.00000000000E+00 0.  1.
</event>
<event>
 7    1  0.6235964E-006  0.6816325E+02  0.7818608E-02  0.1428721E+00
          2   -1    0    0  502    0  0.00000000000E+00  0.00000000000E+00  0.47949404861E+03  0.47949404861E+03  0.00000000000E+00 0. -1.
          1   -1    0    0  501    0 -0.00000000000E+00 -0.00000000000E+00 -0.23295811727E+04  0.23295811727E+04  0.00000000000E+00 0. -1.
         25    2    1    2    0    0 -0.96029538752E+01  0.10681759653E+03  0.29064487065E+03  0.33406868063E+03  0.12500090758E+03 0.  0.
          2    1    1    2  501    0 -0.49986151766E+01 -0.67918908279E+02 -0.23047763221E+04  0.23057822662E+04  0.00000000000E+00 0. -1.
          1    1    1    2  502    0  0.14601569052E+02 -0.38898688251E+02  0.16404432731E+03  0.16922427452E+03  0.00000000000E+00 0. -1.
         22    1    3    3    0    0  0.48235994261E+02  0.12766610539E+02  0.57705540260E+02  0.76286478904E+02  0.00000000000E+00 0.  1.
         22    1    3    3    0    0 -0.57838948136E+02  0.94050985992E+02  0.23293933039E+03  0.25778220173E+03  0.00000000000E+00 0.  1.
</event>
<event>
 7    1  0.6235964E-006  0.3752283E+02  0.7818608E-02  0.1542087E+00
          2   -1    0    0  502    0  0.00000000000E+00  0.00000000000E+00  0.14276796208E+04  0.14276796208E+04  0.00000000000E+00 0. -1.
          1   -1    0    0  501    0 -0.00000000000E+00 -0.00000000000E+00 -0.42013846535E+02  0.42013846535E+02  0.00000000000E+00 0. -1.
         25    2    1    2    0    0 -0.19315875724E+02  0.40881260735E+02  0.83034014997E+02  0.15672851979E+03  0.12499920294E+03 0.  0.
          2    1    1    2  501    0  0.33501905028E+02 -0.60866579545E+01  0.54465948327E+02  0.64233671643E+02  0.00000000000E+00 0. -1.
          1    1    1    2  502    0 -0.14186029303E+02 -0.34794602781E+02  0.12481658109E+04  0.12487312759E+04  0.00000000000E+00 0. -1.
         22    1    3    3    0    0  0.17393924743E+02  0.62837828605E+02  0.21569513750E+01  0.65236445037E+02  0.00000000000E+00 0.  1.
         22    1    3    3    0    0 -0.36709800467E+02 -0.21956567870E+02  0.80877063622E+02  0.91492074755E+02  0.00000000000E+00 0.  1.
</event>
<event>
 7    1  0.6235964E-006  0.2369231E+03  0.7818608E-02  0.1200379E+00
          2   -1    0    0  502    0  0.00000000000E+00  0.00000000000E+00  0.35288994599E+04  0.35288994599E+04  0.00000000000E+00 0. -1.
          1   -1    0    0  501    0 -0.00000000000E+00 -0.00000000000E+00 -0.28145269194E+04  0.28145269194E+04  0.00000000000E+00 0. -1.
         25    2    1    2    0    0 -0.15530416190E+03  0.18933487144E+03 -0.63103210584E+03  0.68832831478E+03  0.12500909598E+03 0.  0.
          2    1    1    2  501    0  0.21067569729E+03 -0.11206107345E+03 -0.21475917710E+04  0.21608082628E+04  0.00000000000E+00 0. -1.
          1    1    1    2  502    0 -0.55371535386E+02 -0.77273797991E+02  0.34929964174E+04  0.34942898018E+04  0.00000000000E+00 0. -1.
         22    1    3    3    0    0 -0.70106773879E+02  0.82635246226E+02 -0.44230983670E+03  0.45539162850E+03  0.00000000000E+00 0. -1.
         22    1    3    3    0    0 -0.85197388021E+02  0.10669962522E+03 -0.18872226914E+03  0.23293668628E+03  0.00000000000E+00 0. -1.
</event>
<event>
 7    1  0.6235964E-006  0.1091909E+03  0.7818608E-02  0.1397082E+00
          2   -1    0    0  502    0  0.00000000000E+00  0.00000000000E+00  0.18099583902E+04  0.18099583902E+04  0.00000000000E+00 0. -1.
          1   -1    0    0  501    0 -0.00000000000E+00 -0.00000000000E+00 -0.89494772575E+02  0.89494772575E+02  0.00000000000E+00 0. -1.
         25    2    1    2    0    0  0.57106475575E+02  0.60459564078E+02  0.17650195731E+03  0.23173696892E+03  0.12503028989E+03 0.  0.
          2    1    1    2  501    0 -0.76942891422E+02 -0.87040632939E+02 -0.70148595354E+01  0.11638508743E+03  0.00000000000E+00 0. -1.
          1    1    1    2  502    0  0.19836415847E+02  0.26581068861E+02  0.15509765199E+04  0.15513311065E+04  0.00000000000E+00 0. -1.
         22    1    3    3    0    0 -0.37117605971E+02  0.12101891940E+02  0.23215542643E+02  0.45421733584E+02  0.00000000000E+00 0.  1.
         22    1    3    3    0    0  0.94224081546E+02  0.48357672138E+02  0.15328641467E+03  0.18631523534E+03  0.00000000000E+00 0.  1.
</event>
<event>
 7    1  0.6235964E-006  0.8709511E+02  0.7818608E-02  0.1409028E+00
          2   -1    0    0  502    0  0.00000000000E+00  0.00000000000E+00  0.18369700165E+03  0.18369700165E+03  0.00000000000E+00 0. -1.
          1   -1    0    0  501    0 -0.00000000000E+00 -0.00000000000E+00 -0.10447034528E+04  0.10447034528E+04  0.00000000000E+00 0. -1.
         25    2    1    2    0    0 -0.47116007781E+02 -0.10854827286E+03  0.49641339697E+02  0.17914159100E+03  0.12499920515E+03 0.  0.
          2    1    1    2  501    0  0.17657955968E+02  0.84790962175E+02 -0.97271547251E+03  0.97656372098E+03  0.00000000000E+00 0. -1.
          1    1    1    2  502    0  0.29458051813E+02  0.23757310684E+02  0.62067681677E+02  0.72695142453E+02  0.00000000000E+00 0. -1.
         22    1    3    3    0    0 -0.14254058022E+02  0.92970666309E+01  0.54105445798E+02  0.56718717219E+02  0.00000000000E+00 0. -1.
         22    1    3    3    0    0 -0.32861949759E+02 -0.11784533949E+03 -0.44641061002E+01  0.12242287378E+03  0.00000000000E+00 0. -1.
</event>
<event>
 7    1  0.6235964E-006  0.6672810E+02  0.7818608E-02  0.1393951E+00
          2   -1    0    0  502    0  0.00000000000E+00  0.00000000000E+00  0.14039812281E+04  0.14039812281E+04  0.00000000000E+00 0. -1.
          1   -1    0    0  501    0 -0.00000000000E+00 -0.00000000000E+00 -0.29625544999E+03  0.29625544999E+03  0.00000000000E+00 0. -1.
         25    2    1    2    0    0  0.58115455645E+01  0.58827862020E+02  0.89148149439E+02  0.16452446107E+03  0.12500565720E+03 0.  0.
          2    1    1    2  501    0 -0.54333957918E+02 -0.12003768845E+02 -0.25467109641E+03  0.26067918367E+03  0.00000000000E+00 0. -1.
          1    1    1    2  502    0  0.48522412354E+02 -0.46824093174E+02  0.12732487251E+04  0.12750330334E+04  0.00000000000E+00 0. -1.
         22    1    3    3    0    0 -0.55900479836E+02  0.48506922916E+01  0.32115195904E+02  0.64651207797E+02  0.00000000000E+00 0.  1.
         22    1    3    3    0    0  0.61712025401E+02  0.53977169728E+02  0.57032953535E+02  0.99873253275E+02  0.00000000000E+00 0.  1.
</event>
<event>
 7    1  0.6235964E-006  0.5910208E+02  0.7818608E-02  0.1465588E+00
          2   -1    0    0  502    0  0.00000000000E+00  0.00000000000E+00  0.36980767255E+03  0.36980767255E+03  0.00000000000E+00 0. -1.
          1   -1    0    0  501    0 -0.00000000000E+00 -0.00000000000E+00 -0.66721012205E+03  0.66721012205E+03  0.00000000000E+00 0. -1.
         25    2    1    2    0    0 -0.15125618148E+02 -0.43562306803E+01  0.27026354017E+03  0.29818542861E+03  0.12499763046E+03 0.  0.
          2    1    1    2  501    0  0.16425573156E+02 -0.56773730583E+02 -0.64079210090E+03  0.64351190549E+03  0.00000000000E+00 0. -1.
          1    1    1    2  502    0 -0.12999550083E+01  0.61129961263E+02  0.73126111218E+02  0.95320460495E+02  0.00000000000E+00 0. -1.
         22    1    3    3    0    0 -0.68881108578E+02 -0.15437565191E+02  0.13862154588E+03  0.15555982296E+03  0.00000000000E+00 0. -1.
         22    1    3    3    0    0  0.53755490430E+02  0.11081334511E+02  0.13164199429E+03  0.14262560565E+03  0.00000000000E+00 0. -1.
</event>
<event>
 7    1  0.6235964E-006  0.2304812E+03  0.7818608E-02  0.1271164E+00
          2   -1    0    0  502    0  0.00000000000E+00  0.00000000000E+00  0.17737384653E+04  0.17737384653E+04  0.00000000000E+00 0. -1.
          1   -1    0    0  501    0 -0.00000000000E+00 -0.00000000000E+00 -0.50949092230E+03  0.50949092230E+03  0.00000000000E+00 0. -1.
         25    2    1    2    0    0  0.16982388369E+03  0.19505340402E+03  0.55212535439E+03  0.62237702965E+03  0.12499911273E+03 0.  0.
          2    1    1    2  501    0 -0.46310537735E+02 -0.98898786803E+01 -0.46270738957E+03  0.46512428873E+03  0.00000000000E+00 0. -1.
          1    1    1    2  502    0 -0.12351334596E+03 -0.18516352534E+03  0.11748295782E+04  0.11957280692E+04  0.00000000000E+00 0. -1.
         22    1    3    3    0    0  0.12460609675E+03  0.20385048785E+03  0.48884097384E+03  0.54410219486E+03  0.00000000000E+00 0. -1.
         22    1    3    3    0    0  0.45217786945E+02 -0.87970838322E+01  0.63284380549E+02  0.78274834792E+02  0.00000000000E+00 0. -1.
</event>
<event>
 7    1  0.6235964E-006  0.3266870E+02  0.7818608E-02  0.1588111E+00
          2   -1    0    0  502    0  0.00000000000E+00  0.00000000000E+00  0.21498013819E+04  0.21498013819E+04  0.00000000000E+00 0. -1.
          1   -1    0    0  501    0 -0.00000000000E+00 -0.00000000000E+00 -0.91950417123E+02  0.91950417123E+02  0.00000000000E+00 0. -1.
         25    2    1    2    0    0 -0.73449376875E+01  0.20605630499E+02  0.12035289311E+04  0.12101987466E+04  0.12498231130E+03 0.  0.
          2    1    1    2  501    0  0.32292396329E+02 -0.52978653545E+01 -0.85358749249E+02  0.91416531937E+02  0.00000000000E+00 0. -1.
          1    1    1    2  502    0 -0.24947458642E+02 -0.15307765144E+02  0.93968078293E+03  0.94013652050E+03  0.00000000000E+00 0. -1.
         22    1    3    3    0    0  0.11382877330E+02  0.37058839717E+02  0.11450840043E+03  0.12089293307E+03  0.00000000000E+00 0. -1.
         22    1    3    3    0    0 -0.18727815018E+02 -0.16453209218E+02  0.10890205307E+04  0.10893058135E+04  0.00000000000E+00 0. -1.
</event>
<event>
 7    1  0.6235964E-006  0.1232138E+03  0.7818608E-02  0.1409514E+00
          2   -1    0    0  502    0  0.00000000000E+00  0.00000000000E+00  0.29500704723E+04  0.29500704723E+04  0.00000000000E+00 0. -1.
          1   -1    0    0  501    0 -0.00000000000E+00 -0.00000000000E+00 -0.18739570417E+04  0.18739570417E+04  0.00000000000E+00 0. -1.
         25    2    1    2    0    0  0.12648821705E+03 -0.86115772499E+01  0.79397731736E+03  0.81369472318E+03  0.12500277488E+03 0.  0.
          2    1    1    2  501    0 -0.82619387844E+01 -0.25336308647E+02 -0.18622405461E+04  0.18624312174E+04  0.00000000000E+00 0. -1.
          1    1    1    2  502    0 -0.11822627827E+03  0.33947885897E+02  0.21443766593E+04  0.21479015734E+04  0.00000000000E+00 0. -1.
         22    1    3    3    0    0 -0.12793300211E+02  0.19337193214E+02  0.38227257384E+02  0.44709269495E+02  0.00000000000E+00 0.  1.
         22    1    3    3    0    0  0.13928151726E+03 -0.27948770464E+02  0.75575005998E+03  0.76898545369E+03  0.00000000000E+00 0.  1.
</event>
<event>
 7    1  0.6235964E-006  0.6218848E+02  0.7818608E-02  0.1413668E+00
          2   -1    0    0  502    0  0.00000000000E+00  0.00000000000E+00  0.64489085354E+03  0.64489085354E+03  0.00000000000E+00 0. -1.
          1   -1    0    0  501    0 -0.00000000000E+00 -0.00000000000E+00 -0.52793145579E+03  0.52793145579E+03  0.00000000000E+00 0. -1.
         25    2    1    2    0    0  0.30786341209E+02 -0.76295775994E+01  0.48559145219E+03  0.50242430808E+03  0.12500047060E+03 0.  0.
          2    1    1    2  501    0  0.23522106957E+02 -0.57568373449E+02 -0.50552699069E+03  0.50933775185E+03  0.00000000000E+00 0. -1.
          1    1    1    2  502    0 -0.54308448167E+02  0.65197951049E+02  0.13689493626E+03  0.16106024940E+03  0.00000000000E+00 0. -1.
         22    1    3    3    0    0  0.51824443626E+02 -0.53278298795E+02  0.22284220351E+03  0.23491061650E+03  0.00000000000E+00 0. -1.
         22    1    3    3    0    0 -0.21038102417E+02  0.45648721196E+02  0.26274924868E+03  0.26751369158E+03  0.00000000000E+00 0. -1.
</event>
<event>
 7    1  0.6235964E-006  0.2152608E+03  0.7818608E-02  0.1250013E+00
          2   -1    0    0  502    0  0.00000000000E+00  0.00000000000E+00  0.88894833938E+02  0.88894833938E+02  0.00000000000E+00 0. -1.
          1   -1    0    0  501    0 -0.00000000000E+00 -0.00000000000E+00 -0.90911306775E+03  0.90911306775E+03  0.00000000000E+00 0. -1.
         25    2    1    2    0    0  0.93452746374E+02 -0.19641174514E+03 -0.23388161976E+03  0.34298375648E+03  0.12500502275E+03 0.  0.
          2    1    1    2  501    0  0.51852570906E+02  0.34724075678E+02 -0.22351230213E+03  0.23206076735E+03  0.00000000000E+00 0. -1.
          1    1    1    2  502    0 -0.14530531728E+03  0.16168766946E+03 -0.36282431193E+03  0.42296337786E+03  0.00000000000E+00 0. -1.
         22    1    3    3    0    0  0.11934000178E+03 -0.16269606558E+03 -0.15905124997E+03  0.25692284036E+03  0.00000000000E+00 0. -1.
         22    1    3    3    0    0 -0.25887255408E+02 -0.33715679562E+02 -0.74830369787E+02  0.86060916120E+02  0.00000000000E+00 0. -1.
</event>
<event>
 7    1  0.6235964E-006  0.6344414E+02  0.7818608E-02  0.1414751E+00
          2   -1    0    0  502    0  0.00000000000E+00  0.00000000000E+00  0.24754055510E+03  0.24754055510E+03  0.00000000000E+00 0. -1.
          1   -1    0    0  501    0 -0.00000000000E+00 -0.00000000000E+00 -0.10843707079E+04  0.10843707079E+04  0.00000000000E+00 0. -1.
         25    2    1    2    0    0  0.28111754901E+02  0.85238609336E+02  0.62096245976E+01  0.15402452327E+03  0.12501641110E+03 0.  0.
          2    1    1    2  501    0 -0.43106117696E+02 -0.24716049180E+02 -0.10040221140E+04  0.10052509268E+04  0.00000000000E+00 0. -1.
          1    1    1    2  502    0  0.14994362794E+02 -0.60522560156E+02  0.16098233660E+03  0.17263581291E+03  0.00000000000E+00 0. -1.
         22    1    3    3    0    0 -0.64562179838E+01  0.75117576249E+02 -0.47679805972E+02  0.89205924185E+02  0.00000000000E+00 0.  1.
         22    1    3    3    0    0  0.34567972885E+02  0.10121033087E+02  0.53889430569E+02  0.64818599084E+02  0.00000000000E+00 0.  1.
</event>
<event>
 7    1  0.6235964E-006  0.8093383E+02  0.7818608E-02  0.1368225E+00
          2   -1    0    0  502    0  0.00000000000E+00  0.00000000000E+00  0.32546835916E+03  0.32546835916E+03  0.00000000000E+00 0. -1.
          1   -1    0    0  501    0 -0.00000000000E+00 -0.00000000000E+00 -0.15660135966E+04  0.15660135966E+04  0.00000000000E+00 0. -1.
         25    2    1    2    0    0  0.70476526685E+02  0.50427108511E+02 -0.10494735088E+03  0.18479013134E+03  0.12499444827E+03 0.  0.
          2    1    1    2  501    0  0.10821465526E+02 -0.55523741515E+02 -0.14147587695E+04  0.14158892492E+04  0.00000000000E+00 0. -1.
          1    1    1    2  502    0 -0.81297992211E+02  0.50966330040E+01  0.27916088295E+03  0.29080257526E+03  0.00000000000E+00 0. -1.
         22    1    3    3    0    0  0.58388293566E+02 -0.32099594407E+01 -0.11489047356E+03  0.12891593222E+03  0.00000000000E+00 0. -1.
         22    1    3    3    0    0  0.12088233119E+02  0.53637067952E+02  0.99431226875E+01  0.55874199119E+02  0.00000000000E+00 0. -1.
</event>
<event>
 7    1  0.6235964E-006  0.7573457E+02  0.7818608E-02  0.1394395E+00
          2   -1    0    0  502    0  0.00000000000E+00  0.00000000000E+00  0.18158359743E+04  0.18158359743E+04  0.00000000000E+00 0. -1.
          1   -1    0    0  501    0 -0.00000000000E+00 -0.00000000000E+00 -0.20248322100E+03  0.20248322100E+03  0.00000000000E+00 0. -1.
         25    2    1    2    0    0 -0.53288137045E+02 -0.37799306695E+02  0.22331334284E+03  0.26412386362E+03  0.12499661239E+03 0.  0.
          2    1    1    2  501    0 -0.23412005502E+02  0.42877890860E+02 -0.17784240255E+03  0.18443035453E+03  0.00000000000E+00 0. -1.
          1    1    1    2  502    0  0.76700142548E+02 -0.50785841656E+01  0.15678818130E+04  0.15697649771E+04  0.00000000000E+00 0. -1.
         22    1    3    3    0    0 -0.73147706172E+02  0.15989506905E+02  0.79039237543E+02  0.10887356117E+03  0.00000000000E+00 0. -1.
         22    1    3    3    0    0  0.19859569127E+02 -0.53788813600E+02  0.14427410530E+03  0.15525030246E+03  0.00000000000E+00 0. -1.
</event>
<event>
 7    1  0.6235964E-006  0.5337248E+02  0.7818608E-02  0.1459947E+00
          2   -1    0    0  502    0  0.00000000000E+00  0.00000000000E+00  0.25090778041E+03  0.25090778041E+03  0.00000000000E+00 0. -1.
          1   -1    0    0  501    0 -0.00000000000E+00 -0.00000000000E+00 -0.53380815822E+03  0.53380815822E+03  0.00000000000E+00 0. -1.
         25    2    1    2    0    0  0.43922327610E+02 -0.32994834870E+02  0.19534860077E+03  0.23833656311E+03  0.12500164599E+03 0.  0.
          2    1    1    2  501    0  0.15990117224E+02  0.38922386615E+02 -0.48406835400E+03  0.48589382315E+03  0.00000000000E+00 0. -1.
          1    1    1    2  502    0 -0.59912444834E+02 -0.59275517454E+01  0.58193754297E+01  0.60485552375E+02  0.00000000000E+00 0. -1.
         22    1    3    3    0    0  0.39206092503E+02 -0.79842452061E+02  0.11774737480E+03  0.14756821850E+03  0.00000000000E+00 0.  1.
         22    1    3    3    0    0  0.47162351066E+01  0.46847617191E+02  0.77601225970E+02  0.90768344604E+02  0.00000000000E+00 0.  1.
</event>
<event>
 7    1  0.6235964E-006  0.2328741E+03  0.7818608E-02  0.1353820E+00
          2   -1    0    0  502    0  0.00000000000E+00  0.00000000000E+00  0.57331989615E+03  0.57331989615E+03  0.00000000000E+00 0. -1.
          1   -1    0    0  501    0 -0.00000000000E+00 -0.00000000000E+00 -0.61666107328E+03  0.61666107328E+03  0.00000000000E+00 0. -1.
         25    2    1    2    0    0 -0.65754957101E+00  0.25218588922E+03  0.19712102094E+03  0.34362815164E+03  0.12500181840E+03 0.  0.
          2    1    1    2  501    0 -0.60742898114E+01 -0.23104609632E+03 -0.51836939076E+03  0.56756146883E+03  0.00000000000E+00 0. -1.
          1    1    1    2  502    0  0.67318393825E+01 -0.21139792904E+02  0.27790719269E+03  0.27879134896E+03  0.00000000000E+00 0. -1.
         22    1    3    3    0    0 -0.46081741612E+02  0.73300190348E+02  0.10872794765E+03  0.13898996876E+03  0.00000000000E+00 0.  1.
         22    1    3    3    0    0  0.45424192041E+02  0.17888569888E+03  0.88393073289E+02  0.20463818288E+03  0.00000000000E+00 0.  1.
</event>
<event>
 7    1  0.6235964E-006  0.7219843E+02  0.7818608E-02  0.1406270E+00
          2   -1    0    0  502    0  0.00000000000E+00  0.00000000000E+00  0.19803257812E+04  0.19803257812E+04  0.00000000000E+00 0. -1.
          1   -1    0    0  501    0 -0.00000000000E+00 -0.00000000000E+00 -0.31046142811E+03  0.31046142811E+03  0.00000000000E+00 0. -1.
         25    2    1    2    0    0  0.52702367795E+00 -0.99555893940E+02  0.72759949347E+03  0.74494238892E+03  0.12500594440E+03 0.  0.
          2    1    1    2  501    0  0.30940856394E+02  0.65118558655E+02 -0.29703909924E+03  0.30566319660E+03  0.00000000000E+00 0. -1.
          1    1    1    2  502    0 -0.31467880072E+02  0.34437335285E+02  0.12393039589E+04  0.12401816238E+04  0.00000000000E+00 0. -1.
         22    1    3    3    0    0  0.59875910839E+00 -0.12967234269E+03  0.59458132838E+03  0.60855750018E+03  0.00000000000E+00 0. -1.
         22    1    3    3    0    0 -0.71735430438E-01  0.30116448748E+02  0.13301816509E+03  0.13638488874E+03  0.00000000000E+00 0. -1.
</event>
<event>
 7    1  0.6235964E-006  0.9383348E+02  0.7818608E-02  0.1452015E+00
          2   -1    0    0  502    0  0.00000000000E+00  0.00000000000E+00  0.10688022594E+04  0.10688022594E+04  0.00000000000E+00 0. -1.
          1   -1    0    0  501    0 -0.00000000000E+00 -0.00000000000E+00 -0.28865598677E+03  0.28865598677E+03  0.00000000000E+00 0. -1.
         25    2    1    2    0    0 -0.71166521960E+02 -0.45185468363E+02 -0.40840142278E+02  0.15619971067E+03  0.12499612791E+03 0.  0.
          2    1    1    2  501    0  0.91510202177E+02  0.30040006964E+02 -0.17776752526E+03  0.20218262081E+03  0.00000000000E+00 0. -1.
          1    1    1    2  502    0 -0.20343680218E+02  0.15145461398E+02  0.99875394019E+03  0.99907591472E+03  0.00000000000E+00 0. -1.
         22    1    3    3    0    0 -0.90016974730E+02  0.68399008238E+01 -0.52948951226E+01  0.90431608949E+02  0.00000000000E+00 0.  1.
         22    1    3    3    0    0  0.18850452770E+02 -0.52025369187E+02 -0.35545247156E+02  0.65768101721E+02  0.00000000000E+00 0.  1.
</event>
<event>
 7    1  0.6235964E-006  0.7179899E+02  0.7818608E-02  0.1403548E+00
          2   -1    0    0  502    0  0.00000000000E+00  0.00000000000E+00  0.22169213378E+04  0.22169213378E+04  0.00000000000E+00 0. -1.
          1   -1    0    0  501    0 -0.00000000000E+00 -0.00000000000E+00 -0.11601647635E+04  0.11601647635E+04  0.00000000000E+00 0. -1.
         25    2    1    2    0    0 -0.86548082280E+02 -0.33222488058E+02  0.81787339956E+02  0.17580541277E+03  0.12499627963E+03 0.  0.
          2    1    1    2  501    0  0.15867109751E+02  0.45220255795E+02 -0.11120241412E+04  0.11130563002E+04  0.00000000000E+00 0. -1.
          1    1    1    2  502    0  0.70680972529E+02 -0.11997767737E+02  0.20869933756E+04  0.20882243883E+04  0.00000000000E+00 0. -1.
         22    1    3    3    0    0 -0.20970071601E+02 -0.26775050876E+02 -0.30453449896E+02  0.45651504498E+02  0.00000000000E+00 0.  1.
         22    1    3    3    0    0 -0.65578010679E+02 -0.64474371816E+01  0.11224078985E+03  0.13015390827E+03  0.00000000000E+00 0.  1.
</event>
<event>
 7    1  0.6235964E-006  0.1456197E+03  0.7818608E-02  0.1293195E+00
          2   -1    0    0  502    0  0.00000000000E+00  0.00000000000E+00  0.16833616212E+04  0.16833616212E+04  0.00000000000E+00 0. -1.
          1   -1    0    0  501    0 -0.00000000000E+00 -0.00000000000E+00 -0.35480313438E+02  0.35480313438E+02  0.00000000000E+00 0. -1.
         25    2    1    2    0    0  0.99357532309E+02 -0.38763130253E+01  0.12191152095E+04  0.12295338233E+04  0.12499833459E+03 0.  0.
          2    1    1    2  501    0 -0.14986005805E+03  0.37765975641E+02  0.20090692871E+03  0.25347169452E+03  0.00000000000E+00 0. -1.
          1    1    1    2  502    0  0.50502525743E+02 -0.33889662615E+02  0.22785916961E+03  0.23583641685E+03  0.00000000000E+00 0. -1.
         22    1    3    3    0    0  0.78852420327E+02 -0.82781384864E+01  0.11947827316E+04  0.11974105426E+04  0.00000000000E+00 0. -1.
         22    1    3    3    0    0  0.20505111983E+02  0.44018254611E+01  0.24332477886E+02  0.32123280730E+02  0.00000000000E+00 0. -1.
</event>
<event>
 7    1  0.6235964E-006  0.7698266E+02  0.7818608E-02  0.1427198E+00
          2   -1    0    0  502    0  0.00000000000E+00  0.00000000000E+00  0.27628362125E+03  0.27628362125E+03  0.00000000000E+00 0. -1.
          1   -1    0    0  501    0 -0.00000000000E+00 -0.00000000000E+00 -0.72975455085E+03  0.72975455085E+03  0.00000000000E+00 0. -1.
         25    2    1    2    0    0  0.25301505689E+02 -0.31818615895E+02 -0.43307463585E+03  0.45258267500E+03  0.12499938797E+03 0.  0.
          2    1    1    2  501    0  0.16643391315E+02 -0.33288713356E+02 -0.28004231793E+03  0.28250458535E+03  0.00000000000E+00 0. -1.
          1    1    1    2  502    0 -0.41944897004E+02  0.65107329251E+02  0.25964602418E+03  0.27095091175E+03  0.00000000000E+00 0. -1.
         22    1    3    3    0    0 -0.25200059444E+02  0.35225232692E+02 -0.97804380735E+02  0.10696521353E+03  0.00000000000E+00 0. -1.
         22    1    3    3    0    0  0.50501565133E+02 -0.67043848586E+02 -0.33527025511E+03  0.34561746148E+03  0.00000000000E+00 0. -1.
</event>
<event>
 7    1  0.6235964E-006  0.4258169E+02  0.7818608E-02  0.1551773E+00
          2   -1    0    0  502    0  0.00000000000E+00  0.00000000000E+00  0.13771621985E+04  0.13771621985E+04  0.00000000000E+00 0. -1.
          1   -1    0    0  501    0 -0.00000000000E+00 -0.00000000000E+00 -0.34656274631E+02  0.34656274631E+02  0.00000000000E+00 0. -1.
         25    2    1    2    0    0  0.97362872972E+00  0.29136216910E+02  0.80499252424E+03  0.81516096558E+03  0.12499827452E+03 0.  0.
          2    1    1    2  501    0 -0.26713633034E+02  0.89972057379E+01 -0.21688453670E+02  0.35566232912E+02  0.00000000000E+00 0. -1.
          1    1    1    2  502    0  0.25740004305E+02 -0.38133422648E+02  0.55920185327E+03  0.56109127461E+03  0.00000000000E+00 0. -1.
         22    1    3    3    0    0 -0.11108722000E+02  0.69510094539E+02  0.67137196349E+03  0.67505212414E+03  0.00000000000E+00 0. -1.
         22    1    3    3    0    0  0.12082350730E+02 -0.40373877629E+02  0.13362056076E+03  0.14010884144E+03  0.00000000000E+00 0. -1.
</event>
<event>
 7    1  0.6235964E-006  0.2539972E+03  0.7818608E-02  0.1254965E+00
          2   -1    0    0  502    0  0.00000000000E+00  0.00000000000E+00  0.66708867143E+03  0.66708867143E+03  0.00000000000E+00 0. -1.
          1   -1    0    0  501    0 -0.00000000000E+00 -0.00000000000E+00 -0.16291253111E+04  0.16291253111E+04  0.00000000000E+00 0. -1.
         25    2    1    2    0    0  0.22738850621E+03  0.61565318454E+02 -0.10948072204E+04  0.11268200594E+04  0.12499910027E+03 0.  0.
          2    1    1    2  501    0  0.11974035983E+01  0.50331942561E+02 -0.49210707290E+03  0.49467576190E+03  0.00000000000E+00 0. -1.
          1    1    1    2  502    0 -0.22858590981E+03 -0.11189726102E+03  0.62487765363E+03  0.67471816130E+03  0.00000000000E+00 0. -1.
         22    1    3    3    0    0  0.53273642777E+02  0.74671144851E+02 -0.40492895245E+03  0.41518829152E+03  0.00000000000E+00 0. -1.
         22    1    3    3    0    0  0.17411486343E+03 -0.13105826397E+02 -0.68987826800E+03  0.71163176785E+03  0.00000000000E+00 0. -1.
</event>
<event>
 7    1  0.1134758E-005  0.9761316E+02  0.7818608E-02  0.1369387E+00
          2   -1    0    0  502    0  0.00000000000E+00  0.00000000000E+00  0.30906908681E+04  0.30906908681E+04  0.00000000000E+00 0. -1.
          1   -1    0    0  501    0 -0.00000000000E+00 -0.00000000000E+00 -0.64821609885E+03  0.64821609885E+03  0.00000000000E+00 0. -1.
         25    2    1    2    0    0  0.32996887333E+02 -0.13530878843E+03 -0.23630414582E+03  0.30143305680E+03  0.12499990242E+03 0.  0.
          2    1    1    2  501    0  0.62017813518E+01  0.46036855236E+02 -0.37714502104E+03  0.37999502764E+03  0.00000000000E+00 0. -1.
          1    1    1    2  502    0 -0.39198668685E+02  0.89271933191E+02  0.30559239361E+04  0.30574788825E+04  0.00000000000E+00 0. -1.
         22    1    3    3    0    0  0.69776679625E+02 -0.87666291372E+02 -0.20492640696E+03  0.23355726478E+03  0.00000000000E+00 0. -1.
         22    1    3    3    0    0 -0.36779792292E+02 -0.47642497055E+02 -0.31377738854E+02  0.67875792020E+02  0.00000000000E+00 0. -1.
</event>
<event>
 7    1  0.6235964E-006  0.6729616E+02  0.7818608E-02  0.1410555E+00
          2   -1    0    0  502    0  0.00000000000E+00  0.00000000000E+00  0.86763592109E+03  0.86763592109E+03  0.00000000000E+00 0. -1.
          1   -1    0    0  501    0 -0.00000000000E+00 -0.00000000000E+00 -0.39790043476E+03  0.39790043476E+03  0.00000000000E+00 0. -1.
         25    2    1    2    0    0 -0.54457444160E+02 -0.42735448478E+02  0.13571729901E+03  0.19706981433E+03  0.12500157875E+03 0.  0.
          2    1    1    2  501    0  0.67467334491E+02 -0.38814105860E+01 -0.36326917362E+03  0.36950155490E+03  0.00000000000E+00 0. -1.
          1    1    1    2  502    0 -0.13009890331E+02  0.46616859064E+02  0.69728736093E+03  0.69896498661E+03  0.00000000000E+00 0. -1.
         22    1    3    3    0    0  0.34698222603E+02  0.12525614962E+02  0.46577805621E+02  0.59416745607E+02  0.00000000000E+00 0.  1.
         22    1    3    3    0    0 -0.89155666763E+02 -0.55261063441E+02  0.89139493390E+02  0.13765306873E+03  0.00000000000E+00 0.  1.
</event>
<event>
 7    1  0.6235964E-006  0.4484928E+02  0.7818608E-02  0.1544457E+00
          2   -1    0    0  502    0  0.00000000000E+00  0.00000000000E+00  0.41243688605E+02  0.41243688605E+02  0.00000000000E+00 0. -1.
          1   -1    0    0  501    0 -0.00000000000E+00 -0.00000000000E+00 -0.99188281852E+03  0.99188281852E+03  0.00000000000E+00 0. -1.
         25    2    1    2    0    0  0.26837745834E+02  0.34862869463E+02 -0.11895900243E+03  0.17807782850E+03  0.12499913790E+03 0.  0.
          2    1    1    2  501    0 -0.43363437480E+02 -0.12193085011E+02 -0.82497607519E+03  0.82620492837E+03  0.00000000000E+00 0. -1.
          1    1    1    2  502    0  0.16525691646E+02 -0.22669784452E+02 -0.67040522968E+01  0.28843750253E+02  0.00000000000E+00 0. -1.
         22    1    3    3    0    0  0.76920232965E+02  0.23876422753E+02 -0.81472325512E+02  0.11456240931E+03  0.00000000000E+00 0. -1.
         22    1    3    3    0    0 -0.50082487131E+02  0.10986446710E+02 -0.37486676918E+02  0.63515419190E+02  0.00000000000E+00 0. -1.
</event>
<event>
 7    1  0.6235964E-006  0.6735177E+02  0.7818608E-02  0.1486363E+00
          2   -1    0    0  502    0  0.00000000000E+00  0.00000000000E+00  0.27883080862E+04  0.27883080862E+04  0.00000000000E+00 0. -1.
          1   -1    0    0  501    0 -0.00000000000E+00 -0.00000000000E+00 -0.17298022093E+02  0.17298022093E+02  0.00000000000E+00 0. -1.
         25    2    1    2    0    0  0.60032701591E+01  0.86268501324E+02  0.11300073260E+04  0.11401839907E+04  0.12499872882E+03 0.  0.
          2    1    1    2  501    0 -0.20497818664E+02 -0.62758047431E+02  0.78060572099E+02  0.10223593304E+03  0.00000000000E+00 0. -1.
          1    1    1    2  502    0  0.14494548505E+02 -0.23510453892E+02  0.15629421660E+04  0.15631861845E+04  0.00000000000E+00 0. -1.
         22    1    3    3    0    0  0.24425836488E+01  0.25461928346E+02  0.94622797899E+03  0.94657364438E+03  0.00000000000E+00 0.  1.
         22    1    3    3    0    0  0.35606865103E+01  0.60806572977E+02  0.18377934701E+03  0.19361034630E+03  0.00000000000E+00 0.  1.
</event>
<event>
 7    1  0.6235964E-006  0.4741902E+02  0.7818608E-02  0.1490591E+00
          2   -1    0    0  502    0  0.00000000000E+00  0.00000000000E+00  0.79277165850E+03  0.79277165850E+03  0.00000000000E+00 0. -1.
          1   -1    0    0  501    0 -0.00000000000E+00 -0.00000000000E+00 -0.15056265073E+03  0.15056265073E+03  0.00000000000E+00 0. -1.
         25    2    1    2    0    0 -0.58035262358E+02 -0.98657403115E+01  0.73764294380E+02  0.15662501682E+03  0.12499920104E+03 0.  0.
          2    1    1    2  501    0  0.17166984124E+02  0.34000462363E+02 -0.10494802323E+03  0.11164597783E+03  0.00000000000E+00 0. -1.
          1    1    1    2  502    0  0.40868278234E+02 -0.24134722051E+02  0.67339273662E+03  0.67506331459E+03  0.00000000000E+00 0. -1.
         22    1    3    3    0    0 -0.67060392500E+02 -0.43833788482E+02  0.87728771739E+02  0.11880586958E+03  0.00000000000E+00 0.  1.
         22    1    3    3    0    0  0.90251301413E+01  0.33968048170E+02 -0.13964477359E+02  0.37819147247E+02  0.00000000000E+00 0.  1.
</event>
<event>
 7    1  0.6235964E-006  0.6344452E+02  0.7818608E-02  0.1441491E+00
          2   -1    0    0  502    0  0.00000000000E+00  0.00000000000E+00  0.17207391060E+02  0.17207391060E+02  0.00000000000E+00 0. -1.
          1   -1    0    0  501    0 -0.00000000000E+00 -0.00000000000E+00 -0.19557817111E+04  0.19557817111E+04  0.00000000000E+00 0. -1.
         25    2    1    2    0    0 -0.30153790121E+02  0.14811639824E+02 -0.50103814753E+03  0.51748708368E+03  0.12500008304E+03 0.  0.
          2    1    1    2  501    0 -0.40512055267E+02  0.17351135603E+01 -0.12942333558E+04  0.12948684167E+04  0.00000000000E+00 0. -1.
          1    1    1    2  502    0  0.70665845388E+02 -0.16546753385E+02 -0.14330281671E+03  0.16063360181E+03  0.00000000000E+00 0. -1.
         22    1    3    3    0    0 -0.24869376474E+02 -0.15247877773E+02 -0.47888869506E+03  0.47977637073E+03  0.00000000000E+00 0. -1.
         22    1    3    3    0    0 -0.52844136473E+01  0.30059517597E+02 -0.22149452472E+02  0.37710712942E+02  0.00000000000E+00 0. -1.
</event>
<event>
 7    1  0.6235964E-006  0.4298520E+02  0.7818608E-02  0.1492750E+00
          2   -1    0    0  502    0  0.00000000000E+00  0.00000000000E+00  0.84205632747E+02  0.84205632747E+02  0.00000000000E+00 0. -1.
          1   -1    0    0  501    0 -0.00000000000E+00 -0.00000000000E+00 -0.81580341872E+03  0.81580341872E+03  0.00000000000E+00 0. -1.
         25    2    1    2    0    0  0.53145544294E+02  0.64815366955E+02 -0.51171601546E+03  0.53338931838E+03  0.12500161524E+03 0.  0.
          2    1    1    2  501    0 -0.27534283294E+02 -0.30905148369E+02 -0.28547714705E+03  0.28846224439E+03  0.00000000000E+00 0. -1.
          1    1    1    2  502    0 -0.25611261001E+02 -0.33910218587E+02  0.65595376541E+02  0.78157488689E+02  0.00000000000E+00 0. -1.
         22    1    3    3    0    0 -0.40809187549E+02  0.20414365707E+02 -0.18503255417E+03  0.19057592245E+03  0.00000000000E+00 0. -1.
         22    1    3    3    0    0  0.93954731843E+02  0.44401001249E+02 -0.32668346129E+03  0.34281339593E+03  0.00000000000E+00 0. -1.
</event>
<event>
 7    1  0.6235964E-006  0.6451882E+02  0.7818608E-02  0.1510414E+00
          2   -1    0    0  502    0  0.00000000000E+00  0.00000000000E+00  0.28615291304E+02  0.28615291304E+02  0.00000000000E+00 0. -1.
          1   -1    0    0  501    0 -0.00000000000E+00 -0.00000000000E+00 -0.17560241769E+04  0.17560241769E+04  0.00000000000E+00 0. -1.
         25    2    1    2    0    0 -0.85406594887E+01  0.61941229638E+02 -0.11337947659E+04  0.11423771210E+04  0.12500102580E+03 0.  0.
          2    1    1    2  501    0  0.24416428564E+02  0.84679903451E+00 -0.57410377896E+03  0.57462337933E+03  0.00000000000E+00 0. -1.
          1    1    1    2  502    0 -0.15875769075E+02 -0.62788028673E+02 -0.19510340725E+02  0.67638967937E+02  0.00000000000E+00 0. -1.
         22    1    3    3    0    0  0.23216734527E+02  0.90693506700E+02 -0.88310301777E+03  0.88805138867E+03  0.00000000000E+00 0. -1.
         22    1    3    3    0    0 -0.31757394016E+02 -0.28752277062E+02 -0.25069174817E+03  0.25432573231E+03  0.00000000000E+00 0. -1.
</event>
<event>
 7    1  0.6235964E-006  0.2318253E+03  0.7818608E-02  0.1212897E+00
          2   -1    0    0  502    0  0.00000000000E+00  0.00000000000E+00  0.14836543156E+04  0.14836543156E+04  0.00000000000E+00 0. -1.
          1   -1    0    0  501    0 -0.00000000000E+00 -0.00000000000E+00 -0.73702231579E+03  0.73702231579E+03  0.00000000000E+00 0. -1.
         25    2    1    2    0    0  0.14173166265E+03  0.19796868112E+03  0.70477821762E+03  0.75605159264E+03  0.12498884671E+03 0.  0.
          2    1    1    2  501    0 -0.81488546038E+02  0.23950585749E+02 -0.69117530335E+03  0.69637440623E+03  0.00000000000E+00 0. -1.
          1    1    1    2  502    0 -0.60243116611E+02 -0.22191926687E+03  0.73302908555E+03  0.76825063252E+03  0.00000000000E+00 0. -1.
         22    1    3    3    0    0  0.10555555499E+03  0.11976799235E+03  0.27725631450E+03  0.31993344794E+03  0.00000000000E+00 0. -1.
         22    1    3    3    0    0  0.36176107660E+02  0.78200688770E+02  0.42752190311E+03  0.43611814469E+03  0.00000000000E+00 0. -1.
</event>
<event>
 7    1  0.6235964E-006  0.2472957E+03  0.7818608E-02  0.1219364E+00
          2   -1    0    0  502    0  0.00000000000E+00  0.00000000000E+00  0.13047567805E+04  0.13047567805E+04  0.00000000000E+00 0. -1.
          1   -1    0    0  501    0 -0.00000000000E+00 -0.00000000000E+00 -0.14059496595E+03  0.14059496595E+03  0.00000000000E+00 0. -1.
         25    2    1    2    0    0 -0.19483506578E+03  0.84788540286E+02  0.36835263600E+03  0.44323638574E+03  0.12500011910E+03 0.  0.
          2    1    1    2  501    0  0.25939017500E+03 -0.47877587659E+02  0.70536106601E+02  0.27304004949E+03  0.00000000000E+00 0. -1.
          1    1    1    2  502    0 -0.64555109221E+02 -0.36910952627E+02  0.72527307199E+03  0.72907531127E+03  0.00000000000E+00 0. -1.
         22    1    3    3    0    0 -0.97810654047E+02 -0.19473134476E+02  0.11192008757E+03  0.14990741480E+03  0.00000000000E+00 0. -1.
         22    1    3    3    0    0 -0.97024411737E+02  0.10426167476E+03  0.25643254843E+03  0.29332897094E+03  0.00000000000E+00 0. -1.
</event>
<event>
 7    1  0.6235964E-006  0.1841804E+03  0.7818608E-02  0.1237778E+00
          2   -1    0    0  502    0  0.00000000000E+00  0.00000000000E+00  0.26212852860E+04  0.26212852860E+04  0.00000000000E+00 0. -1.
          1   -1    0    0  501    0 -0.00000000000E+00 -0.00000000000E+00 -0.16824184950E+03  0.16824184950E+03  0.00000000000E+00 0. -1.
         25    2    1    2    0    0  0.60607347527E+02 -0.17971787826E+03  0.11649276204E+03  0.25528509229E+03  0.12501259295E+03 0.  0.
          2    1    1    2  501    0  0.21655794243E+02  0.18622604321E+03 -0.85635118815E+01  0.18767644053E+03  0.00000000000E+00 0. -1.
          1    1    1    2  502    0 -0.82263141770E+02 -0.65081649451E+01  0.23451141863E+04  0.23465656027E+04  0.00000000000E+00 0. -1.
         22    1    3    3    0    0  0.56100907601E+02 -0.11029510622E+03  0.13516532878E+03  0.18325389052E+03  0.00000000000E+00 0. -1.
         22    1    3    3    0    0  0.45064399263E+01 -0.69422772046E+02 -0.18672566737E+02  0.72031201766E+02  0.00000000000E+00 0. -1.
</event>
<event>
 7    1  0.6235964E-006  0.1153474E+03  0.7818608E-02  0.1340202E+00
          2   -1    0    0  502    0  0.00000000000E+00  0.00000000000E+00  0.41877945352E+03  0.41877945352E+03  0.00000000000E+00 0. -1.
          1   -1    0    0  501    0 -0.00000000000E+00 -0.00000000000E+00 -0.10191443443E+04  0.10191443443E+04  0.00000000000E+00 0. -1.
         25    2    1    2    0    0  0.42752631389E+02  0.90208087788E+02 -0.18540749133E+03  0.24488015867E+03  0.12500027070E+03 0.  0.
          2    1    1    2  501    0 -0.43010346297E+02  0.26148899997E+02 -0.79448600553E+03  0.79607893317E+03  0.00000000000E+00 0. -1.
          1    1    1    2  502    0  0.25771490868E+00 -0.11635698779E+03  0.37952860604E+03  0.39696470602E+03  0.00000000000E+00 0. -1.
         22    1    3    3    0    0  0.19270515580E+02  0.12019917735E+03 -0.13668326392E+03  0.18303417616E+03  0.00000000000E+00 0.  1.
         22    1    3    3    0    0  0.23482115809E+02 -0.29991089562E+02 -0.48724227410E+02  0.61845982510E+02  0.00000000000E+00 0.  1.
</event>
<event>
 7    1  0.6235964E-006  0.2714536E+02  0.7818608E-02  0.1634353E+00
          2   -1    0    0  502    0  0.00000000000E+00  0.00000000000E+00  0.30689060939E+03  0.30689060939E+03  0.00000000000E+00 0. -1.
          1   -1    0    0  501    0 -0.00000000000E+00 -0.00000000000E+00 -0.56200221519E+03  0.56200221519E+03  0.00000000000E+00 0. -1.
         25    2    1    2    0    0 -0.76344226239E+00 -0.20846337771E+01  0.89605458715E+02  0.15381245133E+03  0.12499681361E+03 0.  0.
          2    1    1    2  501    0  0.16622296529E+02 -0.20990517725E+02 -0.52849949990E+03  0.52917730863E+03  0.00000000000E+00 0. -1.
          1    1    1    2  502    0 -0.15858854266E+02  0.23075151502E+02  0.18378243539E+03  0.18590306461E+03  0.00000000000E+00 0. -1.
         22    1    3    3    0    0  0.12247684901E+02 -0.27785308524E+02  0.11280823981E+03  0.11682349132E+03  0.00000000000E+00 0. -1.
         22    1    3    3    0    0 -0.13011127163E+02  0.25700674747E+02 -0.23202781094E+02  0.36988960015E+02  0.00000000000E+00 0. -1.
</event>
<event>
 7    1  0.6235964E-006  0.5540704E+02  0.7818608E-02  0.1426810E+00
          2   -1    0    0  502    0  0.00000000000E+00  0.00000000000E+00  0.22956945070E+04  0.22956945070E+04  0.00000000000E+00 0. -1.
          1   -1    0    0  501    0 -0.00000000000E+00 -0.00000000000E+00 -0.36820817257E+03  0.36820817257E+03  0.00000000000E+00 0. -1.
         25    2    1    2    0    0  0.77107073440E+02 -0.62487131525E+02  0.40231491073E+03  0.43281913991E+03  0.12499991237E+03 0.  0.
          2    1    1    2  501    0 -0.49459534611E+02  0.15604952377E+02 -0.35065403878E+03  0.35446863756E+03  0.00000000000E+00 0. -1.
          1    1    1    2  502    0 -0.27647538829E+02  0.46882179148E+02  0.18758254625E+04  0.18766149021E+04  0.00000000000E+00 0. -1.
         22    1    3    3    0    0  0.10015320725E+03 -0.68042622371E+02  0.24031968800E+03  0.26909852438E+03  0.00000000000E+00 0. -1.
         22    1    3    3    0    0 -0.23046133805E+02  0.55554908466E+01  0.16199522273E+03  0.16372061553E+03  0.00000000000E+00 0. -1.
</event>
<event>
 7    1  0.6235964E-006  0.1753829E+03  0.7818608E-02  0.1320786E+00
          2   -1    0    0  502    0  0.00000000000E+00  0.00000000000E+00  0.10463409816E+04  0.10463409816E+04  0.00000000000E+00 0. -1.
          1   -1    0    0  501    0 -0.00000000000E+00 -0.00000000000E+00 -0.65045259065E+03  0.65045259065E+03  0.00000000000E+00 0. -1.
         25    2    1    2    0    0  0.14458614274E+03  0.13798257407E+03  0.47526962026E+03  0.53051767892E+03  0.12499380896E+03 0.  0.
          2    1    1    2  501    0 -0.14431361692E+03 -0.98717388775E+02 -0.60981730851E+03  0.63438843986E+03  0.00000000000E+00 0. -1.
          1    1    1    2  502    0 -0.27252581222E+00 -0.39265185295E+02  0.53043607923E+03  0.53188745351E+03  0.00000000000E+00 0. -1.
         22    1    3    3    0    0  0.11821594016E+03  0.15091566391E+03  0.32435410107E+03  0.37677065836E+03  0.00000000000E+00 0.  1.
         22    1    3    3    0    0  0.26370202580E+02 -0.12933089838E+02  0.15091551919E+03  0.15374702055E+03  0.00000000000E+00 0.  1.
</event>
<event>
 7    1  0.6235964E-006  0.6326194E+02  0.7818608E-02  0.1431024E+00
          2   -1    0    0  502    0  0.00000000000E+00  0.00000000000E+00  0.11162001081E+04  0.11162001081E+04  0.00000000000E+00 0. -1.
          1   -1    0    0  501    0 -0.00000000000E+00 -0.00000000000E+00 -0.30682717464E+04  0.30682717464E+04  0.00000000000E+00 0. -1.
         25    2    1    2    0    0 -0.18715146919E+02  0.98606191008E+01 -0.19280685536E+03  0.23075228123E+03  0.12499857315E+03 0.  0.
          2    1    1    2  501    0  0.46964349063E+02 -0.43585845279E+02 -0.28556916989E+04  0.28564104143E+04  0.00000000000E+00 0. -1.
          1    1    1    2  502    0 -0.28249202144E+02  0.33725226178E+02  0.10964269159E+04  0.10973091589E+04  0.00000000000E+00 0. -1.
         22    1    3    3    0    0  0.16605152744E+02 -0.26543083934E+02  0.78467396572E-01  0.31309304680E+02  0.00000000000E+00 0.  1.
         22    1    3    3    0    0 -0.35320299663E+02  0.36403703035E+02 -0.19288532275E+03  0.19944297655E+03  0.00000000000E+00 0.  1.
</event>
<event>
 7    1  0.6235964E-006  0.2592003E+03  0.7818608E-02  0.1247785E+00
          2   -1    0    0  502    0  0.00000000000E+00  0.00000000000E+00  0.29955283600E+04  0.29955283600E+04  0.00000000000E+00 0. -1.
          1   -1    0    0  501    0 -0.00000000000E+00 -0.00000000000E+00 -0.78593062084E+02  0.78593062084E+02  0.00000000000E+00 0. -1.
         25    2    1    2    0    0  0.25922645062E+03 -0.67246690011E+02  0.47627113491E+03  0.56051850633E+03  0.12500532778E+03 0.  0.
          2    1    1    2  501    0 -0.10812742243E+01  0.52984376650E+02 -0.59844603524E+01  0.53332233111E+02  0.00000000000E+00 0. -1.
          1    1    1    2  502    0 -0.25814517640E+03  0.14262313362E+02  0.24466486234E+04  0.24602706827E+04  0.00000000000E+00 0. -1.
         22    1    3    3    0    0  0.31015000742E+02 -0.24117181824E+02  0.17908796804E+03  0.18334685443E+03  0.00000000000E+00 0.  1.
         22    1    3    3    0    0  0.22821144988E+03 -0.43129508188E+02  0.29718316686E+03  0.37717165190E+03  0.00000000000E+00 0.  1.
</event>
<event>
 7    1  0.6235964E-006  0.7057673E+02  0.7818608E-02  0.1445219E+00
          2   -1    0    0  502    0  0.00000000000E+00  0.00000000000E+00  0.60128128481E+03  0.60128128481E+03  0.00000000000E+00 0. -1.
          1   -1    0    0  501    0 -0.00000000000E+00 -0.00000000000E+00 -0.10372004910E+03  0.10372004910E+03  0.00000000000E+00 0. -1.
         25    2    1    2    0    0 -0.41429837222E+02  0.94230950410E+01  0.53957519573E+02  0.14262645412E+03  0.12500266142E+03 0.  0.
          2    1    1    2  501    0 -0.30425031600E+02 -0.18202890582E+02 -0.51214691018E+02  0.62289424058E+02  0.00000000000E+00 0. -1.
          1    1    1    2  502    0  0.71854868822E+02  0.87797955405E+01  0.49481840715E+03  0.50008545573E+03  0.00000000000E+00 0. -1.
         22    1    3    3    0    0 -0.62397173023E+02  0.81750641145E+01  0.84622754906E+02  0.10545733508E+03  0.00000000000E+00 0. -1.
         22    1    3    3    0    0  0.20967335802E+02  0.12480309265E+01 -0.30665235334E+02  0.37169119036E+02  0.00000000000E+00 0. -1.
</event>
<event>
 7    1  0.6235964E-006  0.6903665E+02  0.7818608E-02  0.1407018E+00
          2   -1    0    0  502    0  0.00000000000E+00  0.00000000000E+00  0.19202709541E+04  0.19202709541E+04  0.00000000000E+00 0. -1.
          1   -1    0    0  501    0 -0.00000000000E+00 -0.00000000000E+00 -0.14484586627E+04  0.14484586627E+04  0.00000000000E+00 0. -1.
         25    2    1    2    0    0 -0.29841399030E+02 -0.24349253913E+02  0.28789292824E+03  0.31621638339E+03  0.12500827066E+03 0.  0.
          2    1    1    2  501    0  0.69018867141E+02 -0.42413424741E+01 -0.14330996892E+04  0.14347669888E+04  0.00000000000E+00 0. -1.
          1    1    1    2  502    0 -0.39177468112E+02  0.28590596387E+02  0.16170190524E+04  0.16177462446E+04  0.00000000000E+00 0. -1.
         22    1    3    3    0    0 -0.46340211042E+02  0.41350400026E+02  0.15690011011E+03  0.16874511932E+03  0.00000000000E+00 0. -1.
         22    1    3    3    0    0  0.16498812012E+02 -0.65699653939E+02  0.13099281813E+03  0.14747126407E+03  0.00000000000E+00 0. -1.
</event>
<event>
 7    1  0.6235964E-006  0.5500388E+02  0.7818608E-02  0.1456269E+00
          2   -1    0    0  502    0  0.00000000000E+00  0.00000000000E+00  0.12143570400E+04  0.12143570400E+04  0.00000000000E+00 0. -1.
          1   -1    0    0  501    0 -0.00000000000E+00 -0.00000000000E+00 -0.69701666890E+03  0.69701666890E+03  0.00000000000E+00 0. -1.
         25    2    1    2    0    0  0.85297466295E+02 -0.27059754187E+02 -0.19515317182E+03  0.24843044188E+03  0.12500014371E+03 0.  0.
          2    1    1    2  501    0 -0.53285013552E+02 -0.35157757141E-01 -0.47335933809E+03  0.47634898642E+03  0.00000000000E+00 0. -1.
          1    1    1    2  502    0 -0.32012452742E+02  0.27094911944E+02  0.11858528810E+04  0.11865942806E+04  0.00000000000E+00 0. -1.
         22    1    3    3    0    0  0.20127915917E+02  0.34776062313E+01  0.15616635145E+02  0.25711982372E+02  0.00000000000E+00 0.  1.
         22    1    3    3    0    0  0.65169550377E+02 -0.30537360418E+02 -0.21076980696E+03  0.22271845950E+03  0.00000000000E+00 0.  1.
</event>
<event>
 7    1  0.6235964E-006  0.6557360E+02  0.7818608E-02  0.1378187E+00
          2   -1    0    0  502    0  0.00000000000E+00  0.00000000000E+00  0.79185341228E+02  0.79185341228E+02  0.00000000000E+00 0. -1.
          1   -1    0    0  501    0 -0.00000000000E+00 -0.00000000000E+00 -0.82026083648E+03  0.82026083648E+03  0.00000000000E+00 0. -1.
         25    2    1    2    0    0 -0.12042129879E+02  0.15170106473E+02 -0.33965783824E+03  0.36244654819E+03  0.12499963280E+03 0.  0.
          2    1    1    2  501    0 -0.53275384706E+02 -0.36034852319E+02 -0.44897117054E+03  0.45355472566E+03  0.00000000000E+00 0. -1.
          1    1    1    2  502    0  0.65317514586E+02  0.20864745846E+02  0.47553513521E+02  0.83444903853E+02  0.00000000000E+00 0. -1.
         22    1    3    3    0    0 -0.39398259685E+02  0.38906411754E+02 -0.64895670991E+02  0.85307560363E+02  0.00000000000E+00 0.  1.
         22    1    3    3    0    0  0.27356129806E+02 -0.23736305281E+02 -0.27476216725E+03  0.27713898783E+03  0.00000000000E+00 0.  1.
</event>
<event>
 7    1  0.6235964E-006  0.1057129E+03  0.7818608E-02  0.1289434E+00
          2   -1    0    0  502    0  0.00000000000E+00  0.00000000000E+00  0.10399542095E+04  0.10399542095E+04  0.00000000000E+00 0. -1.
          1   -1    0    0  501    0 -0.00000000000E+00 -0.00000000000E+00 -0.25020811183E+03  0.25020811183E+03  0.00000000000E+00 0. -1.
         25    2    1    2    0    0 -0.17972996930E+01 -0.55309683451E+02  0.14300544551E+03  0.19783299917E+03  0.12499978698E+03 0.  0.
          2    1    1    2  501    0  0.87479485466E+02  0.69044122993E+02 -0.20651837586E+03  0.23466910931E+03  0.00000000000E+00 0. -1.
          1    1    1    2  502    0 -0.85682185773E+02 -0.13734439542E+02  0.85325902803E+03  0.85766021285E+03  0.00000000000E+00 0. -1.
         22    1    3    3    0    0  0.52507501335E+01  0.36583420322E+02  0.73943797281E+02  0.82665604551E+02  0.00000000000E+00 0. -1.
         22    1    3    3    0    0 -0.70480498265E+01 -0.91893103773E+02  0.69061648230E+02  0.11516739462E+03  0.00000000000E+00 0. -1.
</event>
<event>
 7    1  0.6235964E-006  0.1368758E+03  0.7818608E-02  0.1373566E+00
          2   -1    0    0  502    0  0.00000000000E+00  0.00000000000E+00  0.37844661550E+03  0.37844661550E+03  0.00000000000E+00 0. -1.
          1   -1    0    0  501    0 -0.00000000000E+00 -0.00000000000E+00 -0.19453022695E+04  0.19453022695E+04  0.00000000000E+00 0. -1.
         25    2    1    2    0    0 -0.49691121662E+02  0.11003555502E+03 -0.17019359333E+02  0.17461562623E+03  0.12499570949E+03 0.  0.
          2    1    1    2  501    0  0.28943958865E+02 -0.13440351328E+03 -0.18460666528E+04  0.18511791226E+04  0.00000000000E+00 0. -1.
          1    1    1    2  502    0  0.20747162797E+02  0.24367958267E+02  0.29623035819E+03  0.29795413618E+03  0.00000000000E+00 0. -1.
         22    1    3    3    0    0 -0.84258824235E+02  0.46175991856E+02  0.11152290629E+02  0.96727169253E+02  0.00000000000E+00 0.  1.
         22    1    3    3    0    0  0.34567702573E+02  0.63859563161E+02 -0.28171649963E+02  0.77888456975E+02  0.00000000000E+00 0.  1.
</event>
<event>
 7    1  0.6235964E-006  0.1149793E+03  0.7818608E-02  0.1427948E+00
          2   -1    0    0  502    0  0.00000000000E+00  0.00000000000E+00  0.63647207144E+03  0.63647207144E+03  0.00000000000E+00 0. -1.
          1   -1    0    0  501    0 -0.00000000000E+00 -0.00000000000E+00 -0.21637247986E+03  0.21637247986E+03  0.00000000000E+00 0. -1.
         25    2    1    2    0    0  0.91895124808E+02 -0.35201795120E+02  0.15097833679E+03  0.21932240373E+03  0.12499591296E+03 0.  0.
          2    1    1    2  501    0 -0.10126515722E+03  0.58138290965E+02 -0.16310079595E+03  0.20059053462E+03  0.00000000000E+00 0. -1.
          1    1    1    2  502    0  0.93700324095E+01 -0.22936495845E+02  0.43222205074E+03  0.43293161295E+03  0.00000000000E+00 0. -1.
         22    1    3    3    0    0  0.62623679204E+02 -0.80052551508E+02  0.12072035911E+03  0.15780855903E+03  0.00000000000E+00 0. -1.
         22    1    3    3    0    0  0.29271445604E+02  0.44850756388E+02  0.30257977675E+02  0.61513844696E+02  0.00000000000E+00 0. -1.
</event>
<event>
 7    1  0.6235964E-006  0.8575229E+02  0.7818608E-02  0.1422224E+00
          2   -1    0    0  502    0  0.00000000000E+00  0.00000000000E+00  0.14177882046E+04  0.14177882046E+04  0.00000000000E+00 0. -1.
          1   -1    0    0  501    0 -0.00000000000E+00 -0.00000000000E+00 -0.14089113547E+03  0.14089113547E+03  0.00000000000E+00 0. -1.
         25    2    1    2    0    0  0.54030405057E+02  0.26643819305E+02  0.36853671630E+03  0.39379295920E+03  0.12499762270E+03 0.  0.
          2    1    1    2  501    0 -0.85886662577E+02 -0.12873669773E+02 -0.11323375396E+03  0.14270295448E+03  0.00000000000E+00 0. -1.
          1    1    1    2  502    0  0.31856257520E+02 -0.13770149533E+02  0.10215941067E+04  0.10221834263E+04  0.00000000000E+00 0. -1.
         22    1    3    3    0    0  0.77177317825E+02 -0.25843835294E+02  0.21491398818E+03  0.22980919156E+03  0.00000000000E+00 0.  1.
         22    1    3    3    0    0 -0.23146912768E+02  0.52487654600E+02  0.15362272811E+03  0.16398376764E+03  0.00000000000E+00 0.  1.
</event>
<event>
 7    1  0.6235964E-006  0.2535906E+03  0.7818608E-02  0.1233537E+00
          2   -1    0    0  502    0  0.00000000000E+00  0.00000000000E+00  0.18757207740E+04  0.18757207740E+04  0.00000000000E+00 0. -1.
          1   -1    0    0  501    0 -0.00000000000E+00 -0.00000000000E+00 -0.90571424119E+03  0.90571424119E+03  0.00000000000E+00 0. -1.
         25    2    1    2    0    0 -0.20697576273E+03  0.22936396522E+03  0.18508885600E+03  0.38122106285E+03  0.12499927697E+03 0.  0.
          2    1    1    2  501    0  0.18071812059E+03 -0.17254786066E+03 -0.78768551206E+03  0.82636569945E+03  0.00000000000E+00 0. -1.
          1    1    1    2  502    0  0.26257642141E+02 -0.56816104560E+02  0.15726031889E+04  0.15738482529E+04  0.00000000000E+00 0. -1.
         22    1    3    3    0    0 -0.19729014493E+03  0.16382959965E+03  0.10454949441E+03  0.27693706106E+03  0.00000000000E+00 0. -1.
         22    1    3    3    0    0 -0.96856178002E+01  0.65534365568E+02  0.80539361595E+02  0.10428400179E+03  0.00000000000E+00 0. -1.
</event>
<event>
 7    1  0.6235964E-006  0.6314706E+02  0.7818608E-02  0.1412683E+00
          2   -1    0    0  502    0  0.00000000000E+00  0.00000000000E+00  0.35833234493E+03  0.35833234493E+03  0.00000000000E+00 0. -1.
          1   -1    0    0  501    0 -0.00000000000E+00 -0.00000000000E+00 -0.25803286798E+03  0.25803286798E+03  0.00000000000E+00 0. -1.
         25    2    1    2    0    0 -0.15213272982E+02 -0.19064593850E+02  0.14379369307E+03  0.19208610638E+03  0.12500217472E+03 0.  0.
          2    1    1    2  501    0  0.64137716002E+02  0.56473576819E+01 -0.22592783198E+03  0.23492323113E+03  0.00000000000E+00 0. -1.
          1    1    1    2  502    0 -0.48924443020E+02  0.13417236168E+02  0.18243361586E+03  0.18935587540E+03  0.00000000000E+00 0. -1.
         22    1    3    3    0    0  0.52050925073E+01 -0.58123310938E+02  0.21664456129E+02  0.62247577638E+02  0.00000000000E+00 0. -1.
         22    1    3    3    0    0 -0.20418365489E+02  0.39058717088E+02  0.12212923694E+03  0.12983852874E+03  0.00000000000E+00 0. -1.
</event>
<event>
 7    1  0.8673185E-006  0.5999276E+02  0.7818608E-02  0.1439763E+00
          2   -1    0    0  502    0  0.00000000000E+00  0.00000000000E+00  0.12047048640E+04  0.12047048640E+04  0.00000000000E+00 0. -1.
          1   -1    0    0  501    0 -0.00000000000E+00 -0.00000000000E+00 -0.18571863116E+04  0.18571863116E+04  0.00000000000E+00 0. -1.
         25    2    1    2    0    0  0.76868860445E+02  0.48965592816E+02 -0.16180801232E+03  0.22386110623E+03  0.12500204416E+03 0.  0.
          2    1    1    2  501    0 -0.33431334152E+02 -0.49319803587E+02 -0.16634162559E+04  0.16644830241E+04  0.00000000000E+00 0. -1.
          1    1    1    2  502    0 -0.43437526293E+02  0.35421077068E+00  0.11727428207E+04  0.11735470453E+04  0.00000000000E+00 0. -1.
         22    1    3    3    0    0  0.52687182150E+02  0.18180041015E+02 -0.17412041119E+03  0.18282333179E+03  0.00000000000E+00 0.  1.
         22    1    3    3    0    0  0.24181678296E+02  0.30785551801E+02  0.12312398869E+02  0.41037774438E+02  0.00000000000E+00 0.  1.
</event>
<event>
 7    1  0.6235964E-006  0.1307680E+03  0.7818608E-02  0.1328846E+00
          2   -1    0    0  502    0  0.00000000000E+00  0.00000000000E+00  0.61361489405E+03  0.61361489405E+03  0.00000000000E+00 0. -1.
          1   -1    0    0  501    0 -0.00000000000E+00 -0.00000000000E+00 -0.17475864339E+04  0.17475864339E+04  0.00000000000E+00 0. -1.
         25    2    1    2    0    0  0.10226007305E+03  0.36896765153E+02 -0.47177978332E+02  0.17224578747E+03  0.12499742335E+03 0.  0.
          2    1    1    2  501    0 -0.10023435570E+03 -0.85885055403E+02 -0.16341174972E+04  0.16394398932E+04  0.00000000000E+00 0. -1.
          1    1    1    2  502    0 -0.20257173559E+01  0.48988290250E+02  0.54732393564E+03  0.54951564731E+03  0.00000000000E+00 0. -1.
         22    1    3    3    0    0  0.22115671046E+01  0.61932716115E+01 -0.65646378611E+02  0.65974954847E+02  0.00000000000E+00 0.  1.
         22    1    3    3    0    0  0.10004850595E+03  0.30703493542E+02  0.18468400278E+02  0.10627083263E+03  0.00000000000E+00 0.  1.
</event>
<event>
 7    1  0.6235964E-006  0.7853250E+02  0.7818608E-02  0.1475897E+00
          2   -1    0    0  502    0  0.00000000000E+00  0.00000000000E+00  0.21164194383E+03  0.21164194383E+03  0.00000000000E+00 0. -1.
          1   -1    0    0  501    0 -0.00000000000E+00 -0.00000000000E+00 -0.91164748906E+03  0.91164748906E+03  0.00000000000E+00 0. -1.
         25    2    1    2    0    0  0.84065215366E+02 -0.34352978865E+02 -0.40605288931E+02  0.15975360833E+03  0.12500135316E+03 0.  0.
          2    1    1    2  501    0 -0.71046706754E+01  0.24492277498E+02 -0.80135481899E+03  0.80176049660E+03  0.00000000000E+00 0. -1.
          1    1    1    2  502    0 -0.76960544690E+02  0.98607013674E+01  0.14195456269E+03  0.16177532796E+03  0.00000000000E+00 0. -1.
         22    1    3    3    0    0  0.78956892538E+02 -0.61889079461E+02 -0.67507164904E+02  0.12092008249E+03  0.00000000000E+00 0. -1.
         22    1    3    3    0    0  0.51083228275E+01  0.27536100595E+02  0.26901875974E+02  0.38833525838E+02  0.00000000000E+00 0. -1.
</event>
<event>
 7    1  0.6235964E-006  0.6840784E+02  0.7818608E-02  0.1513894E+00
          2   -1    0    0  502    0  0.00000000000E+00  0.00000000000E+00  0.14435247867E+02  0.14435247867E+02  0.00000000000E+00 0. -1.
          1   -1    0    0  501    0 -0.00000000000E+00 -0.00000000000E+00 -0.13310784860E+04  0.13310784860E+04  0.00000000000E+00 0. -1.
         25    2    1    2    0    0  0.18635302513E+02 -0.46309708651E+02 -0.79274462974E+03  0.80409070740E+03  0.12500381648E+03 0.  0.
          2    1    1    2  501    0  0.32676348244E+01 -0.22268215521E+02 -0.37859307543E+03  0.37926147659E+03  0.00000000000E+00 0. -1.
          1    1    1    2  502    0 -0.21902937337E+02  0.68577924172E+02 -0.14530553293E+03  0.16216154985E+03  0.00000000000E+00 0. -1.
         22    1    3    3    0    0 -0.48635224340E+02 -0.15846473945E+02 -0.18730174765E+03  0.19416086232E+03  0.00000000000E+00 0. -1.
         22    1    3    3    0    0  0.67270526853E+02 -0.30463234706E+02 -0.60544288209E+03  0.60992984508E+03  0.00000000000E+00 0. -1.
</event>
<event>
 7    1  0.6235964E-006  0.2676307E+03  0.7818608E-02  0.1236312E+00
          2   -1    0    0  502    0  0.00000000000E+00  0.00000000000E+00  0.18735374916E+04  0.18735374916E+04  0.00000000000E+00 0. -1.
          1   -1    0    0  501    0 -0.00000000000E+00 -0.00000000000E+00 -0.10831637109E+04  0.10831637109E+04  0.00000000000E+00 0. -1.
         25    2    1    2    0    0  0.18293238511E+03 -0.23476107018E+03  0.45814820726E+03  0.56045664287E+03  0.12503939831E+03 0.  0.
          2    1    1    2  501    0 -0.19774210646E+03  0.17905031426E+03 -0.10141439896E+04  0.10486414961E+04  0.00000000000E+00 0. -1.
          1    1    1    2  502    0  0.14809721350E+02  0.55710755921E+02  0.13463695632E+04  0.13476030635E+04  0.00000000000E+00 0. -1.
         22    1    3    3    0    0  0.63436593936E+02 -0.18097417396E+03  0.27058975385E+03  0.33165444061E+03  0.00000000000E+00 0. -1.
         22    1    3    3    0    0  0.11949579117E+03 -0.53786896225E+02  0.18755845342E+03  0.22880220226E+03  0.00000000000E+00 0. -1.
</event>
<event>
 7    1  0.7188169E-006  0.8529342E+02  0.7818608E-02  0.1328858E+00
          2   -1    0    0  502    0  0.00000000000E+00  0.00000000000E+00  0.74281685583E+03  0.74281685583E+03  0.00000000000E+00 0. -1.
          1   -1    0    0  501    0 -0.00000000000E+00 -0.00000000000E+00 -0.11279898387E+04  0.11279898387E+04  0.00000000000E+00 0. -1.
         25    2    1    2    0    0 -0.11418282315E+02  0.52809856029E+01 -0.49215788375E+03  0.50793976418E+03  0.12500062210E+03 0.  0.
          2    1    1    2  501    0 -0.73750416923E+02 -0.14503217916E+02 -0.62317868450E+03  0.62769510126E+03  0.00000000000E+00 0. -1.
          1    1    1    2  502    0  0.85168699238E+02  0.92222323129E+01  0.73016358537E+03  0.73517182910E+03  0.00000000000E+00 0. -1.
         22    1    3    3    0    0 -0.55583008208E+02 -0.21245364113E+02 -0.37852457644E+03  0.38317318704E+03  0.00000000000E+00 0. -1.
         22    1    3    3    0    0  0.44164725893E+02  0.26526349716E+02 -0.11363330731E+03  0.12476657715E+03  0.00000000000E+00 0. -1.
</event>
<event>
 7    1  0.6235964E-006  0.7318979E+02  0.7818608E-02  0.1495067E+00
          2   -1    0    0  502    0  0.00000000000E+00  0.00000000000E+00  0.23148536540E+03  0.23148536540E+03  0.00000000000E+00 0. -1.
          1   -1    0    0  501    0 -0.00000000000E+00 -0.00000000000E+00 -0.13381687806E+03  0.13381687806E+03  0.00000000000E+00 0. -1.
         25    2    1    2    0    0 -0.24867244637E+02 -0.47244780932E+02  0.12008755625E+03  0.18137329556E+03  0.12499920798E+03 0.  0.
          2    1    1    2  501    0  0.45079289631E+02  0.60041779079E+02 -0.87083513043E+02  0.11498128471E+03  0.00000000000E+00 0. -1.
          1    1    1    2  502    0 -0.20212044994E+02 -0.12796998147E+02  0.64664444132E+02  0.68947663190E+02  0.00000000000E+00 0. -1.
         22    1    3    3    0    0 -0.49549106083E+02  0.24533578952E+02  0.74696058652E+02  0.92932833745E+02  0.00000000000E+00 0.  1.
         22    1    3    3    0    0  0.24681861446E+02 -0.71778359884E+02  0.45391497597E+02  0.88440461816E+02  0.00000000000E+00 0.  1.
</event>
<event>
 7    1  0.6235964E-006  0.6133636E+02  0.7818608E-02  0.1491099E+00
          2   -1    0    0  502    0  0.00000000000E+00  0.00000000000E+00  0.69726041201E+03  0.69726041201E+03  0.00000000000E+00 0. -1.
          1   -1    0    0  501    0 -0.00000000000E+00 -0.00000000000E+00 -0.55643976559E+03  0.55643976559E+03  0.00000000000E+00 0. -1.
         25    2    1    2    0    0 -0.34513925180E+02  0.14443691236E+02 -0.19009678192E+03  0.23056847137E+03  0.12500080897E+03 0.  0.
          2    1    1    2  501    0 -0.26932840126E+02 -0.11644226798E+02 -0.34408431232E+03  0.34533314333E+03  0.00000000000E+00 0. -1.
          1    1    1    2  502    0  0.61446765306E+02 -0.27994644380E+01  0.67500174066E+03  0.67779856290E+03  0.00000000000E+00 0. -1.
         22    1    3    3    0    0 -0.64569567764E+02 -0.96523192190E+01 -0.17891739748E+03  0.19045690187E+03  0.00000000000E+00 0. -1.
         22    1    3    3    0    0  0.30055642584E+02  0.24096010455E+02 -0.11179384438E+02  0.40111569496E+02  0.00000000000E+00 0. -1.
</event>
<event>
 7    1  0.6235964E-006  0.2811660E+03  0.7818608E-02  0.1186014E+00
          2   -1    0    0  502    0  0.00000000000E+00  0.00000000000E+00  0.22021695337E+04  0.22021695337E+04  0.00000000000E+00 0. -1.
          1   -1    0    0  501    0 -0.00000000000E+00 -0.00000000000E+00 -0.19067868637E+03  0.19067868637E+03  0.00000000000E+00 0. -1.
         25    2    1    2    0    0  0.14026276294E+03 -0.32720191590E+03  0.49563663245E+03  0.62290896351E+03  0.12500067579E+03 0.  0.
          2    1    1    2  501    0 -0.11192427483E+03  0.23778422850E+03  0.11915946181E+02  0.26307864298E+03  0.00000000000E+00 0. -1.
          1    1    1    2  502    0 -0.28338488114E+02  0.89417687407E+02  0.15039382687E+04  0.15068606135E+04  0.00000000000E+00 0. -1.
         22    1    3    3    0    0  0.44645710449E+02 -0.10821929105E+03  0.26989913894E+03  0.29419415293E+03  0.00000000000E+00 0.  1.
         22    1    3    3    0    0  0.95617052496E+02 -0.21898262486E+03  0.22573749352E+03  0.32871481058E+03  0.00000000000E+00 0.  1.
</event>
<event>
 7    1  0.6235964E-006  0.1093220E+03  0.7818608E-02  0.1307853E+00
          2   -1    0    0  502    0  0.00000000000E+00  0.00000000000E+00  0.20932258148E+02  0.20932258148E+02  0.00000000000E+00 0. -1.
          1   -1    0    0  501    0 -0.00000000000E+00 -0.00000000000E+00 -0.16890768714E+04  0.16890768714E+04  0.00000000000E+00 0. -1.
         25    2    1    2    0    0 -0.48918721839E+02 -0.54334435032E+02 -0.99912400146E+03  0.10095632616E+04  0.12499574671E+03 0.  0.
          2    1    1    2  501    0 -0.68495836305E+02  0.17843414958E+02 -0.37714599410E+03  0.38373059288E+03  0.00000000000E+00 0. -1.
          1    1    1    2  502    0  0.11741455814E+03  0.36491020074E+02 -0.29187461773E+03  0.31671527511E+03  0.00000000000E+00 0. -1.
         22    1    3    3    0    0 -0.53422492571E+02 -0.85565724263E+02 -0.89755543120E+03  0.90320607170E+03  0.00000000000E+00 0. -1.
         22    1    3    3    0    0  0.45037707312E+01  0.31231289231E+02 -0.10156857026E+03  0.10635718989E+03  0.00000000000E+00 0. -1.
</event>
<event>
 7    1  0.6235964E-006  0.4970734E+02  0.7818608E-02  0.1503070E+00
          2   -1    0    0  502    0  0.00000000000E+00  0.00000000000E+00  0.22221736704E+04  0.22221736704E+04  0.00000000000E+00 0. -1.
          1   -1    0    0  501    0 -0.00000000000E+00 -0.00000000000E+00 -0.16482267673E+03  0.16482267673E+03  0.00000000000E+00 0. -1.
         25    2    1    2    0    0  0.19128284285E+02 -0.16919323171E+02  0.10979833328E+03  0.16835800252E+03  0.12504634446E+03 0.  0.
          2    1    1    2  501    0  0.30721146598E+02  0.12944256911E+02 -0.13318806663E+03  0.13729677246E+03  0.00000000000E+00 0. -1.
          1    1    1    2  502    0 -0.49849430883E+02  0.39750662608E+01  0.20807407271E+04  0.20813415722E+04  0.00000000000E+00 0. -1.
         22    1    3    3    0    0  0.14596190174E+02  0.34201546349E+02 -0.95930930629E+01  0.38403410979E+02  0.00000000000E+00 0. -1.
         22    1    3    3    0    0  0.45320941109E+01 -0.51120869521E+02  0.11939142634E+03  0.12995459154E+03  0.00000000000E+00 0. -1.
</event>
<event>
 7    1  0.6235964E-006  0.6518439E+02  0.7818608E-02  0.1387874E+00
          2   -1    0    0  502    0  0.00000000000E+00  0.00000000000E+00  0.30936422649E+03  0.30936422649E+03  0.00000000000E+00 0. -1.
          1   -1    0    0  501    0 -0.00000000000E+00 -0.00000000000E+00 -0.77400982179E+03  0.77400982179E+03  0.00000000000E+00 0. -1.
         25    2    1    2    0    0  0.57739309048E+02 -0.91329197691E+02 -0.38347460883E+03  0.41755461038E+03  0.12499690744E+03 0.  0.
          2    1    1    2  501    0 -0.51127590740E+02  0.31887252309E+02 -0.36795965127E+03  0.37286074124E+03  0.00000000000E+00 0. -1.
          1    1    1    2  502    0 -0.66117183080E+01  0.59441945382E+02  0.28678866480E+03  0.29295869666E+03  0.00000000000E+00 0. -1.
         22    1    3    3    0    0 -0.32583714080E+02  0.33134897824E+01 -0.10271943716E+03  0.10781447216E+03  0.00000000000E+00 0.  1.
         22    1    3    3    0    0  0.90323023129E+02 -0.94642687474E+02 -0.28075517168E+03  0.30974013822E+03  0.00000000000E+00 0.  1.
</event>
<event>
 7    1  0.6235964E-006  0.5943444E+02  0.7818608E-02  0.1491685E+00
          2   -1    0    0  502    0  0.00000000000E+00  0.00000000000E+00  0.23407175879E+04  0.23407175879E+04  0.00000000000E+00 0. -1.
          1   -1    0    0  501    0 -0.00000000000E+00 -0.00000000000E+00 -0.12848450597E+02  0.12848450597E+02  0.00000000000E+00 0. -1.
         25    2    1    2    0    0 -0.30080946289E+02 -0.21241597381E+02  0.10442176839E+04  0.10523168599E+04  0.12499653395E+03 0.  0.
          2    1    1    2  501    0  0.35510868100E+02  0.50906853827E+02  0.10330445088E+03  0.12051696599E+03  0.00000000000E+00 0. -1.
          1    1    1    2  502    0 -0.54299218101E+01 -0.29665256446E+02  0.11803470026E+04  0.11807322127E+04  0.00000000000E+00 0. -1.
         22    1    3    3    0    0  0.13767731241E+01  0.49158714339E+02  0.28696372551E+03  0.29114713541E+03  0.00000000000E+00 0. -1.
         22    1    3    3    0    0 -0.31457719414E+02 -0.70400311719E+02  0.75725395836E+03  0.76116972448E+03  0.00000000000E+00 0. -1.
</event>
<event>
 7    1  0.6235964E-006  0.7485347E+02  0.7818608E-02  0.1420129E+00
          2   -1    0    0  502    0  0.00000000000E+00  0.00000000000E+00  0.17527412495E+04  0.17527412495E+04  0.00000000000E+00 0. -1.
          1   -1    0    0  501    0 -0.00000000000E+00 -0.00000000000E+00 -0.14852004952E+03  0.14852004952E+03  0.00000000000E+00 0. -1.
         25    2    1    2    0    0 -0.28260140289E+02 -0.82480009504E+02  0.50532970876E+03  0.52781188547E+03  0.12500273756E+03 0.  0.
          2    1    1    2  501    0  0.54225055777E+02  0.51524941649E+02 -0.12673188377E+03  0.14716027538E+03  0.00000000000E+00 0. -1.
          1    1    1    2  502    0 -0.25964915488E+02  0.30955067855E+02  0.12256233750E+04  0.12262891381E+04  0.00000000000E+00 0. -1.
         22    1    3    3    0    0 -0.11201674046E+02  0.24719101607E+02  0.23409892622E+03  0.23566675358E+03  0.00000000000E+00 0.  1.
         22    1    3    3    0    0 -0.17058466243E+02 -0.10719911111E+03  0.27123078254E+03  0.29214513189E+03  0.00000000000E+00 0.  1.
</event>
<event>
 7    1  0.6235964E-006  0.9853787E+02  0.7818608E-02  0.1310623E+00
          2   -1    0    0  502    0  0.00000000000E+00  0.00000000000E+00  0.23684449464E+03  0.23684449464E+03  0.00000000000E+00 0. -1.
          1   -1    0    0  501    0 -0.00000000000E+00 -0.00000000000E+00 -0.75772482272E+03  0.75772482272E+03  0.00000000000E+00 0. -1.
         25    2    1    2    0    0 -0.72849473163E+02  0.11387137205E+03 -0.17717423988E+03  0.25551551749E+03  0.12499493305E+03 0.  0.
          2    1    1    2  501    0 -0.17638120982E+01 -0.96639528321E+02 -0.52942030056E+03  0.53817112902E+03  0.00000000000E+00 0. -1.
          1    1    1    2  502    0  0.74613285261E+02 -0.17231843729E+02  0.18571421236E+03  0.20088267085E+03  0.00000000000E+00 0. -1.
         22    1    3    3    0    0 -0.91325519555E+02  0.84039219252E+02 -0.69447444277E+02  0.14221774999E+03  0.00000000000E+00 0.  1.
         22    1    3    3    0    0  0.18476046392E+02  0.29832152797E+02 -0.10772679560E+03  0.11329776750E+03  0.00000000000E+00 0.  1.
</event>
<event>
 7    1  0.6235964E-006  0.2976597E+03  0.7818608E-02  0.1149421E+00
          2   -1    0    0  502    0  0.00000000000E+00  0.00000000000E+00  0.36233454150E+04  0.36233454150E+04  0.00000000000E+00 0. -1.
          1   -1    0    0  501    0 -0.00000000000E+00 -0.00000000000E+00 -0.15438582629E+04  0.15438582629E+04  0.00000000000E+00 0. -1.
         25    2    1    2    0    0 -0.13775797072E+03 -0.32568594240E+03  0.46543557714E+02  0.37794003305E+03  0.12499509689E+03 0.  0.
          2    1    1    2  501    0  0.20734310508E+03  0.21013132791E+03 -0.13609964603E+04  0.13926441409E+04  0.00000000000E+00 0. -1.
          1    1    1    2  502    0 -0.69585134366E+02  0.11555461449E+03  0.33939400547E+04  0.33966195039E+04  0.00000000000E+00 0. -1.
         22    1    3    3    0    0 -0.44651429326E+02 -0.31448984821E+02 -0.26638744157E+02  0.60765216015E+02  0.00000000000E+00 0.  1.
         22    1    3    3    0    0 -0.93106541392E+02 -0.29423695758E+03  0.73182301872E+02  0.31717481704E+03  0.00000000000E+00 0.  1.
</event>
<event>
 7    1  0.6235964E-006  0.7118802E+02  0.7818608E-02  0.1400918E+00
          2   -1    0    0  502    0  0.00000000000E+00  0.00000000000E+00  0.14858509011E+04  0.14858509011E+04  0.00000000000E+00 0. -1.
          1   -1    0    0  501    0 -0.00000000000E+00 -0.00000000000E+00 -0.11651514444E+03  0.11651514444E+03  0.00000000000E+00 0. -1.
         25    2    1    2    0    0 -0.20824140795E+02 -0.24474005731E+02  0.15131802656E+03  0.19888434026E+03  0.12500085537E+03 0.  0.
          2    1    1    2  501    0  0.14766712704E+02  0.73449153000E+02 -0.77053112755E+02  0.10747100105E+03  0.00000000000E+00 0. -1.
          1    1    1    2  502    0  0.60574280914E+01 -0.48975147269E+02  0.12950708428E+04  0.12960107042E+04  0.00000000000E+00 0. -1.
         22    1    3    3    0    0 -0.70531624396E+02 -0.18808826545E+02  0.11807629411E+03  0.13881820207E+03  0.00000000000E+00 0.  1.
         22    1    3    3    0    0  0.49707483600E+02 -0.56651791860E+01  0.33241732454E+02  0.60066138194E+02  0.00000000000E+00 0.  1.
</event>
<event>
 7    1  0.6235964E-006  0.2050257E+03  0.7818608E-02  0.1312233E+00
          2   -1    0    0  502    0  0.00000000000E+00  0.00000000000E+00  0.95041250998E+03  0.95041250998E+03  0.00000000000E+00 0. -1.
          1   -1    0    0  501    0 -0.00000000000E+00 -0.00000000000E+00 -0.16456381254E+03  0.16456381254E+03  0.00000000000E+00 0. -1.
         25    2    1    2    0    0  0.92850561449E+02  0.19812411304E+03  0.30142329464E+03  0.39286932442E+03  0.12496364508E+03 0.  0.
          2    1    1    2  501    0 -0.56820256445E+02 -0.19394894563E+03 -0.31818708661E+02  0.20459023748E+03  0.00000000000E+00 0. -1.
          1    1    1    2  502    0 -0.36030305004E+02 -0.41751674108E+01  0.51624411146E+03  0.51751676062E+03  0.00000000000E+00 0. -1.
         22    1    3    3    0    0  0.86956479585E+02  0.67187223034E+02  0.81356592796E+02  0.13672763975E+03  0.00000000000E+00 0.  1.
         22    1    3    3    0    0  0.58940818639E+01  0.13093689000E+03  0.22006670184E+03  0.25614168467E+03  0.00000000000E+00 0.  1.
</event>
<event>
 7    1  0.6235964E-006  0.1682958E+03  0.7818608E-02  0.1210249E+00
          2   -1    0    0  502    0  0.00000000000E+00  0.00000000000E+00  0.16790013155E+04  0.16790013155E+04  0.00000000000E+00 0. -1.
          1   -1    0    0  501    0 -0.00000000000E+00 -0.00000000000E+00 -0.70800275855E+03  0.70800275855E+03  0.00000000000E+00 0. -1.
         25    2    1    2    0    0 -0.90993295615E+02 -0.14145960953E+03 -0.68385778007E+01  0.20967226575E+03  0.12500036762E+03 0.  0.
          2    1    1    2  501    0 -0.25653512782E+02  0.17105790136E+03 -0.58491417203E+03  0.60995368429E+03  0.00000000000E+00 0. -1.
          1    1    1    2  502    0  0.11664680840E+03 -0.29598291837E+02  0.15627513068E+04  0.15673781240E+04  0.00000000000E+00 0. -1.
         22    1    3    3    0    0  0.11712905890E+02 -0.89631014796E+02 -0.23580067669E+02  0.93418041989E+02  0.00000000000E+00 0.  1.
         22    1    3    3    0    0 -0.10270620151E+03 -0.51828594732E+02  0.16741489868E+02  0.11625422376E+03  0.00000000000E+00 0.  1.
</event>
<event>
 7    1  0.6235964E-006  0.6287234E+02  0.7818608E-02  0.1511683E+00
          2   -1    0    0  502    0  0.00000000000E+00  0.00000000000E+00  0.26787766107E+03  0.26787766107E+03  0.00000000000E+00 0. -1.
          1   -1    0    0  501    0 -0.00000000000E+00 -0.00000000000E+00 -0.91717622904E+03  0.91717622904E+03  0.00000000000E+00 0. -1.
         25    2    1    2    0    0  0.27631856385E+02  0.49724161395E+02 -0.73733612904E+03  0.75001049658E+03  0.12496065811E+03 0.  0.
          2    1    1    2  501    0  0.22164004272E+02 -0.11252034771E+02 -0.16879450295E+03  0.17061487507E+03  0.00000000000E+00 0. -1.
          1    1    1    2  502    0 -0.49795860657E+02 -0.38472126624E+02  0.25683206402E+03  0.26442851846E+03  0.00000000000E+00 0. -1.
         22    1    3    3    0    0 -0.36947661431E+02 -0.20205617429E+02 -0.22552163465E+03  0.22941971222E+03  0.00000000000E+00 0.  1.
         22    1    3    3    0    0  0.64579517816E+02  0.69929778824E+02 -0.51181449439E+03  0.52059078435E+03  0.00000000000E+00 0.  1.
</event>
<event>
 7    1  0.1445275E-005  0.1114414E+03  0.7818608E-02  0.1304596E+00
          2   -1    0    0  502    0  0.00000000000E+00  0.00000000000E+00  0.18244408233E+04  0.18244408233E+04  0.00000000000E+00 0. -1.
          1   -1    0    0  501    0 -0.00000000000E+00 -0.00000000000E+00 -0.12342221289E+04  0.12342221289E+04  0.00000000000E+00 0. -1.
         25    2    1    2    0    0 -0.51416391520E+02 -0.11321878758E+02 -0.44437814017E+03  0.46461780441E+03  0.12500376978E+03 0.  0.
          2    1    1    2  501    0 -0.30335910571E+02 -0.64780411137E+02 -0.77635943683E+03  0.77964783351E+03  0.00000000000E+00 0. -1.
          1    1    1    2  502    0  0.81752302092E+02  0.76102289895E+02  0.18109562714E+04  0.18143973144E+04  0.00000000000E+00 0. -1.
         22    1    3    3    0    0  0.12476807254E+02 -0.55568813889E+02 -0.16103980489E+03  0.17081388279E+03  0.00000000000E+00 0. -1.
         22    1    3    3    0    0 -0.63893198774E+02  0.44246935131E+02 -0.28333833528E+03  0.29380392162E+03  0.00000000000E+00 0. -1.
</event>
<event>
 7    1  0.6235964E-006  0.5629338E+02  0.7818608E-02  0.1456292E+00
          2   -1    0    0  502    0  0.00000000000E+00  0.00000000000E+00  0.32780345094E+04  0.32780345094E+04  0.00000000000E+00 0. -1.
          1   -1    0    0  501    0 -0.00000000000E+00 -0.00000000000E+00 -0.95576259187E+03  0.95576259187E+03  0.00000000000E+00 0. -1.
         25    2    1    2    0    0 -0.29211711028E+00  0.92668733910E+02  0.17773663158E+02  0.15661821980E+03  0.12500313634E+03 0.  0.
          2    1    1    2  501    0  0.14500011453E+02 -0.38320433633E+02 -0.88561941184E+03  0.88656666337E+03  0.00000000000E+00 0. -1.
          1    1    1    2  502    0 -0.14207894343E+02 -0.54348300277E+02  0.31901176662E+04  0.31906122181E+04  0.00000000000E+00 0. -1.
         22    1    3    3    0    0  0.55096487349E+02  0.63128754772E+02 -0.16047406445E+02  0.85313433003E+02  0.00000000000E+00 0.  1.
         22    1    3    3    0    0 -0.55388604459E+02  0.29539979139E+02  0.33821069603E+02  0.71304786799E+02  0.00000000000E+00 0.  1.
</event>
<event>
 7    1  0.6235964E-006  0.6337289E+02  0.7818608E-02  0.1427385E+00
          2   -1    0    0  502    0  0.00000000000E+00  0.00000000000E+00  0.18863119718E+04  0.18863119718E+04  0.00000000000E+00 0. -1.
          1   -1    0    0  501    0 -0.00000000000E+00 -0.00000000000E+00 -0.48168939900E+03  0.48168939900E+03  0.00000000000E+00 0. -1.
         25    2    1    2    0    0  0.63013712831E+02 -0.87922358138E+02  0.40993613302E+03  0.44201182722E+03  0.12500301268E+03 0.  0.
          2    1    1    2  501    0 -0.34692748855E+02  0.52764409111E+02 -0.46315960389E+03  0.46744463669E+03  0.00000000000E+00 0. -1.
          1    1    1    2  502    0 -0.28320963975E+02  0.35157949027E+02  0.14578460437E+04  0.14585449069E+04  0.00000000000E+00 0. -1.
         22    1    3    3    0    0  0.76993336700E+02 -0.13962935427E+02  0.29035432586E+03  0.30071343836E+03  0.00000000000E+00 0. -1.
         22    1    3    3    0    0 -0.13979623869E+02 -0.73959422712E+02  0.11958180716E+03  0.14129838886E+03  0.00000000000E+00 0. -1.
</event>
<event>
 7    1  0.6235964E-006  0.6898636E+02  0.7818608E-02  0.1381894E+00
          2   -1    0    0  502    0  0.00000000000E+00  0.00000000000E+00  0.16735493218E+04  0.16735493218E+04  0.00000000000E+00 0. -1.
          1   -1    0    0  501    0 -0.00000000000E+00 -0.00000000000E+00 -0.26303227792E+03  0.26303227792E+03  0.00000000000E+00 0. -1.
         25    2    1    2    0    0 -0.73676331452E+02 -0.17139687342E+02 -0.13397334126E+03  0.19822919809E+03  0.12499595237E+03 0.  0.
          2    1    1    2  501    0  0.61156478714E+02 -0.40839522444E+02 -0.82364295289E+02  0.11041674973E+03  0.00000000000E+00 0. -1.
          1    1    1    2  502    0  0.12519852738E+02  0.57979209787E+02  0.16268546805E+04  0.16279356519E+04  0.00000000000E+00 0. -1.
         22    1    3    3    0    0 -0.10752597261E+02  0.51662277018E+02 -0.51902856805E+02  0.74016996420E+02  0.00000000000E+00 0.  1.
         22    1    3    3    0    0 -0.62923734191E+02 -0.68801964360E+02 -0.82070484455E+02  0.12421220167E+03  0.00000000000E+00 0.  1.
</event>
<event>
 7    1  0.6235964E-006  0.1212465E+03  0.7818608E-02  0.1409867E+00
          2   -1    0    0  502    0  0.00000000000E+00  0.00000000000E+00  0.74119022566E+03  0.74119022566E+03  0.00000000000E+00 0. -1.
          1   -1    0    0  501    0 -0.00000000000E+00 -0.00000000000E+00 -0.17997547766E+03  0.17997547766E+03  0.00000000000E+00 0. -1.
         25    2    1    2    0    0  0.25946098149E+02 -0.12091728351E+03  0.22580751468E+03  0.28619636766E+03  0.12500055087E+03 0.  0.
          2    1    1    2  501    0  0.10587286206E+01  0.12127041170E+03 -0.12477152517E+03  0.17399875619E+03  0.00000000000E+00 0. -1.
          1    1    1    2  502    0 -0.27004826770E+02 -0.35312819473E+00  0.46017875849E+03  0.46097057947E+03  0.00000000000E+00 0. -1.
         22    1    3    3    0    0  0.31715897100E+02 -0.10517026571E+03  0.24018089729E+03  0.26410896679E+03  0.00000000000E+00 0.  1.
         22    1    3    3    0    0 -0.57697989504E+01 -0.15747017800E+02 -0.14373382609E+02  0.22087400869E+02  0.00000000000E+00 0.  1.
</event>
<event>
 7    1  0.6235964E-006  0.8250555E+02  0.7818608E-02  0.1493332E+00
          2   -1    0    0  502    0  0.00000000000E+00  0.00000000000E+00  0.60621635093E+03  0.60621635093E+03  0.00000000000E+00 0. -1.
          1   -1    0    0  501    0 -0.00000000000E+00 -0.00000000000E+00 -0.19129971042E+04  0.19129971042E+04  0.00000000000E+00 0. -1.
         25    2    1    2    0    0 -0.13677960300E+02 -0.76363539650E+02  0.54677203549E+02  0.15694823023E+03  0.12499869439E+03 0.  0.
          2    1    1    2  501    0  0.35094601930E+02  0.74741661564E+02 -0.18607151149E+04  0.18625462909E+04  0.00000000000E+00 0. -1.
          1    1    1    2  502    0 -0.21416641630E+02  0.16218780858E+01  0.49925715810E+03  0.49971893394E+03  0.00000000000E+00 0. -1.
         22    1    3    3    0    0  0.15823984690E+02  0.75713508986E+01 -0.29595058262E+02  0.34403362037E+02  0.00000000000E+00 0. -1.
         22    1    3    3    0    0 -0.29501944990E+02 -0.83934890548E+02  0.84272261811E+02  0.12254486819E+03  0.00000000000E+00 0. -1.
</event>
<event>
 7    1  0.6235964E-006  0.1018107E+03  0.7818608E-02  0.1392267E+00
          2   -1    0    0  502    0  0.00000000000E+00  0.00000000000E+00  0.33229961506E+04  0.33229961506E+04  0.00000000000E+00 0. -1.
          1   -1    0    0  501    0 -0.00000000000E+00 -0.00000000000E+00 -0.12215712436E+03  0.12215712436E+03  0.00000000000E+00 0. -1.
         25    2    1    2    0    0  0.66949529611E+02 -0.16593556079E+02  0.11679151640E+03  0.18444984586E+03  0.12499560679E+03 0.  0.
          2    1    1    2  501    0  0.26585048833E+02 -0.25682644085E+02 -0.83592600288E+02  0.91400688464E+02  0.00000000000E+00 0. -1.
          1    1    1    2  502    0 -0.93534578444E+02  0.42276200164E+02  0.31676401101E+04  0.31693027406E+04  0.00000000000E+00 0. -1.
         22    1    3    3    0    0 -0.24494566503E+01 -0.48306713731E+02  0.43503585462E+01  0.48564020106E+02  0.00000000000E+00 0. -1.
         22    1    3    3    0    0  0.69398986261E+02  0.31713157651E+02  0.11244115785E+03  0.13588582576E+03  0.00000000000E+00 0. -1.
</event>
<event>
 7    1  0.6235964E-006  0.1066004E+03  0.7818608E-02  0.1345976E+00
          2   -1    0    0  502    0  0.00000000000E+00  0.00000000000E+00  0.16245993789E+03  0.16245993789E+03  0.00000000000E+00 0. -1.
          1   -1    0    0  501    0 -0.00000000000E+00 -0.00000000000E+00 -0.41370705893E+03  0.41370705893E+03  0.00000000000E+00 0. -1.
         25    2    1    2    0    0 -0.55961040193E+02 -0.13097768912E+03  0.20040580196E+02  0.19055975295E+03  0.12499840608E+03 0.  0.
          2    1    1    2  501    0  0.23801729020E+02  0.46031139421E+02 -0.28853706679E+03  0.29315358946E+03  0.00000000000E+00 0. -1.
          1    1    1    2  502    0  0.32159311174E+02  0.84946549701E+02  0.17249365552E+02  0.92453654407E+02  0.00000000000E+00 0. -1.
         22    1    3    3    0    0 -0.64306394783E+02 -0.13773868463E+03  0.48967650868E+02  0.15970312609E+03  0.00000000000E+00 0.  1.
         22    1    3    3    0    0  0.83453545893E+01  0.67609955034E+01 -0.28927070672E+02  0.30856626859E+02  0.00000000000E+00 0.  1.
</event>
<event>
 7    1  0.6235964E-006  0.7428484E+02  0.7818608E-02  0.1361581E+00
          2   -1    0    0  502    0  0.00000000000E+00  0.00000000000E+00  0.19739438596E+04  0.19739438596E+04  0.00000000000E+00 0. -1.
          1   -1    0    0  501    0 -0.00000000000E+00 -0.00000000000E+00 -0.18359468210E+03  0.18359468210E+03  0.00000000000E+00 0. -1.
         25    2    1    2    0    0  0.76880678914E+00  0.10259766275E+02  0.51578100127E+03  0.53081180750E+03  0.12500111937E+03 0.  0.
          2    1    1    2  501    0 -0.17724041325E+02 -0.73158556116E+02 -0.16726496664E+03  0.18342269499E+03  0.00000000000E+00 0. -1.
          1    1    1    2  502    0  0.16955234536E+02  0.62898789840E+02  0.14418331429E+04  0.14433040392E+04  0.00000000000E+00 0. -1.
         22    1    3    3    0    0  0.51993867947E+02  0.21895206304E+02  0.13339212125E+03  0.14483169672E+03  0.00000000000E+00 0.  1.
         22    1    3    3    0    0 -0.51225061158E+02 -0.11635440029E+02  0.38238888002E+03  0.38598011078E+03  0.00000000000E+00 0.  1.
</event>
<event>
 7    1  0.6235964E-006  0.9469516E+02  0.7818608E-02  0.1429758E+00
          2   -1    0    0  502    0  0.00000000000E+00  0.00000000000E+00  0.72740656686E+03  0.72740656686E+03  0.00000000000E+00 0. -1.
          1   -1    0    0  501    0 -0.00000000000E+00 -0.00000000000E+00 -0.32396525617E+03  0.32396525617E+03  0.00000000000E+00 0. -1.
         25    2    1    2    0    0 -0.59511250841E+01  0.72708567131E+02  0.14963451659E+03  0.20817599512E+03  0.12499921906E+03 0.  0.
          2    1    1    2  501    0 -0.19988791113E+02  0.21930653296E+02 -0.28954118028E+03  0.29105772693E+03  0.00000000000E+00 0. -1.
          1    1    1    2  502    0  0.25939916197E+02 -0.94639220427E+02  0.54334797438E+03  0.55213810099E+03  0.00000000000E+00 0. -1.
         22    1    3    3    0    0  0.12194364886E+02 -0.33364247565E+02  0.24604659746E+02  0.43211859851E+02  0.00000000000E+00 0.  1.
         22    1    3    3    0    0 -0.18145489970E+02  0.10607281470E+03  0.12502985684E+03  0.16496413527E+03  0.00000000000E+00 0.  1.
</event>
<event>
 7    1  0.6235964E-006  0.3070609E+03  0.7818608E-02  0.1254576E+00
          2   -1    0    0  502    0  0.00000000000E+00  0.00000000000E+00  0.35557037341E+03  0.35557037341E+03  0.00000000000E+00 0. -1.
          1   -1    0    0  501    0 -0.00000000000E+00 -0.00000000000E+00 -0.15527640799E+04  0.15527640799E+04  0.00000000000E+00 0. -1.
         25    2    1    2    0    0 -0.67176334091E+02 -0.28435154372E+03 -0.33894660983E+03  0.46462722439E+03  0.12500077219E+03 0.  0.
          2    1    1    2  501    0 -0.41282918663E+02 -0.65964560726E+01 -0.10681125591E+04  0.10689304147E+04  0.00000000000E+00 0. -1.
          1    1    1    2  502    0  0.10845925275E+03  0.29094799980E+03  0.20986546248E+03  0.37477681417E+03  0.00000000000E+00 0. -1.
         22    1    3    3    0    0 -0.96342490782E+02 -0.17137766528E+03 -0.24925753548E+03  0.31746101915E+03  0.00000000000E+00 0. -1.
         22    1    3    3    0    0  0.29166156690E+02 -0.11297387845E+03 -0.89689074354E+02  0.14716620524E+03  0.00000000000E+00 0. -1.
</event>
<event>
 7    1  0.6235964E-006  0.2203535E+03  0.7818608E-02  0.1135974E+00
          2   -1    0    0  502    0  0.00000000000E+00  0.00000000000E+00  0.14473319588E+04  0.14473319588E+04  0.00000000000E+00 0. -1.
          1   -1    0    0  501    0 -0.00000000000E+00 -0.00000000000E+00 -0.83880358458E+03  0.83880358458E+03  0.00000000000E+00 0. -1.
         25    2    1    2    0    0  0.86909895300E+02 -0.28763062622E+03  0.25198215808E+03  0.41158886222E+03  0.12500270587E+03 0.  0.
          2    1    1    2  501    0 -0.19213257398E+03  0.94531332711E+02 -0.73268741099E+03  0.76333606037E+03  0.00000000000E+00 0. -1.
          1    1    1    2  502    0  0.10522267868E+03  0.19309929351E+03  0.10892336272E+04  0.11112106208E+04  0.00000000000E+00 0. -1.
         22    1    3    3    0    0 -0.12150554731E+02 -0.15070993201E+03  0.82478293091E+02  0.17223178690E+03  0.00000000000E+00 0. -1.
         22    1    3    3    0    0  0.99060450032E+02 -0.13692069421E+03  0.16950386498E+03  0.23935707532E+03  0.00000000000E+00 0. -1.
</event>
<event>
 7    1  0.6235964E-006  0.8238620E+02  0.7818608E-02  0.1479542E+00
          2   -1    0    0  502    0  0.00000000000E+00  0.00000000000E+00  0.30527721538E+03  0.30527721538E+03  0.00000000000E+00 0. -1.
          1   -1    0    0  501    0 -0.00000000000E+00 -0.00000000000E+00 -0.12557674252E+04  0.12557674252E+04  0.00000000000E+00 0. -1.
         25    2    1    2    0    0  0.10249124983E+02  0.10063549101E+03 -0.55456171382E+03  0.57740471787E+03  0.12499986871E+03 0.  0.
          2    1    1    2  501    0 -0.14690958406E+02 -0.77366506162E+02 -0.68705394667E+03  0.69155225845E+03  0.00000000000E+00 0. -1.
          1    1    1    2  502    0  0.44418334225E+01 -0.23268984843E+02  0.29112545070E+03  0.29208766422E+03  0.00000000000E+00 0. -1.
         22    1    3    3    0    0 -0.91358075419E+01  0.11995995680E+03 -0.33123170278E+03  0.35240359695E+03  0.00000000000E+00 0.  1.
         22    1    3    3    0    0  0.19384932525E+02 -0.19324465797E+02 -0.22333001104E+03  0.22500112092E+03  0.00000000000E+00 0.  1.
</event>
<event>
 7    1  0.6235964E-006  0.2085978E+03  0.7818608E-02  0.1268381E+00
          2   -1    0    0  502    0  0.00000000000E+00  0.00000000000E+00  0.12074340036E+03  0.12074340036E+03  0.00000000000E+00 0. -1.
          1   -1    0    0  501    0 -0.00000000000E+00 -0.00000000000E+00 -0.12601133007E+04  0.12601133007E+04  0.00000000000E+00 0. -1.
         25    2    1    2    0    0 -0.13647747030E+03 -0.11927514709E+03 -0.88974877525E+03  0.91658621733E+03  0.12499900053E+03 0.  0.
          2    1    1    2  501    0  0.11598663200E+02 -0.52483820796E+02 -0.24608134619E+03  0.25188312642E+03  0.00000000000E+00 0. -1.
          1    1    1    2  502    0  0.12487880710E+03  0.17175896789E+03 -0.35397789048E+01  0.21238735732E+03  0.00000000000E+00 0. -1.
         22    1    3    3    0    0 -0.22164902590E+01 -0.74838234511E+02 -0.39443565352E+03  0.40147871543E+03  0.00000000000E+00 0.  1.
         22    1    3    3    0    0 -0.13426098004E+03 -0.44436912583E+02 -0.49531312173E+03  0.51510750191E+03  0.00000000000E+00 0.  1.
</event>
<event>
 7    1  0.6235964E-006  0.2088966E+03  0.7818608E-02  0.1181959E+00
          2   -1    0    0  502    0  0.00000000000E+00  0.00000000000E+00  0.16782282945E+04  0.16782282945E+04  0.00000000000E+00 0. -1.
          1   -1    0    0  501    0 -0.00000000000E+00 -0.00000000000E+00 -0.90952923866E+03  0.90952923866E+03  0.00000000000E+00 0. -1.
         25    2    1    2    0    0  0.23871052047E+03 -0.19683184188E+03 -0.84005220224E+02  0.34410079611E+03  0.12499197693E+03 0.  0.
          2    1    1    2  501    0 -0.18371140157E+03  0.76727733927E+02 -0.67832547562E+03  0.70693880576E+03  0.00000000000E+00 0. -1.
          1    1    1    2  502    0 -0.54999118897E+02  0.12010410796E+03  0.15310297517E+04  0.15367179313E+04  0.00000000000E+00 0. -1.
         22    1    3    3    0    0  0.24989344955E+03 -0.17725713916E+03 -0.61979611021E+02  0.31258327161E+03  0.00000000000E+00 0.  1.
         22    1    3    3    0    0 -0.11182929080E+02 -0.19574702726E+02 -0.22025609203E+02  0.31517524496E+02  0.00000000000E+00 0.  1.
</event>
<event>
 7    1  0.6235964E-006  0.1763669E+03  0.7818608E-02  0.1265292E+00
          2   -1    0    0  502    0  0.00000000000E+00  0.00000000000E+00  0.14164327458E+04  0.14164327458E+04  0.00000000000E+00 0. -1.
          1   -1    0    0  501    0 -0.00000000000E+00 -0.00000000000E+00 -0.36549088547E+03  0.36549088547E+03  0.00000000000E+00 0. -1.
         25    2    1    2    0    0  0.10892420490E+03 -0.16791817646E+03  0.41176331260E+03  0.47458809010E+03  0.12499533296E+03 0.  0.
          2    1    1    2  501    0  0.25828478171E+02  0.60203694669E+02 -0.32312099067E+03  0.32969496470E+03  0.00000000000E+00 0. -1.
          1    1    1    2  502    0 -0.13475268307E+03  0.10771448179E+03  0.96229953843E+03  0.97764057651E+03  0.00000000000E+00 0. -1.
         22    1    3    3    0    0  0.39750309062E+02 -0.25425099986E+02  0.18604710928E+02  0.50721376643E+02  0.00000000000E+00 0. -1.
         22    1    3    3    0    0  0.69173895839E+02 -0.14249307647E+03  0.39315860167E+03  0.42386671346E+03  0.00000000000E+00 0. -1.
</event>
<event>
 7    1  0.6235964E-006  0.9773855E+02  0.7818608E-02  0.1478833E+00
          2   -1    0    0  502    0  0.00000000000E+00  0.00000000000E+00  0.18148707843E+04  0.18148707843E+04  0.00000000000E+00 0. -1.
          1   -1    0    0  501    0 -0.00000000000E+00 -0.00000000000E+00 -0.12542968251E+04  0.12542968251E+04  0.00000000000E+00 0. -1.
         25    2    1    2    0    0  0.58649614129E+02 -0.57554383116E+02  0.62747871450E+02  0.16221635502E+03  0.12499826484E+03 0.  0.
          2    1    1    2  501    0  0.20032190542E+02 -0.12069908893E+01 -0.12030626228E+04  0.12032299946E+04  0.00000000000E+00 0. -1.
          1    1    1    2  502    0 -0.78681804671E+02  0.58761374005E+02  0.17008887105E+04  0.17037212598E+04  0.00000000000E+00 0. -1.
         22    1    3    3    0    0 -0.39148441462E+02 -0.25254031801E+02  0.20306505494E+02  0.50820475760E+02  0.00000000000E+00 0.  1.
         22    1    3    3    0    0  0.97798055591E+02 -0.32300351315E+02  0.42441365956E+02  0.11139587926E+03  0.00000000000E+00 0.  1.
</event>
<event>
 7    1  0.6235964E-006  0.1919841E+03  0.7818608E-02  0.1282660E+00
          2   -1    0    0  502    0  0.00000000000E+00  0.00000000000E+00  0.15135063582E+04  0.15135063582E+04  0.00000000000E+00 0. -1.
          1   -1    0    0  501    0 -0.00000000000E+00 -0.00000000000E+00 -0.14891123769E+04  0.14891123769E+04  0.00000000000E+00 0. -1.
         25    2    1    2    0    0  0.21925903600E+03 -0.74751101717E+02  0.41560652435E+03  0.49195307755E+03  0.12500718124E+03 0.  0.
          2    1    1    2  501    0 -0.50924124551E+02  0.86975612384E+00 -0.14425136933E+04  0.14434125461E+04  0.00000000000E+00 0. -1.
          1    1    1    2  502    0 -0.16833491145E+03  0.73881345593E+02  0.10513011502E+04  0.10672531115E+04  0.00000000000E+00 0. -1.
         22    1    3    3    0    0  0.28270543847E+02 -0.66195429780E+02  0.11872991629E+03  0.13884470316E+03  0.00000000000E+00 0.  1.
         22    1    3    3    0    0  0.19098849215E+03 -0.85556719370E+01  0.29687660806E+03  0.35310837440E+03  0.00000000000E+00 0.  1.
</event>
<event>
 7    1  0.6235964E-006  0.8387175E+02  0.7818608E-02  0.1440583E+00
          2   -1    0    0  502    0  0.00000000000E+00  0.00000000000E+00  0.14117325292E+04  0.14117325292E+04  0.00000000000E+00 0. -1.
          1   -1    0    0  501    0 -0.00000000000E+00 -0.00000000000E+00 -0.38155391798E+02  0.38155391798E+02  0.00000000000E+00 0. -1.
         25    2    1    2    0    0 -0.10285693760E+03  0.52847673958E+01  0.12617700323E+04  0.12721227348E+04  0.12500063840E+03 0.  0.
          2    1    1    2  501    0  0.81410635217E+02  0.16935671176E+02  0.26868296354E+02  0.87386576964E+02  0.00000000000E+00 0. -1.
          1    1    1    2  502    0  0.21446302386E+02 -0.22220438572E+02  0.84938808781E+02  0.90378609270E+02  0.00000000000E+00 0. -1.
         22    1    3    3    0    0 -0.12447647645E+03 -0.20943921776E+02  0.10628987170E+04  0.10703675648E+04  0.00000000000E+00 0. -1.
         22    1    3    3    0    0  0.21619538847E+02  0.26228689171E+02  0.19887131526E+03  0.20175517001E+03  0.00000000000E+00 0. -1.
</event>
<event>
 7    1  0.6235964E-006  0.8956015E+02  0.7818608E-02  0.1390108E+00
          2   -1    0    0  502    0  0.00000000000E+00  0.00000000000E+00  0.23703919326E+04  0.23703919326E+04  0.00000000000E+00 0. -1.
          1   -1    0    0  501    0 -0.00000000000E+00 -0.00000000000E+00 -0.12620414525E+03  0.12620414525E+03  0.00000000000E+00 0. -1.
         25    2    1    2    0    0 -0.10083131281E+03 -0.54425367382E+02  0.22618396849E+03  0.28269097593E+03  0.12500370400E+03 0.  0.
          2    1    1    2  501    0  0.86944166964E+02  0.13988964477E+02 -0.77895391922E+02  0.11756985744E+03  0.00000000000E+00 0. -1.
          1    1    1    2  502    0  0.13887145846E+02  0.40436402905E+02  0.20958992107E+04  0.20963352444E+04  0.00000000000E+00 0. -1.
         22    1    3    3    0    0 -0.24614981388E+02 -0.24028172391E+02  0.18986887405E+03  0.19295968416E+03  0.00000000000E+00 0. -1.
         22    1    3    3    0    0 -0.76216331422E+02 -0.30397194990E+02  0.36315094438E+02  0.89731291770E+02  0.00000000000E+00 0. -1.
</event>
<event>
 7    1  0.6235964E-006  0.2465803E+02  0.7818608E-02  0.1666174E+00
          2   -1    0    0  502    0  0.00000000000E+00  0.00000000000E+00  0.66084283560E+02  0.66084283560E+02  0.00000000000E+00 0. -1.
          1   -1    0    0  501    0 -0.00000000000E+00 -0.00000000000E+00 -0.12791135891E+04  0.12791135891E+04  0.00000000000E+00 0. -1.
         25    2    1    2    0    0 -0.58346924848E+01  0.17785433791E+02 -0.13695362690E+03  0.18635856219E+03  0.12499140966E+03 0.  0.
          2    1    1    2  501    0 -0.19123515723E+02 -0.15520608776E+02 -0.11135146064E+04  0.11137869531E+04  0.00000000000E+00 0. -1.
          1    1    1    2  502    0  0.24958208208E+02 -0.22648250150E+01  0.37438927799E+02  0.45052357364E+02  0.00000000000E+00 0. -1.
         22    1    3    3    0    0  0.43767771412E+02 -0.29437747478E+02 -0.34168376936E+02  0.62846453944E+02  0.00000000000E+00 0.  1.
         22    1    3    3    0    0 -0.49602463897E+02  0.47223181269E+02 -0.10278524996E+03  0.12351210825E+03  0.00000000000E+00 0.  1.
</event>
<event>
 7    1  0.6235964E-006  0.6383899E+02  0.7818608E-02  0.1399203E+00
          2   -1    0    0  502    0  0.00000000000E+00  0.00000000000E+00  0.10335104348E+04  0.10335104348E+04  0.00000000000E+00 0. -1.
          1   -1    0    0  501    0 -0.00000000000E+00 -0.00000000000E+00 -0.13746760928E+03  0.13746760928E+03  0.00000000000E+00 0. -1.
         25    2    1    2    0    0  0.29855317522E+02 -0.62841346571E+02  0.26743023942E+02  0.14553112406E+03  0.12499497557E+03 0.  0.
          2    1    1    2  501    0 -0.63634886234E+02  0.18450573803E+02 -0.63031550044E+02  0.91448339080E+02  0.00000000000E+00 0. -1.
          1    1    1    2  502    0  0.33779568712E+02  0.44390772768E+02  0.93233135158E+03  0.93399858089E+03  0.00000000000E+00 0. -1.
         22    1    3    3    0    0  0.78832634989E+02 -0.39081852527E+02  0.23115976871E+02  0.90974303641E+02  0.00000000000E+00 0.  1.
         22    1    3    3    0    0 -0.48977317467E+02 -0.23759494043E+02  0.36270470712E+01  0.54556820416E+02  0.00000000000E+00 0.  1.
</event>
<event>
 7    1  0.6235964E-006  0.6107437E+02  0.7818608E-02  0.1496982E+00
          2   -1    0    0  502    0  0.00000000000E+00  0.00000000000E+00  0.60514546975E+03  0.60514546975E+03  0.00000000000E+00 0. -1.
          1   -1    0    0  501    0 -0.00000000000E+00 -0.00000000000E+00 -0.16180364543E+04  0.16180364543E+04  0.00000000000E+00 0. -1.
         25    2    1    2    0    0 -0.39728103606E+02 -0.98357113666E+01 -0.14240289168E+03  0.19385186654E+03  0.12499959668E+03 0.  0.
          2    1    1    2  501    0 -0.95418979004E+01 -0.26633641496E+02 -0.14481492749E+04  0.14484256008E+04  0.00000000000E+00 0. -1.
          1    1    1    2  502    0  0.49270001507E+02  0.36469352863E+02  0.57766118196E+03  0.58090445677E+03  0.00000000000E+00 0. -1.
         22    1    3    3    0    0 -0.28005679116E+02 -0.99825013737E+01  0.16845728621E+02  0.34172312904E+02  0.00000000000E+00 0. -1.
         22    1    3    3    0    0 -0.11722424490E+02  0.14679000710E+00 -0.15924862030E+03  0.15967955364E+03  0.00000000000E+00 0. -1.
</event>
<event>
 7    1  0.6235964E-006  0.7607360E+02  0.7818608E-02  0.1409171E+00
          2   -1    0    0  502    0  0.00000000000E+00  0.00000000000E+00  0.69729316722E+02  0.69729316722E+02  0.00000000000E+00 0. -1.
          1   -1    0    0  501    0 -0.00000000000E+00 -0.00000000000E+00 -0.10517049280E+04  0.10517049280E+04  0.00000000000E+00 0. -1.
         25    2    1    2    0    0  0.29039907398E+01 -0.59430181807E+02 -0.23807567014E+03  0.27540006096E+03  0.12499915678E+03 0.  0.
          2    1    1    2  501    0 -0.45942871931E+02  0.63979910660E+02 -0.78345391119E+03  0.78740345911E+03  0.00000000000E+00 0. -1.
          1    1    1    2  502    0  0.43038881192E+02 -0.45497288536E+01  0.39553970050E+02  0.58630724655E+02  0.00000000000E+00 0. -1.
         22    1    3    3    0    0  0.30373378793E+02  0.20046766815E+02 -0.14701205765E+03  0.15144952986E+03  0.00000000000E+00 0. -1.
         22    1    3    3    0    0 -0.27469388054E+02 -0.79476948622E+02 -0.91063612484E+02  0.12395053110E+03  0.00000000000E+00 0. -1.
</event>
<event>
 7    1  0.6235964E-006  0.7934311E+02  0.7818608E-02  0.1346725E+00
          2   -1    0    0  502    0  0.00000000000E+00  0.00000000000E+00  0.14004307564E+04  0.14004307564E+04  0.00000000000E+00 0. -1.
          1   -1    0    0  501    0 -0.00000000000E+00 -0.00000000000E+00 -0.15800051069E+03  0.15800051069E+03  0.00000000000E+00 0. -1.
         25    2    1    2    0    0  0.90724939182E+01  0.48404561157E+00  0.50069524777E+03  0.51614218821E+03  0.12499793142E+03 0.  0.
          2    1    1    2  501    0  0.59825400392E+02 -0.52117655778E+02 -0.13755292739E+03  0.15879589545E+03  0.00000000000E+00 0. -1.
          1    1    1    2  502    0 -0.68897894310E+02  0.51633610166E+02  0.87928792533E+03  0.88349318343E+03  0.00000000000E+00 0. -1.
         22    1    3    3    0    0 -0.35232211802E+02  0.20494829119E+02  0.41972163119E+03  0.42169609254E+03  0.00000000000E+00 0.  1.
         22    1    3    3    0    0  0.44304705720E+02 -0.20010783507E+02  0.80973616579E+02  0.94446095670E+02  0.00000000000E+00 0.  1.
</event>
<event>
 7    1  0.6235964E-006  0.1098764E+03  0.7818608E-02  0.1284812E+00
          2   -1    0    0  502    0  0.00000000000E+00  0.00000000000E+00  0.27189501023E+04  0.27189501023E+04  0.00000000000E+00 0. -1.
          1   -1    0    0  501    0 -0.00000000000E+00 -0.00000000000E+00 -0.45627433173E+03  0.45627433173E+03  0.00000000000E+00 0. -1.
         25    2    1    2    0    0 -0.10108982086E+03 -0.12512348109E+03  0.83747822140E+03  0.86189886503E+03  0.12499937924E+03 0.  0.
          2    1    1    2  501    0  0.15480507541E+02  0.10855042960E+03 -0.43625914209E+03  0.44982761247E+03  0.00000000000E+00 0. -1.
          1    1    1    2  502    0  0.85609313315E+02  0.16573051488E+02  0.18614566913E+04  0.18634979565E+04  0.00000000000E+00 0. -1.
         22    1    3    3    0    0  0.17510091937E+02 -0.14207924835E+02  0.26372609553E+02  0.34698457925E+02  0.00000000000E+00 0. -1.
         22    1    3    3    0    0 -0.11859991279E+03 -0.11091555625E+03  0.81110561185E+03  0.82720040710E+03  0.00000000000E+00 0. -1.
</event>
<event>
 7    1  0.6235964E-006  0.2813988E+03  0.7818608E-02  0.1178243E+00
          2   -1    0    0  502    0  0.00000000000E+00  0.00000000000E+00  0.86225722194E+03  0.86225722194E+03  0.00000000000E+00 0. -1.
          1   -1    0    0  501    0 -0.00000000000E+00 -0.00000000000E+00 -0.65747356708E+03  0.65747356708E+03  0.00000000000E+00 0. -1.
         25    2    1    2    0    0 -0.40854419573E+02 -0.29461521325E+03  0.11577416114E+03  0.34277637559E+03  0.12499911919E+03 0.  0.
          2    1    1    2  501    0  0.13205797033E+03  0.24840067471E+03 -0.50292199165E+03  0.57625752265E+03  0.00000000000E+00 0. -1.
          1    1    1    2  502    0 -0.91203550760E+02  0.46214538535E+02  0.59193148536E+03  0.60069689079E+03  0.00000000000E+00 0. -1.
         22    1    3    3    0    0 -0.52845075939E+02 -0.30322767327E+03  0.10893988636E+03  0.32650807452E+03  0.00000000000E+00 0.  1.
         22    1    3    3    0    0  0.11990656366E+02  0.86124600259E+01  0.68342747768E+01  0.16268301064E+02  0.00000000000E+00 0.  1.
</event>
<event>
 7    1  0.6235964E-006  0.1017351E+03  0.7818608E-02  0.1355677E+00
          2   -1    0    0  502    0  0.00000000000E+00  0.00000000000E+00  0.58238836206E+03  0.58238836206E+03  0.00000000000E+00 0. -1.
          1   -1    0    0  501    0 -0.00000000000E+00 -0.00000000000E+00 -0.18598427191E+03  0.18598427191E+03  0.00000000000E+00 0. -1.
         25    2    1    2    0    0  0.45804867492E+02 -0.67930020559E+02  0.23940799835E+02  0.15135618382E+03  0.12499183536E+03 0.  0.
          2    1    1    2  501    0 -0.34944209273E+02 -0.35749090585E+02 -0.11137256828E+03  0.12207761549E+03  0.00000000000E+00 0. -1.
          1    1    1    2  502    0 -0.10860658219E+02  0.10367911114E+03  0.48383585859E+03  0.49493883465E+03  0.00000000000E+00 0. -1.
         22    1    3    3    0    0  0.87100499168E+02 -0.62504155261E+02  0.23255551118E+02  0.10969998650E+03  0.00000000000E+00 0.  1.
         22    1    3    3    0    0 -0.41295631677E+02 -0.54258652982E+01  0.68524871717E+00  0.41656197325E+02  0.00000000000E+00 0.  1.
</event>
<event>
 7    1  0.6235964E-006  0.2193213E+03  0.7818608E-02  0.1239387E+00
          2   -1    0    0  502    0  0.00000000000E+00  0.00000000000E+00  0.21469416634E+03  0.21469416634E+03  0.00000000000E+00 0. -1.
          1   -1    0    0  501    0 -0.00000000000E+00 -0.00000000000E+00 -0.11429909135E+04  0.11429909135E+04  0.00000000000E+00 0. -1.
         25    2    1    2    0    0  0.76705105025E+00  0.63671271392E+02  0.13269615165E+03  0.19310211356E+03  0.12500215371E+03 0.  0.
          2    1    1    2  501    0 -0.21436084684E+03  0.46381667283E+02 -0.67671464119E+03  0.71136807443E+03  0.00000000000E+00 0. -1.
          1    1    1    2  502    0  0.21359379579E+03 -0.11005293867E+03 -0.38427825758E+03  0.45321489182E+03  0.00000000000E+00 0. -1.
         22    1    3    3    0    0  0.62688083359E+02  0.35302937406E+02  0.73693873478E+02  0.10298970906E+03  0.00000000000E+00 0. -1.
         22    1    3    3    0    0 -0.61921032309E+02  0.28368333986E+02  0.59002278168E+02  0.90112404498E+02  0.00000000000E+00 0. -1.
</event>
<event>
 7    1  0.6235964E-006  0.7225017E+02  0.7818608E-02  0.1390160E+00
          2   -1    0    0  502    0  0.00000000000E+00  0.00000000000E+00  0.14920999670E+03  0.14920999670E+03  0.00000000000E+00 0. -1.
          1   -1    0    0  501    0 -0.00000000000E+00 -0.00000000000E+00 -0.10727985016E+04  0.10727985016E+04  0.00000000000E+00 0. -1.
         25    2    1    2    0    0  0.11330313119E+03 -0.10386992030E+02 -0.11647389647E+02  0.16943118784E+03  0.12500310631E+03 0.  0.
          2    1    1    2  501    0 -0.51597561199E+02 -0.12006250236E+02 -0.96605393906E+03  0.96750538579E+03  0.00000000000E+00 0. -1.
          1    1    1    2  502    0 -0.61705569990E+02  0.22393242266E+02  0.54112823797E+02  0.85071924665E+02  0.00000000000E+00 0. -1.
         22    1    3    3    0    0  0.54274252566E+02  0.51375254799E+02 -0.32491394713E+02  0.81491116250E+02  0.00000000000E+00 0.  1.
         22    1    3    3    0    0  0.59028878623E+02 -0.61762246829E+02  0.20844005065E+02  0.87940071595E+02  0.00000000000E+00 0.  1.
</event>
<event>
 7    1  0.6235964E-006  0.4448596E+02  0.7818608E-02  0.1481970E+00
          2   -1    0    0  502    0  0.00000000000E+00  0.00000000000E+00  0.17096703453E+04  0.17096703453E+04  0.00000000000E+00 0. -1.
          1   -1    0    0  501    0 -0.00000000000E+00 -0.00000000000E+00 -0.16790903693E+03  0.16790903693E+03  0.00000000000E+00 0. -1.
         25    2    1    2    0    0  0.26058664638E+02  0.58677845049E+02  0.55965696411E+03  0.57703085147E+03  0.12500617015E+03 0.  0.
          2    1    1    2  501    0 -0.40623837906E+02 -0.18085826661E+02 -0.15570083155E+03  0.16192634832E+03  0.00000000000E+00 0. -1.
          1    1    1    2  502    0  0.14565173267E+02 -0.40592018388E+02  0.11378051759E+04  0.11386221825E+04  0.00000000000E+00 0. -1.
         22    1    3    3    0    0  0.37108447880E+02  0.43849186251E+02  0.88483604125E+02  0.10549472137E+03  0.00000000000E+00 0.  1.
         22    1    3    3    0    0 -0.11049783242E+02  0.14828658797E+02  0.47117335998E+03  0.47153613010E+03  0.00000000000E+00 0.  1.
</event>
<event>
 7    1  0.6235964E-006  0.6685367E+02  0.7818608E-02  0.1524543E+00
          2   -1    0    0  502    0  0.00000000000E+00  0.00000000000E+00  0.21967181237E+04  0.21967181237E+04  0.00000000000E+00 0. -1.
          1   -1    0    0  501    0 -0.00000000000E+00 -0.00000000000E+00 -0.92467113020E+03  0.92467113020E+03  0.00000000000E+00 0. -1.
         25    2    1    2    0    0 -0.40264226955E+02  0.34786709354E+02  0.61949039761E+03  0.63421197694E+03  0.12500062335E+03 0.  0.
          2    1    1    2  501    0  0.60663064568E+02 -0.28168871880E+02 -0.91601775878E+03  0.91845632839E+03  0.00000000000E+00 0. -1.
          1    1    1    2  502    0 -0.20398837613E+02 -0.66178374742E+01  0.15685743546E+04  0.15687209485E+04  0.00000000000E+00 0. -1.
         22    1    3    3    0    0 -0.74543293601E+02  0.54726562180E+02  0.35894722219E+03  0.37066805574E+03  0.00000000000E+00 0. -1.
         22    1    3    3    0    0  0.34279066646E+02 -0.19939852826E+02  0.26054317543E+03  0.26354392120E+03  0.00000000000E+00 0. -1.
</event>
<event>
 7    1  0.6235964E-006  0.1132704E+03  0.7818608E-02  0.1294227E+00
          2   -1    0    0  502    0  0.00000000000E+00  0.00000000000E+00  0.24507828681E+04  0.24507828681E+04  0.00000000000E+00 0. -1.
          1   -1    0    0  501    0 -0.00000000000E+00 -0.00000000000E+00 -0.18653419539E+04  0.18653419539E+04  0.00000000000E+00 0. -1.
         25    2    1    2    0    0  0.60974851013E+02  0.13969286589E+03  0.12060181443E+04  0.12220217480E+04  0.12500143555E+03 0.  0.
          2    1    1    2  501    0 -0.69494553745E+02 -0.34171896460E+02 -0.18542650107E+04  0.18558814459E+04  0.00000000000E+00 0. -1.
          1    1    1    2  502    0  0.85197027313E+01 -0.10552096943E+03  0.12336877805E+04  0.12382216280E+04  0.00000000000E+00 0. -1.
         22    1    3    3    0    0  0.30957468383E+02  0.13749617552E+03  0.11484016262E+04  0.11570176568E+04  0.00000000000E+00 0. -1.
         22    1    3    3    0    0  0.30017382630E+02  0.21966903674E+01  0.57616518125E+02  0.65004091174E+02  0.00000000000E+00 0. -1.
</event>
<event>
 7    1  0.6235964E-006  0.9008609E+02  0.7818608E-02  0.1407600E+00
          2   -1    0    0  502    0  0.00000000000E+00  0.00000000000E+00  0.17146041393E+03  0.17146041393E+03  0.00000000000E+00 0. -1.
          1   -1    0    0  501    0 -0.00000000000E+00 -0.00000000000E+00 -0.78653330498E+03  0.78653330498E+03  0.00000000000E+00 0. -1.
         25    2    1    2    0    0  0.12058887225E+03  0.24945499477E+01 -0.17791858611E+03  0.24864478804E+03  0.12498523291E+03 0.  0.
          2    1    1    2  501    0 -0.85943879836E+02 -0.15480218254E+02 -0.56733299040E+03  0.57401455524E+03  0.00000000000E+00 0. -1.
          1    1    1    2  502    0 -0.34644992416E+02  0.12985668306E+02  0.13017868545E+03  0.13533437563E+03  0.00000000000E+00 0. -1.
         22    1    3    3    0    0  0.11970788168E+03 -0.29003373055E+02 -0.82729036875E+02  0.14837542292E+03  0.00000000000E+00 0. -1.
         22    1    3    3    0    0  0.88099057027E+00  0.31497923002E+02 -0.95189549236E+02  0.10026936512E+03  0.00000000000E+00 0. -1.
</event>
<event>
 7    1  0.6235964E-006  0.8322584E+02  0.7818608E-02  0.1472464E+00
          2   -1    0    0  502    0  0.00000000000E+00  0.00000000000E+00  0.93711978765E+02  0.93711978765E+02  0.00000000000E+00 0. -1.
          1   -1    0    0  501    0 -0.00000000000E+00 -0.00000000000E+00 -0.56825913996E+03  0.56825913996E+03  0.00000000000E+00 0. -1.
         25    2    1    2    0    0  0.97701309911E+02 -0.30984099523E+02 -0.18138961486E+03  0.24296812354E+03  0.12500302514E+03 0.  0.
          2    1    1    2  501    0 -0.24424867095E+02 -0.33917174253E+01 -0.32939887500E+03  0.33032059689E+03  0.00000000000E+00 0. -1.
          1    1    1    2  502    0 -0.73276442816E+02  0.34375816948E+02  0.36241328670E+02  0.88682398290E+02  0.00000000000E+00 0. -1.
         22    1    3    3    0    0  0.70833109591E+02 -0.27650808569E+01 -0.15497245155E+02  0.72561282334E+02  0.00000000000E+00 0. -1.
         22    1    3    3    0    0  0.26868200319E+02 -0.28219018666E+02 -0.16589236971E+03  0.17040684121E+03  0.00000000000E+00 0. -1.
</event>
<event>
 7    1  0.6235964E-006  0.1135918E+03  0.7818608E-02  0.1297949E+00
          2   -1    0    0  502    0  0.00000000000E+00  0.00000000000E+00  0.43192680657E+03  0.43192680657E+03  0.00000000000E+00 0. -1.
          1   -1    0    0  501    0 -0.00000000000E+00 -0.00000000000E+00 -0.30673214777E+04  0.30673214777E+04  0.00000000000E+00 0. -1.
         25    2    1    2    0    0  0.10107100265E+03 -0.48481440776E+01 -0.65800247103E+02  0.17376296472E+03  0.12500017326E+03 0.  0.
          2    1    1    2  501    0 -0.84059723072E+02  0.77485375882E+02 -0.29427376333E+04  0.29449575207E+04  0.00000000000E+00 0. -1.
          1    1    1    2  502    0 -0.17011279575E+02 -0.72637231804E+02  0.37314320924E+03  0.38052779883E+03  0.00000000000E+00 0. -1.
         22    1    3    3    0    0  0.41346264973E+02  0.41191247797E+02 -0.77952781277E+02  0.97380021725E+02  0.00000000000E+00 0. -1.
         22    1    3    3    0    0  0.59724737674E+02 -0.46039391875E+02  0.12152534174E+02  0.76382942999E+02  0.00000000000E+00 0. -1.
</event>
<event>
 7    1  0.6235964E-006  0.1296470E+03  0.7818608E-02  0.1251869E+00
          2   -1    0    0  502    0  0.00000000000E+00  0.00000000000E+00  0.15294519542E+04  0.15294519542E+04  0.00000000000E+00 0. -1.
          1   -1    0    0  501    0 -0.00000000000E+00 -0.00000000000E+00 -0.11711353972E+04  0.11711353972E+04  0.00000000000E+00 0. -1.
         25    2    1    2    0    0  0.12547381355E+03  0.87632985536E+02 -0.86275926528E+00  0.19760767617E+03  0.12499932514E+03 0.  0.
          2    1    1    2  501    0 -0.12940702904E+03  0.14006455192E+02 -0.10661296112E+04  0.10740459523E+04  0.00000000000E+00 0. -1.
          1    1    1    2  502    0  0.39332154836E+01 -0.10163944073E+03  0.14253089274E+04  0.14289337230E+04  0.00000000000E+00 0. -1.
         22    1    3    3    0    0  0.14466096477E+03  0.68050298131E+02 -0.24093686059E+02  0.16167295232E+03  0.00000000000E+00 0.  1.
         22    1    3    3    0    0 -0.19187151221E+02  0.19582687405E+02  0.23230926794E+02  0.35934723843E+02  0.00000000000E+00 0.  1.
</event>
<event>
 7    1  0.1057483E-005  0.5965304E+02  0.7818608E-02  0.1488988E+00
          2   -1    0    0  502    0  0.00000000000E+00  0.00000000000E+00  0.19612805987E+04  0.19612805987E+04  0.00000000000E+00 0. -1.
          1   -1    0    0  501    0 -0.00000000000E+00 -0.00000000000E+00 -0.25434307676E+04  0.25434307676E+04  0.00000000000E+00 0. -1.
         25    2    1    2    0    0  0.11469100862E+02  0.85695510821E+02 -0.43130786861E+03  0.45730330273E+03  0.12499828925E+03 0.  0.
          2    1    1    2  501    0 -0.15799864097E+02 -0.26225610715E+02 -0.20985572621E+04  0.20987805986E+04  0.00000000000E+00 0. -1.
          1    1    1    2  502    0  0.43307632355E+01 -0.59469900107E+02  0.19477149619E+04  0.19486274650E+04  0.00000000000E+00 0. -1.
         22    1    3    3    0    0  0.51137791554E+02  0.41356452017E+02 -0.93605063970E+02  0.11439990319E+03  0.00000000000E+00 0. -1.
         22    1    3    3    0    0 -0.39668690692E+02  0.44339058804E+02 -0.33770280464E+03  0.34290339954E+03  0.00000000000E+00 0. -1.
</event>
<event>
 7    1  0.6235964E-006  0.7483532E+02  0.7818608E-02  0.1398175E+00
          2   -1    0    0  502    0  0.00000000000E+00  0.00000000000E+00  0.69077459562E+03  0.69077459562E+03  0.00000000000E+00 0. -1.
          1   -1    0    0  501    0 -0.00000000000E+00 -0.00000000000E+00 -0.65471355479E+03  0.65471355479E+03  0.00000000000E+00 0. -1.
         25    2    1    2    0    0 -0.17872499713E+02  0.22198391952E+02 -0.57536544088E+02  0.14051857510E+03  0.12499128446E+03 0.  0.
          2    1    1    2  501    0 -0.38605634470E+02  0.28480986440E+02 -0.55242569736E+03  0.55450492578E+03  0.00000000000E+00 0. -1.
          1    1    1    2  502    0  0.56478134183E+02 -0.50679378392E+02  0.64602328229E+03  0.65046464953E+03  0.00000000000E+00 0. -1.
         22    1    3    3    0    0  0.42855350186E+01 -0.47519628014E+02 -0.46339950691E+02  0.66512193521E+02  0.00000000000E+00 0. -1.
         22    1    3    3    0    0 -0.22158034731E+02  0.69718019966E+02 -0.11196593397E+02  0.74006381581E+02  0.00000000000E+00 0. -1.
</event>
<event>
 7    1  0.6235964E-006  0.6681174E+02  0.7818608E-02  0.1429911E+00
          2   -1    0    0  502    0  0.00000000000E+00  0.00000000000E+00  0.18737821815E+04  0.18737821815E+04  0.00000000000E+00 0. -1.
          1   -1    0    0  501    0 -0.00000000000E+00 -0.00000000000E+00 -0.49391765213E+02  0.49391765213E+02  0.00000000000E+00 0. -1.
         25    2    1    2    0    0  0.63845279248E+02 -0.17224005997E+02  0.75775415363E+03  0.77083637108E+03  0.12499787028E+03 0.  0.
          2    1    1    2  501    0  0.29321805342E+00  0.42007354669E+02 -0.31214322562E+02  0.52335817143E+02  0.00000000000E+00 0. -1.
          1    1    1    2  502    0 -0.64138497302E+02 -0.24783348672E+02  0.10978505852E+04  0.11000017584E+04  0.00000000000E+00 0. -1.
         22    1    3    3    0    0  0.63438384967E+02  0.45765812947E+02  0.43986183188E+03  0.44676321410E+03  0.00000000000E+00 0. -1.
         22    1    3    3    0    0  0.40689428115E+00 -0.62989818944E+02  0.31789232175E+03  0.32407315699E+03  0.00000000000E+00 0. -1.
</event>
<event>
 7    1  0.6235964E-006  0.1115507E+03  0.7818608E-02  0.1316653E+00
          2   -1    0    0  502    0  0.00000000000E+00  0.00000000000E+00  0.22844081306E+04  0.22844081306E+04  0.00000000000E+00 0. -1.
          1   -1    0    0  501    0 -0.00000000000E+00 -0.00000000000E+00 -0.52089291540E+03  0.52089291540E+03  0.00000000000E+00 0. -1.
         25    2    1    2    0    0 -0.15415184604E+03  0.21383730596E+02  0.83040451446E+03  0.85405876018E+03  0.12499861056E+03 0.  0.
          2    1    1    2  501    0  0.98147339950E+02 -0.52487689342E+02 -0.50225918350E+03  0.51444352973E+03  0.00000000000E+00 0. -1.
          1    1    1    2  502    0  0.56004506086E+02  0.31103958745E+02  0.14353698842E+04  0.14367987561E+04  0.00000000000E+00 0. -1.
         22    1    3    3    0    0  0.12235446392E+02  0.28661161374E+02  0.93071429980E+02  0.98150187968E+02  0.00000000000E+00 0. -1.
         22    1    3    3    0    0 -0.16638729243E+03 -0.72774307775E+01  0.73733308448E+03  0.75590857221E+03  0.00000000000E+00 0. -1.
</event>
<event>
 7    1  0.6235964E-006  0.5114138E+02  0.7818608E-02  0.1452497E+00
          2   -1    0    0  502    0  0.00000000000E+00  0.00000000000E+00  0.47628488287E+02  0.47628488287E+02  0.00000000000E+00 0. -1.
          1   -1    0    0  501    0 -0.00000000000E+00 -0.00000000000E+00 -0.65732228593E+03  0.65732228593E+03  0.00000000000E+00 0. -1.
         25    2    1    2    0    0 -0.51723679164E+02  0.60555033755E+02 -0.29369495065E+03  0.32897430448E+03  0.12500047150E+03 0.  0.
          2    1    1    2  501    0  0.38898576807E+01 -0.46206568709E+02 -0.32232011105E+03  0.32563849891E+03  0.00000000000E+00 0. -1.
          1    1    1    2  502    0  0.47833821483E+02 -0.14348465046E+02  0.63212640603E+01  0.50337970819E+02  0.00000000000E+00 0. -1.
         22    1    3    3    0    0 -0.15390694773E+02 -0.28754447264E+02 -0.16486485436E+03  0.16805984626E+03  0.00000000000E+00 0. -1.
         22    1    3    3    0    0 -0.36332984391E+02  0.89309481019E+02 -0.12883009629E+03  0.16091445822E+03  0.00000000000E+00 0. -1.
</event>
<event>
 7    1  0.6235964E-006  0.9441061E+02  0.7818608E-02  0.1401725E+00
          2   -1    0    0  502    0  0.00000000000E+00  0.00000000000E+00  0.92503889331E+03  0.92503889331E+03  0.00000000000E+00 0. -1.
          1   -1    0    0  501    0 -0.00000000000E+00 -0.00000000000E+00 -0.15307986405E+03  0.15307986405E+03  0.00000000000E+00 0. -1.
         25    2    1    2    0    0  0.35739593122E+02 -0.96461885312E+02  0.38422956315E+03  0.41693999542E+03  0.12499755495E+03 0.  0.
          2    1    1    2  501    0 -0.62349200011E+02  0.70791471102E+02 -0.11970009249E+03  0.15240396079E+03  0.00000000000E+00 0. -1.
          1    1    1    2  502    0  0.26609606888E+02  0.25670414210E+02  0.50742955860E+03  0.50877480115E+03  0.00000000000E+00 0. -1.
         22    1    3    3    0    0  0.54265943705E+02 -0.10793762197E+03  0.37368830774E+03  0.39273180954E+03  0.00000000000E+00 0. -1.
         22    1    3    3    0    0 -0.18526350583E+02  0.11475736655E+02  0.10541255405E+02  0.24208185872E+02  0.00000000000E+00 0. -1.
</event>
<event>
 7    1  0.6235964E-006  0.1012844E+03  0.7818608E-02  0.1434101E+00
          2   -1    0    0  502    0  0.00000000000E+00  0.00000000000E+00  0.15010533686E+04  0.15010533686E+04  0.00000000000E+00 0. -1.
          1   -1    0    0  501    0 -0.00000000000E+00 -0.00000000000E+00 -0.17208192610E+02  0.17208192610E+02  0.00000000000E+00 0. -1.
         25    2    1    2    0    0  0.85263514074E+02 -0.43933341652E+02  0.48718079906E+03  0.51202525118E+03  0.12499888614E+03 0.  0.
          2    1    1    2  501    0 -0.85480732935E+02  0.70779224036E+02  0.76153757374E+03  0.76958178934E+03  0.00000000000E+00 0. -1.
          1    1    1    2  502    0  0.21721886148E+00 -0.26845882384E+02  0.23512680314E+03  0.23665452064E+03  0.00000000000E+00 0. -1.
         22    1    3    3    0    0 -0.18832040301E+02 -0.46371795856E+02  0.21136002177E+03  0.21720508280E+03  0.00000000000E+00 0.  1.
         22    1    3    3    0    0  0.10409555437E+03  0.24384542040E+01  0.27582077729E+03  0.29482016838E+03  0.00000000000E+00 0.  1.
</event>
<event>
 7    1  0.6235964E-006  0.2801564E+03  0.7818608E-02  0.1250674E+00
          2   -1    0    0  502    0  0.00000000000E+00  0.00000000000E+00  0.19979941043E+04  0.19979941043E+04  0.00000000000E+00 0. -1.
          1   -1    0    0  501    0 -0.00000000000E+00 -0.00000000000E+00 -0.52396087129E+03  0.52396087129E+03  0.00000000000E+00 0. -1.
         25    2    1    2    0    0 -0.30196790585E+03  0.95602885767E+02  0.60502171871E+03  0.69426293919E+03  0.12500088276E+03 0.  0.
          2    1    1    2  501    0  0.45864618152E+02 -0.12865462592E+02 -0.46468036621E+03  0.46711553825E+03  0.00000000000E+00 0. -1.
          1    1    1    2  502    0  0.25610328770E+03 -0.82737423175E+02  0.13336918805E+04  0.13605764981E+04  0.00000000000E+00 0. -1.
         22    1    3    3    0    0  0.75968328276E+01  0.10702600295E+00  0.58106100940E+02  0.58600702130E+02  0.00000000000E+00 0.  1.
         22    1    3    3    0    0 -0.30956473868E+03  0.95495859764E+02  0.54691561777E+03  0.63566223706E+03  0.00000000000E+00 0.  1.
</event>
<event>
 7    1  0.6235964E-006  0.1911040E+03  0.7818608E-02  0.1316000E+00
          2   -1    0    0  502    0  0.00000000000E+00  0.00000000000E+00  0.21657114117E+04  0.21657114117E+04  0.00000000000E+00 0. -1.
          1   -1    0    0  501    0 -0.00000000000E+00 -0.00000000000E+00 -0.92769076355E+03  0.92769076355E+03  0.00000000000E+00 0. -1.
         25    2    1    2    0    0  0.50054101110E+02 -0.20623820172E+03 -0.31709184399E+00  0.24630132134E+03  0.12499852583E+03 0.  0.
          2    1    1    2  501    0  0.22474133880E+02  0.30161858934E+02 -0.79950032514E+03  0.80038465398E+03  0.00000000000E+00 0. -1.
          1    1    1    2  502    0 -0.72528234989E+02  0.17607634279E+03  0.20378380651E+04  0.20467161999E+04  0.00000000000E+00 0. -1.
         22    1    3    3    0    0 -0.18127903258E+01 -0.96152675256E+02 -0.57281292382E+02  0.11193645351E+03  0.00000000000E+00 0. -1.
         22    1    3    3    0    0  0.51866891435E+02 -0.11008552646E+03  0.56964200538E+02  0.13436486783E+03  0.00000000000E+00 0. -1.
</event>
<event>
 7    1  0.6235964E-006  0.8348250E+02  0.7818608E-02  0.1366200E+00
          2   -1    0    0  502    0  0.00000000000E+00  0.00000000000E+00  0.27642032376E+04  0.27642032376E+04  0.00000000000E+00 0. -1.
          1   -1    0    0  501    0 -0.00000000000E+00 -0.00000000000E+00 -0.27035193555E+02  0.27035193555E+02  0.00000000000E+00 0. -1.
         25    2    1    2    0    0  0.22912987941E+02  0.86223518227E+01  0.24122078033E+03  0.27278519775E+03  0.12499979713E+03 0.  0.
          2    1    1    2  501    0  0.30712148092E+00 -0.88810596216E+02  0.17726168975E+03  0.19826528434E+03  0.00000000000E+00 0. -1.
          1    1    1    2  502    0 -0.23220109422E+02  0.80188244393E+02  0.23186855740E+04  0.23201879491E+04  0.00000000000E+00 0. -1.
         22    1    3    3    0    0  0.70582711470E+02  0.25402446497E+02  0.12089142979E+03  0.14227417631E+03  0.00000000000E+00 0.  1.
         22    1    3    3    0    0 -0.47669723529E+02 -0.16780094675E+02  0.12032935053E+03  0.13051102144E+03  0.00000000000E+00 0.  1.
</event>
<event>
 7    1  0.6235964E-006  0.4726652E+02  0.7818608E-02  0.1474651E+00
          2   -1    0    0  502    0  0.00000000000E+00  0.00000000000E+00  0.14236143509E+03  0.14236143509E+03  0.00000000000E+00 0. -1.
          1   -1    0    0  501    0 -0.00000000000E+00 -0.00000000000E+00 -0.13150045302E+03  0.13150045302E+03  0.00000000000E+00 0. -1.
         25    2    1    2    0    0  0.39452726224E+02  0.15485412206E+02  0.58099605521E+02  0.14420979059E+03  0.12499833576E+03 0.  0.
          2    1    1    2  501    0 -0.21293222096E+02  0.37067238125E+02 -0.58962055753E+02  0.72827916818E+02  0.00000000000E+00 0. -1.
          1    1    1    2  502    0 -0.18159504128E+02 -0.52552650331E+02  0.11723432308E+02  0.56824180699E+02  0.00000000000E+00 0. -1.
         22    1    3    3    0    0  0.23444855079E+02  0.25317565691E+02 -0.35049937558E+02  0.49184738334E+02  0.00000000000E+00 0. -1.
         22    1    3    3    0    0  0.16007871145E+02 -0.98321534849E+01  0.93149543079E+02  0.95025052257E+02  0.00000000000E+00 0. -1.
</event>
<event>
 7    1  0.6235964E-006  0.1187435E+03  0.7818608E-02  0.1382120E+00
          2   -1    0    0  502    0  0.00000000000E+00  0.00000000000E+00  0.94359463107E+03  0.94359463107E+03  0.00000000000E+00 0. -1.
          1   -1    0    0  501    0 -0.00000000000E+00 -0.00000000000E+00 -0.21293638924E+03  0.21293638924E+03  0.00000000000E+00 0. -1.
         25    2    1    2    0    0  0.11549087651E+03  0.70858964283E+02  0.34673157778E+03  0.39269351651E+03  0.12500510192E+03 0.  0.
          2    1    1    2  501    0 -0.11226566117E+03 -0.36613202618E+02 -0.17101951465E+03  0.20782632094E+03  0.00000000000E+00 0. -1.
          1    1    1    2  502    0 -0.32252153465E+01 -0.34245761664E+02  0.55494617871E+03  0.55601118286E+03  0.00000000000E+00 0. -1.
         22    1    3    3    0    0  0.84463210949E+02  0.62241505097E+02  0.34482665679E+03  0.36043510122E+03  0.00000000000E+00 0. -1.
         22    1    3    3    0    0  0.31027665565E+02  0.86174591852E+01  0.19049209890E+01  0.32258415292E+02  0.00000000000E+00 0. -1.
</event>
<event>
 7    1  0.6235964E-006  0.4124694E+03  0.7818608E-02  0.1280890E+00
          2   -1    0    0  502    0  0.00000000000E+00  0.00000000000E+00  0.49870205484E+03  0.49870205484E+03  0.00000000000E+00 0. -1.
          1   -1    0    0  501    0 -0.00000000000E+00 -0.00000000000E+00 -0.12774872768E+04  0.12774872768E+04  0.00000000000E+00 0. -1.
         25    2    1    2    0    0 -0.34876972427E+03 -0.24945835336E+03  0.24848063598E+03  0.51111167760E+03  0.12499091922E+03 0.  0.
          2    1    1    2  501    0  0.32477006756E+03  0.25173907449E+03 -0.11075145559E+04  0.11812860153E+04  0.00000000000E+00 0. -1.
          1    1    1    2  502    0  0.23999656712E+02 -0.22807211314E+01  0.80248697924E+02  0.83791638781E+02  0.00000000000E+00 0. -1.
         22    1    3    3    0    0 -0.26315225836E+03 -0.23816193078E+03  0.22959773591E+03  0.42271188378E+03  0.00000000000E+00 0. -1.
         22    1    3    3    0    0 -0.85617465908E+02 -0.11296422582E+02  0.18882900073E+02  0.88399793817E+02  0.00000000000E+00 0. -1.
</event>
<event>
 7    1  0.6235964E-006  0.1011115E+03  0.7818608E-02  0.1325665E+00
          2   -1    0    0  502    0  0.00000000000E+00  0.00000000000E+00  0.79861158516E+03  0.79861158516E+03  0.00000000000E+00 0. -1.
          1   -1    0    0  501    0 -0.00000000000E+00 -0.00000000000E+00 -0.62694038352E+03  0.62694038352E+03  0.00000000000E+00 0. -1.
         25    2    1    2    0    0  0.29132471738E+02 -0.38958050937E+02 -0.42452526913E+02  0.14069042023E+03  0.12500058664E+03 0.  0.
          2    1    1    2  501    0 -0.25880712560E+02  0.10409533608E+03 -0.52855271826E+03  0.53932701236E+03  0.00000000000E+00 0. -1.
          1    1    1    2  502    0 -0.32517591781E+01 -0.65137285139E+02  0.74267644682E+03  0.74553453609E+03  0.00000000000E+00 0. -1.
         22    1    3    3    0    0  0.39010060041E+02 -0.44711372429E+02  0.30590535151E+02  0.66758313712E+02  0.00000000000E+00 0.  1.
         22    1    3    3    0    0 -0.98775883031E+01  0.57533214916E+01 -0.73043062064E+02  0.73932106520E+02  0.00000000000E+00 0.  1.
</event>
<event>
 7    1  0.6235964E-006  0.9691371E+02  0.7818608E-02  0.1347564E+00
          2   -1    0    0  502    0  0.00000000000E+00  0.00000000000E+00  0.76190807497E+03  0.76190807497E+03  0.00000000000E+00 0. -1.
          1   -1    0    0  501    0 -0.00000000000E+00 -0.00000000000E+00 -0.17358157182E+04  0.17358157182E+04  0.00000000000E+00 0. -1.
         25    2    1    2    0    0  0.15453832550E+02  0.42923821348E+02 -0.29707267946E+02  0.13637446683E+03  0.12503678681E+03 0.  0.
          2    1    1    2  501    0 -0.53124608802E+01 -0.98231160430E+02 -0.16501921788E+04  0.16531218377E+04  0.00000000000E+00 0. -1.
          1    1    1    2  502    0 -0.10141371670E+02  0.55307339083E+02  0.70599180349E+03  0.70822748872E+03  0.00000000000E+00 0. -1.
         22    1    3    3    0    0 -0.22614662709E+02  0.68597611543E+02  0.13321403945E+02  0.73447362662E+02  0.00000000000E+00 0. -1.
         22    1    3    3    0    0  0.38068495260E+02 -0.25673790195E+02 -0.43028671892E+02  0.62927104169E+02  0.00000000000E+00 0. -1.
</event>
<event>
 7    1  0.6235964E-006  0.1437365E+03  0.7818608E-02  0.1373698E+00
          2   -1    0    0  502    0  0.00000000000E+00  0.00000000000E+00  0.56737529277E+03  0.56737529277E+03  0.00000000000E+00 0. -1.
          1   -1    0    0  501    0 -0.00000000000E+00 -0.00000000000E+00 -0.20818519059E+03  0.20818519059E+03  0.00000000000E+00 0. -1.
         25    2    1    2    0    0 -0.26558335654E+02 -0.15250168799E+03  0.26444173992E+03  0.33093241088E+03  0.12499886691E+03 0.  0.
          2    1    1    2  501    0  0.27076747073E+02  0.13915055479E+02 -0.15556212751E+03  0.15851294747E+03  0.00000000000E+00 0. -1.
          1    1    1    2  502    0 -0.51841141979E+00  0.13858663251E+03  0.25031048977E+03  0.28611512500E+03  0.00000000000E+00 0. -1.
         22    1    3    3    0    0  0.33358271565E+02 -0.38869828581E+02  0.20378902666E+02  0.55126559203E+02  0.00000000000E+00 0. -1.
         22    1    3    3    0    0 -0.59916607218E+02 -0.11363185941E+03  0.24406283725E+03  0.27580585168E+03  0.00000000000E+00 0. -1.
</event>
<event>
 7    1  0.6235964E-006  0.5479762E+02  0.7818608E-02  0.1510189E+00
          2   -1    0    0  502    0  0.00000000000E+00  0.00000000000E+00  0.12121268912E+04  0.12121268912E+04  0.00000000000E+00 0. -1.
          1   -1    0    0  501    0 -0.00000000000E+00 -0.00000000000E+00 -0.18741901844E+04  0.18741901844E+04  0.00000000000E+00 0. -1.
         25    2    1    2    0    0  0.28783203068E+02 -0.74177197211E+02  0.35306601442E+03  0.38289866501E+03  0.12500019106E+03 0.  0.
          2    1    1    2  501    0 -0.50241560017E+00  0.28804762858E+02 -0.18583155425E+04  0.18585388407E+04  0.00000000000E+00 0. -1.
          1    1    1    2  502    0 -0.28280787468E+02  0.45372434353E+02  0.84318623490E+03  0.84487956980E+03  0.00000000000E+00 0. -1.
         22    1    3    3    0    0  0.75865499573E+02 -0.62122137504E+02  0.26062208955E+03  0.27845755072E+03  0.00000000000E+00 0.  1.
         22    1    3    3    0    0 -0.47082296506E+02 -0.12055059707E+02  0.92443924868E+02  0.10444111429E+03  0.00000000000E+00 0.  1.
</event>
<event>
 7    1  0.6235964E-006  0.8441404E+02  0.7818608E-02  0.1340548E+00
          2   -1    0    0  502    0  0.00000000000E+00  0.00000000000E+00  0.48591523490E+03  0.48591523490E+03  0.00000000000E+00 0. -1.
          1   -1    0    0  501    0 -0.00000000000E+00 -0.00000000000E+00 -0.72578937094E+03  0.72578937094E+03  0.00000000000E+00 0. -1.
         25    2    1    2    0    0 -0.45785773393E+01  0.23174764486E+02 -0.10602204885E+03  0.16559920603E+03  0.12499755645E+03 0.  0.
          2    1    1    2  501    0  0.32352365499E+02 -0.85873819266E+02 -0.58379676515E+03  0.59096501706E+03  0.00000000000E+00 0. -1.
          1    1    1    2  502    0 -0.27773788159E+02  0.62699054779E+02  0.44994467796E+03  0.45514038274E+03  0.00000000000E+00 0. -1.
         22    1    3    3    0    0 -0.36316927855E+01  0.68848234465E+02 -0.26445445260E+02  0.73841926820E+02  0.00000000000E+00 0. -1.
         22    1    3    3    0    0 -0.94688455388E+00 -0.45673469979E+02 -0.79576603586E+02  0.91757279213E+02  0.00000000000E+00 0. -1.
</event>
<event>
 7    1  0.6235964E-006  0.1007473E+03  0.7818608E-02  0.1433562E+00
          2   -1    0    0  502    0  0.00000000000E+00  0.00000000000E+00  0.14573546711E+04  0.14573546711E+04  0.00000000000E+00 0. -1.
          1   -1    0    0  501    0 -0.00000000000E+00 -0.00000000000E+00 -0.35591844628E+03  0.35591844628E+03  0.00000000000E+00 0. -1.
         25    2    1    2    0    0  0.13205436516E+02  0.73952454550E+02  0.78355095566E+02  0.16555507435E+03  0.12500245019E+03 0.  0.
          2    1    1    2  501    0 -0.13417125719E+00  0.27099536856E+02 -0.30978236767E+03  0.31096546145E+03  0.00000000000E+00 0. -1.
          1    1    1    2  502    0 -0.13071265259E+02 -0.10105199141E+03  0.13328634969E+04  0.13367525816E+04  0.00000000000E+00 0. -1.
         22    1    3    3    0    0 -0.18563169449E+02 -0.23962037637E+02 -0.78232861908E+01  0.31304541436E+02  0.00000000000E+00 0.  1.
         22    1    3    3    0    0  0.31768605965E+02  0.97914492187E+02  0.86178381757E+02  0.13425053291E+03  0.00000000000E+00 0.  1.
</event>
<event>
 7    1  0.6235964E-006  0.1367605E+03  0.7818608E-02  0.1382967E+00
          2   -1    0    0  502    0  0.00000000000E+00  0.00000000000E+00  0.30395509076E+03  0.30395509076E+03  0.00000000000E+00 0. -1.
          1   -1    0    0  501    0 -0.00000000000E+00 -0.00000000000E+00 -0.49326209295E+03  0.49326209295E+03  0.00000000000E+00 0. -1.
         25    2    1    2    0    0  0.45343722188E+02 -0.10927505869E+03 -0.12713759566E+03  0.21397492384E+03  0.12499683280E+03 0.  0.
          2    1    1    2  501    0 -0.70140296659E+02  0.12555095328E+03 -0.30573848076E+03  0.33787382512E+03  0.00000000000E+00 0. -1.
          1    1    1    2  502    0  0.24796574471E+02 -0.16275894584E+02  0.24356907423E+03  0.24536843475E+03  0.00000000000E+00 0. -1.
         22    1    3    3    0    0 -0.42717795634E+02 -0.31772062213E+02 -0.26775424820E+02  0.59591923743E+02  0.00000000000E+00 0. -1.
         22    1    3    3    0    0  0.88061517821E+02 -0.77502996478E+02 -0.10036217084E+03  0.15438300010E+03  0.00000000000E+00 0. -1.
</event>
<event>
 7    1  0.6235964E-006  0.3958703E+02  0.7818608E-02  0.1515224E+00
          2   -1    0    0  502    0  0.00000000000E+00  0.00000000000E+00  0.92234190185E+02  0.92234190185E+02  0.00000000000E+00 0. -1.
          1   -1    0    0  501    0 -0.00000000000E+00 -0.00000000000E+00 -0.19297136991E+04  0.19297136991E+04  0.00000000000E+00 0. -1.
         25    2    1    2    0    0 -0.35076530319E+01 -0.65300760079E+01 -0.65469370273E+01  0.12538345196E+03  0.12499280826E+03 0.  0.
          2    1    1    2  501    0  0.38578702034E+02 -0.94626737402E+01 -0.18521428314E+04  0.18525687373E+04  0.00000000000E+00 0. -1.
          1    1    1    2  502    0 -0.35071049002E+02  0.15992749748E+02  0.21210259448E+02  0.43995700113E+02  0.00000000000E+00 0. -1.
         22    1    3    3    0    0 -0.53967068022E+02 -0.20999468107E+01  0.31053991196E+02  0.62299314416E+02  0.00000000000E+00 0.  1.
         22    1    3    3    0    0  0.50459414990E+02 -0.44301291972E+01 -0.37600928223E+02  0.63084137540E+02  0.00000000000E+00 0.  1.
</event>
<event>
 7    1  0.6235964E-006  0.6420230E+02  0.7818608E-02  0.1498750E+00
          2   -1    0    0  502    0  0.00000000000E+00  0.00000000000E+00  0.21925122006E+04  0.21925122006E+04  0.00000000000E+00 0. -1.
          1   -1    0    0  501    0 -0.00000000000E+00 -0.00000000000E+00 -0.30236243694E+02  0.30236243694E+02  0.00000000000E+00 0. -1.
         25    2    1    2    0    0 -0.69568614113E+02 -0.46056316944E+02  0.23547332057E+03  0.27934465576E+03  0.12499910239E+03 0.  0.
          2    1    1    2  501    0  0.26565683761E+02 -0.10665317499E+01  0.14979421312E+02  0.30516489092E+02  0.00000000000E+00 0. -1.
          1    1    1    2  502    0  0.43002930352E+02  0.47122848694E+02  0.19118232150E+04  0.19128872994E+04  0.00000000000E+00 0. -1.
         22    1    3    3    0    0 -0.86779426500E+02 -0.35522796443E+01  0.83035697958E+02  0.12015912237E+03  0.00000000000E+00 0. -1.
         22    1    3    3    0    0  0.17210812387E+02 -0.42504037300E+02  0.15243762261E+03  0.15918553338E+03  0.00000000000E+00 0. -1.
</event>
<event>
 7    1  0.6235964E-006  0.8248836E+02  0.7818608E-02  0.1355537E+00
          2   -1    0    0  502    0  0.00000000000E+00  0.00000000000E+00  0.25439532686E+04  0.25439532686E+04  0.00000000000E+00 0. -1.
          1   -1    0    0  501    0 -0.00000000000E+00 -0.00000000000E+00 -0.19502468862E+03  0.19502468862E+03  0.00000000000E+00 0. -1.
         25    2    1    2    0    0  0.27557440993E+02  0.13112325479E+03  0.34029091888E+03  0.38649447372E+03  0.12500939264E+03 0.  0.
          2    1    1    2  501    0  0.82782083548E+01 -0.80862131959E+02 -0.16185171752E+03  0.18111651383E+03  0.00000000000E+00 0. -1.
          1    1    1    2  502    0 -0.35835649348E+02 -0.50261122826E+02  0.21704893787E+04  0.21713669697E+04  0.00000000000E+00 0. -1.
         22    1    3    3    0    0 -0.49758394264E+02  0.40747626646E+02  0.11949803463E+03  0.13570573737E+03  0.00000000000E+00 0. -1.
         22    1    3    3    0    0  0.77315835257E+02  0.90375628139E+02  0.22079288425E+03  0.25078873635E+03  0.00000000000E+00 0. -1.
</event>
<event>
 7    1  0.6235964E-006  0.1150985E+03  0.7818608E-02  0.1356108E+00
          2   -1    0    0  502    0  0.00000000000E+00  0.00000000000E+00  0.48288421501E+03  0.48288421501E+03  0.00000000000E+00 0. -1.
          1   -1    0    0  501    0 -0.00000000000E+00 -0.00000000000E+00 -0.79900480477E+03  0.79900480477E+03  0.00000000000E+00 0. -1.
         25    2    1    2    0    0  0.48656781960E+02 -0.69981918150E+02 -0.24714982096E+03  0.28977934066E+03  0.12499632384E+03 0.  0.
          2    1    1    2  501    0 -0.15504111006E+02 -0.41205936735E+02 -0.52230810710E+03  0.52416034324E+03  0.00000000000E+00 0. -1.
          1    1    1    2  502    0 -0.33152670954E+02  0.11118785488E+03  0.45333733830E+03  0.46794933589E+03  0.00000000000E+00 0. -1.
         22    1    3    3    0    0 -0.36905881407E+02 -0.27631588126E+02 -0.13413599749E+03  0.14183798704E+03  0.00000000000E+00 0. -1.
         22    1    3    3    0    0  0.85562663367E+02 -0.42350330024E+02 -0.11301382347E+03  0.14794135362E+03  0.00000000000E+00 0. -1.
</event>
<event>
 7    1  0.6235964E-006  0.9169889E+02  0.7818608E-02  0.1345087E+00
          2   -1    0    0  502    0  0.00000000000E+00  0.00000000000E+00  0.89480558583E+03  0.89480558583E+03  0.00000000000E+00 0. -1.
          1   -1    0    0  501    0 -0.00000000000E+00 -0.00000000000E+00 -0.10766151113E+04  0.10766151113E+04  0.00000000000E+00 0. -1.
         25    2    1    2    0    0  0.62562632643E+02  0.53749650936E+02  0.27521763409E+02  0.15226857645E+03  0.12500065573E+03 0.  0.
          2    1    1    2  501    0 -0.47415887735E+02  0.37903661626E+02 -0.10106476105E+04  0.10124690349E+04  0.00000000000E+00 0. -1.
          1    1    1    2  502    0 -0.15146744908E+02 -0.91653312561E+02  0.80131632164E+03  0.80668308579E+03  0.00000000000E+00 0. -1.
         22    1    3    3    0    0  0.27006661084E+02 -0.23722093215E+02  0.52333690633E+02  0.63489468612E+02  0.00000000000E+00 0.  1.
         22    1    3    3    0    0  0.35555971559E+02  0.77471744150E+02 -0.24811927224E+02  0.88779107834E+02  0.00000000000E+00 0.  1.
</event>
<event>
 7    1  0.6235964E-006  0.2146976E+03  0.7818608E-02  0.1314721E+00
          2   -1    0    0  502    0  0.00000000000E+00  0.00000000000E+00  0.12764952722E+04  0.12764952722E+04  0.00000000000E+00 0. -1.
          1   -1    0    0  501    0 -0.00000000000E+00 -0.00000000000E+00 -0.11025195533E+04  0.11025195533E+04  0.00000000000E+00 0. -1.
         25    2    1    2    0    0 -0.51683699044E+02  0.19513714382E+03  0.22450888222E+03  0.32676228232E+03  0.12497856339E+03 0.  0.
          2    1    1    2  501    0  0.23557740051E+02 -0.21400469544E+03 -0.10400783046E+04  0.10621279850E+04  0.00000000000E+00 0. -1.
          1    1    1    2  502    0  0.28125958994E+02  0.18867551624E+02  0.98954514126E+03  0.99012455816E+03  0.00000000000E+00 0. -1.
         22    1    3    3    0    0  0.34677294882E+02  0.94053840599E+02  0.12746869428E+03  0.16216321325E+03  0.00000000000E+00 0. -1.
         22    1    3    3    0    0 -0.86360993926E+02  0.10108330322E+03  0.97040187937E+02  0.16459906906E+03  0.00000000000E+00 0. -1.
</event>
<event>
 7    1  0.6235964E-006  0.6296757E+02  0.7818608E-02  0.1425487E+00
          2   -1    0    0  502    0  0.00000000000E+00  0.00000000000E+00  0.21384861409E+03  0.21384861409E+03  0.00000000000E+00 0. -1.
          1   -1    0    0  501    0 -0.00000000000E+00 -0.00000000000E+00 -0.88491601775E+03  0.88491601775E+03  0.00000000000E+00 0. -1.
         25    2    1    2    0    0 -0.73296889638E+01 -0.27275366596E+02  0.58768594177E+02  0.14097926473E+03  0.12499494173E+03 0.  0.
          2    1    1    2  501    0 -0.27360837864E+02 -0.37100385338E+02 -0.83137611876E+03  0.83265317203E+03  0.00000000000E+00 0. -1.
          1    1    1    2  502    0  0.34690526828E+02  0.64375751934E+02  0.10154012093E+03  0.12513219508E+03  0.00000000000E+00 0. -1.
         22    1    3    3    0    0  0.56173736767E+02  0.49277635390E+01  0.19495610062E+02  0.59664481625E+02  0.00000000000E+00 0. -1.
         22    1    3    3    0    0 -0.63503425731E+02 -0.32203130135E+02  0.39272984115E+02  0.81314783104E+02  0.00000000000E+00 0. -1.
</event>
<event>
 7    1  0.6235964E-006  0.1268333E+03  0.7818608E-02  0.1260365E+00
          2   -1    0    0  502    0  0.00000000000E+00  0.00000000000E+00  0.56443106077E+03  0.56443106077E+03  0.00000000000E+00 0. -1.
          1   -1    0    0  501    0 -0.00000000000E+00 -0.00000000000E+00 -0.30557175450E+03  0.30557175450E+03  0.00000000000E+00 0. -1.
         25    2    1    2    0    0 -0.75325245719E+02  0.19035561856E+03 -0.13561243277E+03  0.27554968725E+03  0.12501097577E+03 0.  0.
          2    1    1    2  501    0 -0.47066684883E+01 -0.95477362698E+02 -0.66898960704E+02  0.11667712055E+03  0.00000000000E+00 0. -1.
          1    1    1    2  502    0  0.80031914207E+02 -0.94878255864E+02  0.46137069975E+03  0.47777600747E+03  0.00000000000E+00 0. -1.
         22    1    3    3    0    0 -0.59465139804E+01  0.11047011625E+03 -0.12841602967E+03  0.16949833123E+03  0.00000000000E+00 0. -1.
         22    1    3    3    0    0 -0.69378731739E+02  0.79885502308E+02 -0.71964031026E+01  0.10605135602E+03  0.00000000000E+00 0. -1.
</event>
<event>
 7    1  0.6235964E-006  0.1278461E+03  0.7818608E-02  0.1359129E+00
          2   -1    0    0  502    0  0.00000000000E+00  0.00000000000E+00  0.32559906036E+03  0.32559906036E+03  0.00000000000E+00 0. -1.
          1   -1    0    0  501    0 -0.00000000000E+00 -0.00000000000E+00 -0.10090811343E+04  0.10090811343E+04  0.00000000000E+00 0. -1.
         25    2    1    2    0    0 -0.10985249022E+03 -0.51404235326E+02 -0.24575541753E+03  0.30121696184E+03  0.12500387129E+03 0.  0.
          2    1    1    2  501    0 -0.17475973274E+02  0.34461219424E+02 -0.72120562969E+03  0.72223995015E+03  0.00000000000E+00 0. -1.
          1    1    1    2  502    0  0.12732846349E+03  0.16943015902E+02  0.28347897327E+03  0.31122328269E+03  0.00000000000E+00 0. -1.
         22    1    3    3    0    0 -0.11251829369E+02 -0.72215032494E+02 -0.94471483983E+02  0.11944235374E+03  0.00000000000E+00 0. -1.
         22    1    3    3    0    0 -0.98600660847E+02  0.20810797168E+02 -0.15128393355E+03  0.18177460810E+03  0.00000000000E+00 0. -1.
</event>
<event>
 7    1  0.7942898E-006  0.8185001E+02  0.7818608E-02  0.1333117E+00
          2   -1    0    0  502    0  0.00000000000E+00  0.00000000000E+00  0.95620263570E+03  0.95620263570E+03  0.00000000000E+00 0. -1.
          1   -1    0    0  501    0 -0.00000000000E+00 -0.00000000000E+00 -0.29468755964E+04  0.29468755964E+04  0.00000000000E+00 0. -1.
         25    2    1    2    0    0 -0.44560207221E+02 -0.11785361544E+03 -0.79608449650E+03  0.81562905409E+03  0.12500056629E+03 0.  0.
          2    1    1    2  501    0  0.64827420500E+02  0.38600906878E+02 -0.21385846891E+04  0.21399152079E+04  0.00000000000E+00 0. -1.
          1    1    1    2  502    0 -0.20267213279E+02  0.79252708566E+02  0.94399622494E+03  0.94753397008E+03  0.00000000000E+00 0. -1.
         22    1    3    3    0    0 -0.29029899155E+02 -0.97906433739E+02 -0.26579618120E+03  0.28473850240E+03  0.00000000000E+00 0.  1.
         22    1    3    3    0    0 -0.15530308065E+02 -0.19947181705E+02 -0.53028831530E+03  0.53089055169E+03  0.00000000000E+00 0.  1.
</event>
<event>
 7    1  0.6235964E-006  0.4321986E+02  0.7818608E-02  0.1544087E+00
          2   -1    0    0  502    0  0.00000000000E+00  0.00000000000E+00  0.21980950797E+04  0.21980950797E+04  0.00000000000E+00 0. -1.
          1   -1    0    0  501    0 -0.00000000000E+00 -0.00000000000E+00 -0.14675023885E+03  0.14675023885E+03  0.00000000000E+00 0. -1.
         25    2    1    2    0    0 -0.46675126053E+01 -0.13713228823E+02  0.20637150242E+03  0.24171079626E+03  0.12500029478E+03 0.  0.
          2    1    1    2  501    0 -0.12280800503E+02 -0.26471298218E+02 -0.12718716809E+03  0.13049185192E+03  0.00000000000E+00 0. -1.
          1    1    1    2  502    0  0.16948313108E+02  0.40184527041E+02  0.19721605065E+04  0.19726426704E+04  0.00000000000E+00 0. -1.
         22    1    3    3    0    0  0.29915540717E+02 -0.60594410247E+02  0.11172034264E+03  0.13056820857E+03  0.00000000000E+00 0.  1.
         22    1    3    3    0    0 -0.34583053323E+02  0.46881181423E+02  0.94651159788E+02  0.11114258769E+03  0.00000000000E+00 0.  1.
</event>
<event>
 7    1  0.6235964E-006  0.6663154E+02  0.7818608E-02  0.1504321E+00
          2   -1    0    0  502    0  0.00000000000E+00  0.00000000000E+00  0.23264896544E+03  0.23264896544E+03  0.00000000000E+00 0. -1.
          1   -1    0    0  501    0 -0.00000000000E+00 -0.00000000000E+00 -0.39351800221E+03  0.39351800221E+03  0.00000000000E+00 0. -1.
         25    2    1    2    0    0 -0.41707438727E+02  0.47643752038E+02 -0.11154265894E+03  0.17909609114E+03  0.12499683014E+03 0.  0.
          2    1    1    2  501    0  0.22918819732E+02 -0.63612047080E+02 -0.24279663373E+03  0.25203565260E+03  0.00000000000E+00 0. -1.
          1    1    1    2  502    0  0.18788618995E+02  0.15968295042E+02  0.19347025589E+03  0.19503522391E+03  0.00000000000E+00 0. -1.
         22    1    3    3    0    0 -0.55923399378E+02 -0.33723951027E+01 -0.11298929289E+03  0.12611653323E+03  0.00000000000E+00 0. -1.
         22    1    3    3    0    0  0.14215960651E+02  0.51016147141E+02  0.14466339546E+01  0.52979557908E+02  0.00000000000E+00 0. -1.
</event>
<event>
 7    1  0.6235964E-006  0.6541344E+02  0.7818608E-02  0.1498693E+00
          2   -1    0    0  502    0  0.00000000000E+00  0.00000000000E+00  0.44630008424E+02  0.44630008424E+02  0.00000000000E+00 0. -1.
          1   -1    0    0  501    0 -0.00000000000E+00 -0.00000000000E+00 -0.11118677052E+04  0.11118677052E+04  0.00000000000E+00 0. -1.
         25    2    1    2    0    0 -0.38997330376E+02  0.32611992943E+02 -0.11844607544E+03  0.17955139096E+03  0.12499958139E+03 0.  0.
          2    1    1    2  501    0  0.62544885823E+02 -0.21343284240E+02 -0.94854073439E+03  0.95084011449E+03  0.00000000000E+00 0. -1.
          1    1    1    2  502    0 -0.23547555447E+02 -0.11268708703E+02 -0.25088699010E+00  0.26106208220E+02  0.00000000000E+00 0. -1.
         22    1    3    3    0    0 -0.47801539985E+02  0.50258609442E+02 -0.10899852437E+02  0.70211977832E+02  0.00000000000E+00 0. -1.
         22    1    3    3    0    0  0.88042096088E+01 -0.17646616498E+02 -0.10754622300E+03  0.10933941313E+03  0.00000000000E+00 0. -1.
</event>
<event>
 7    1  0.6235964E-006  0.1206676E+03  0.7818608E-02  0.1294739E+00
          2   -1    0    0  502    0  0.00000000000E+00  0.00000000000E+00  0.38514277241E+04  0.38514277241E+04  0.00000000000E+00 0. -1.
          1   -1    0    0  501    0 -0.00000000000E+00 -0.00000000000E+00 -0.42383543382E+03  0.42383543382E+03  0.00000000000E+00 0. -1.
         25    2    1    2    0    0 -0.13373171150E+02  0.46719967945E+02 -0.25253068886E+03  0.28593213164E+03  0.12499535182E+03 0.  0.
          2    1    1    2  501    0 -0.22615616188E+02  0.68723852989E+02 -0.14513171753E+03  0.16216550034E+03  0.00000000000E+00 0. -1.
          1    1    1    2  502    0  0.35988787338E+02 -0.11544382093E+03  0.38252546966E+04  0.38271655259E+04  0.00000000000E+00 0. -1.
         22    1    3    3    0    0  0.10299272255E+02  0.62960682129E+02 -0.24895846511E+03  0.25700280126E+03  0.00000000000E+00 0. -1.
         22    1    3    3    0    0 -0.23672443405E+02 -0.16240714184E+02 -0.35722237483E+01  0.28929330384E+02  0.00000000000E+00 0. -1.
</event>
<event>
 7    1  0.6235964E-006  0.7019205E+02  0.7818608E-02  0.1498131E+00
          2   -1    0    0  502    0  0.00000000000E+00  0.00000000000E+00  0.31171532220E+03  0.31171532220E+03  0.00000000000E+00 0. -1.
          1   -1    0    0  501    0 -0.00000000000E+00 -0.00000000000E+00 -0.79274287739E+03  0.79274287739E+03  0.00000000000E+00 0. -1.
         25    2    1    2    0    0 -0.34159085071E+02 -0.32412886448E+02 -0.51127198698E+03  0.52843317276E+03  0.12500054042E+03 0.  0.
          2    1    1    2  501    0 -0.22654877063E+02 -0.91212515197E+01 -0.26824333563E+03  0.26935279430E+03  0.00000000000E+00 0. -1.
          1    1    1    2  502    0  0.56813962134E+02  0.41534137967E+02  0.29848776742E+03  0.30667223254E+03  0.00000000000E+00 0. -1.
         22    1    3    3    0    0 -0.78877975806E+02 -0.37174697546E+02 -0.29933607790E+03  0.31177841608E+03  0.00000000000E+00 0. -1.
         22    1    3    3    0    0  0.44718890735E+02  0.47618110982E+01 -0.21193590908E+03  0.21665475668E+03  0.00000000000E+00 0. -1.
</event>
<event>
 7    1  0.6235964E-006  0.4993674E+02  0.7818608E-02  0.1479786E+00
          2   -1    0    0  502    0  0.00000000000E+00  0.00000000000E+00  0.12472922850E+04  0.12472922850E+04  0.00000000000E+00 0. -1.
          1   -1    0    0  501    0 -0.00000000000E+00 -0.00000000000E+00 -0.36667031284E+03  0.36667031284E+03  0.00000000000E+00 0. -1.
         25    2    1    2    0    0  0.13562908372E+01 -0.13093856475E+02  0.12050635737E+03  0.17412929250E+03  0.12500375889E+03 0.  0.
          2    1    1    2  501    0  0.17297474140E+02  0.47360971269E+02 -0.33764029618E+03  0.34138429052E+03  0.00000000000E+00 0. -1.
          1    1    1    2  502    0 -0.18653764977E+02 -0.34267114795E+02  0.10977559109E+04  0.10984490148E+04  0.00000000000E+00 0. -1.
         22    1    3    3    0    0 -0.15108002783E+02  0.25713184257E+02  0.12789968574E+03  0.13133068646E+03  0.00000000000E+00 0.  1.
         22    1    3    3    0    0  0.16464293620E+02 -0.38807040732E+02 -0.73933283678E+01  0.42798606042E+02  0.00000000000E+00 0.  1.
</event>
<event>
 7    1  0.6235964E-006  0.6508142E+02  0.7818608E-02  0.1451172E+00
          2   -1    0    0  502    0  0.00000000000E+00  0.00000000000E+00  0.14453302053E+04  0.14453302053E+04  0.00000000000E+00 0. -1.
          1   -1    0    0  501    0 -0.00000000000E+00 -0.00000000000E+00 -0.48782335236E+03  0.48782335236E+03  0.00000000000E+00 0. -1.
         25    2    1    2    0    0 -0.59710295578E+02  0.27661560733E+02  0.67569522593E+03  0.69030378395E+03  0.12499917784E+03 0.  0.
          2    1    1    2  501    0  0.34988401596E+02 -0.54913190860E+02 -0.47786599883E+03  0.48228161858E+03  0.00000000000E+00 0. -1.
          1    1    1    2  502    0  0.24721893982E+02  0.27251630127E+02  0.75967762584E+03  0.76056815512E+03  0.00000000000E+00 0. -1.
         22    1    3    3    0    0 -0.58019732731E+02 -0.39490662683E+02  0.42542964009E+03  0.43117998619E+03  0.00000000000E+00 0.  1.
         22    1    3    3    0    0 -0.16905628469E+01  0.67152223416E+02  0.25026558584E+03  0.25912379776E+03  0.00000000000E+00 0.  1.
</event>
<event>
 7    1  0.6235964E-006  0.5955092E+02  0.7818608E-02  0.1520749E+00
          2   -1    0    0  502    0  0.00000000000E+00  0.00000000000E+00  0.80110994574E+03  0.80110994574E+03  0.00000000000E+00 0. -1.
          1   -1    0    0  501    0 -0.00000000000E+00 -0.00000000000E+00 -0.25575683620E+03  0.25575683620E+03  0.00000000000E+00 0. -1.
         25    2    1    2    0    0  0.30590761045E+02  0.62556137959E+02  0.18769651732E+03  0.23601605212E+03  0.12499811672E+03 0.  0.
          2    1    1    2  501    0  0.12064191482E+02 -0.21543619755E+02 -0.22944747251E+03  0.23077221434E+03  0.00000000000E+00 0. -1.
          1    1    1    2  502    0 -0.42654952527E+02 -0.41012518204E+02  0.58710406472E+03  0.59007851549E+03  0.00000000000E+00 0. -1.
         22    1    3    3    0    0 -0.21161895741E+02  0.83731762429E+02  0.10149875144E+03  0.13326976557E+03  0.00000000000E+00 0. -1.
         22    1    3    3    0    0  0.51752656785E+02 -0.21175624470E+02  0.86197765885E+02  0.10274628655E+03  0.00000000000E+00 0. -1.
</event>
<event>
 7    1  0.6235964E-006  0.2945517E+02  0.7818608E-02  0.1638359E+00
          2   -1    0    0  502    0  0.00000000000E+00  0.00000000000E+00  0.58753224248E+02  0.58753224248E+02  0.00000000000E+00 0. -1.
          1   -1    0    0  501    0 -0.00000000000E+00 -0.00000000000E+00 -0.58735394984E+03  0.58735394984E+03  0.00000000000E+00 0. -1.
         25    2    1    2    0    0 -0.87778968710E+01  0.44910548454E+02 -0.15265369298E+03  0.20253919557E+03  0.12499986770E+03 0.  0.
          2    1    1    2  501    0 -0.83987124742E+01 -0.27985743290E+02 -0.40486340855E+03  0.40591639506E+03  0.00000000000E+00 0. -1.
          1    1    1    2  502    0  0.17176609345E+02 -0.16924805164E+02  0.28916375944E+02  0.37651583448E+02  0.00000000000E+00 0. -1.
         22    1    3    3    0    0 -0.57913481134E+02 -0.75545485148E+01 -0.48108377151E+02  0.75666759231E+02  0.00000000000E+00 0. -1.
         22    1    3    3    0    0  0.49135584263E+02  0.52465096968E+02 -0.10454531583E+03  0.12687243634E+03  0.00000000000E+00 0. -1.
</event>
<event>
 7    1  0.6235964E-006  0.1060474E+03  0.7818608E-02  0.1319252E+00
          2   -1    0    0  502    0  0.00000000000E+00  0.00000000000E+00  0.37117920382E+03  0.37117920382E+03  0.00000000000E+00 0. -1.
          1   -1    0    0  501    0 -0.00000000000E+00 -0.00000000000E+00 -0.14106172444E+04  0.14106172444E+04  0.00000000000E+00 0. -1.
         25    2    1    2    0    0 -0.12616368667E+02  0.11695227222E+03 -0.11877036055E+03  0.20872906687E+03  0.12499767228E+03 0.  0.
          2    1    1    2  501    0  0.68205637537E+02 -0.81680530681E+02 -0.12412458597E+04  0.12457989414E+04  0.00000000000E+00 0. -1.
          1    1    1    2  502    0 -0.55589268870E+02 -0.35271741540E+02  0.32057817964E+03  0.32726844001E+03  0.00000000000E+00 0. -1.
         22    1    3    3    0    0  0.50238785487E+02  0.54225460492E+02 -0.87590342983E+02  0.11461415409E+03  0.00000000000E+00 0. -1.
         22    1    3    3    0    0 -0.62855154154E+02  0.62726811728E+02 -0.31180017571E+02  0.94114912788E+02  0.00000000000E+00 0. -1.
</event>
<event>
 7    1  0.6235964E-006  0.8267292E+02  0.7818608E-02  0.1334616E+00
          2   -1    0    0  502    0  0.00000000000E+00  0.00000000000E+00  0.43096794599E+03  0.43096794599E+03  0.00000000000E+00 0. -1.
          1   -1    0    0  501    0 -0.00000000000E+00 -0.00000000000E+00 -0.79959917029E+02  0.79959917029E+02  0.00000000000E+00 0. -1.
         25    2    1    2    0    0 -0.45671030218E+02  0.75975978594E+01  0.48910238439E+02  0.14199912114E+03  0.12501188938E+03 0.  0.
          2    1    1    2  501    0  0.12242857576E+03  0.23112194871E+02  0.14322219701E+03  0.18983025952E+03  0.00000000000E+00 0. -1.
          1    1    1    2  502    0 -0.76757545546E+02 -0.30709792731E+02  0.15887559352E+03  0.17909848236E+03  0.00000000000E+00 0. -1.
         22    1    3    3    0    0  0.19854487977E+02 -0.14009582812E+02  0.66496281214E+02  0.70797065749E+02  0.00000000000E+00 0. -1.
         22    1    3    3    0    0 -0.65525518195E+02  0.21607180671E+02 -0.17586042775E+02  0.71202055390E+02  0.00000000000E+00 0. -1.
</event>
<event>
 7    1  0.6235964E-006  0.7065991E+02  0.7818608E-02  0.1477214E+00
          2   -1    0    0  502    0  0.00000000000E+00  0.00000000000E+00  0.27751311684E+03  0.27751311684E+03  0.00000000000E+00 0. -1.
          1   -1    0    0  501    0 -0.00000000000E+00 -0.00000000000E+00 -0.87728270249E+03  0.87728270249E+03  0.00000000000E+00 0. -1.
         25    2    1    2    0    0  0.87615251197E+02 -0.90046082705E+01 -0.13183079076E+03  0.20189450779E+03  0.12499807867E+03 0.  0.
          2    1    1    2  501    0 -0.22369464719E+02 -0.16972456475E+02 -0.70504997796E+03  0.70560890631E+03  0.00000000000E+00 0. -1.
          1    1    1    2  502    0 -0.65245786477E+02  0.25977064745E+02  0.23711118308E+03  0.24729240523E+03  0.00000000000E+00 0. -1.
         22    1    3    3    0    0  0.98590995959E+00 -0.39721101605E+02 -0.94821004978E+02  0.10280934255E+03  0.00000000000E+00 0.  1.
         22    1    3    3    0    0  0.86629341237E+02  0.30716493335E+02 -0.37009785782E+02  0.99085165235E+02  0.00000000000E+00 0.  1.
</event>
<event>
 7    1  0.6235964E-006  0.1169516E+03  0.7818608E-02  0.1318204E+00
          2   -1    0    0  502    0  0.00000000000E+00  0.00000000000E+00  0.70643641181E+02  0.70643641181E+02  0.00000000000E+00 0. -1.
          1   -1    0    0  501    0 -0.00000000000E+00 -0.00000000000E+00 -0.11660192350E+04  0.11660192350E+04  0.00000000000E+00 0. -1.
         25    2    1    2    0    0 -0.77626822880E+02 -0.20716069315E+02 -0.17314531090E+03  0.22816912183E+03  0.12500708105E+03 0.  0.
          2    1    1    2  501    0  0.95186923976E+02  0.78360401387E+02 -0.93810975921E+03  0.94617695138E+03  0.00000000000E+00 0. -1.
          1    1    1    2  502    0 -0.17560101097E+02 -0.57644332072E+02  0.15879476252E+02  0.62316803003E+02  0.00000000000E+00 0. -1.
         22    1    3    3    0    0  0.86598090438E+01  0.23977689463E+02  0.43042433394E+01  0.25854368980E+02  0.00000000000E+00 0.  1.
         22    1    3    3    0    0 -0.86286631924E+02 -0.44693758778E+02 -0.17744955424E+03  0.20231475285E+03  0.00000000000E+00 0.  1.
</event>
<event>
 7    1  0.6235964E-006  0.6967138E+02  0.7818608E-02  0.1474790E+00
          2   -1    0    0  502    0  0.00000000000E+00  0.00000000000E+00  0.30155802080E+03  0.30155802080E+03  0.00000000000E+00 0. -1.
          1   -1    0    0  501    0 -0.00000000000E+00 -0.00000000000E+00 -0.11288386005E+04  0.11288386005E+04  0.00000000000E+00 0. -1.
         25    2    1    2    0    0 -0.72405190382E+02  0.75083618312E+00  0.14832969982E+02  0.14521629790E+03  0.12499872330E+03 0.  0.
          2    1    1    2  501    0  0.64254149991E+02  0.27051281535E+02 -0.10615513576E+04  0.10638381702E+04  0.00000000000E+00 0. -1.
          1    1    1    2  502    0  0.81510403910E+01 -0.27802117718E+02  0.21943780794E+03  0.22134215315E+03  0.00000000000E+00 0. -1.
         22    1    3    3    0    0 -0.60752264460E+02 -0.58335887692E+02  0.79669535873E+01  0.84601334382E+02  0.00000000000E+00 0. -1.
         22    1    3    3    0    0 -0.11652925922E+02  0.59086723875E+02  0.68660163951E+01  0.60614963515E+02  0.00000000000E+00 0. -1.
</event>
<event>
 7    1  0.6235964E-006  0.3708989E+02  0.7818608E-02  0.1611860E+00
          2   -1    0    0  502    0  0.00000000000E+00  0.00000000000E+00  0.56402014241E+03  0.56402014241E+03  0.00000000000E+00 0. -1.
          1   -1    0    0  501    0 -0.00000000000E+00 -0.00000000000E+00 -0.65799417210E+03  0.65799417210E+03  0.00000000000E+00 0. -1.
         25    2    1    2    0    0  0.44389252075E+02  0.21576376650E+02 -0.26201123547E+02  0.13692059131E+03  0.12499921488E+03 0.  0.
          2    1    1    2  501    0 -0.23241169118E+02 -0.28799839324E+02 -0.57559332579E+03  0.57678181263E+03  0.00000000000E+00 0. -1.
          1    1    1    2  502    0 -0.21148082958E+02  0.72234626731E+01  0.50782041964E+03  0.50831191058E+03  0.00000000000E+00 0. -1.
         22    1    3    3    0    0 -0.11908384170E+02  0.31950937821E+02 -0.61032064677E+02  0.69911264900E+02  0.00000000000E+00 0.  1.
         22    1    3    3    0    0  0.56297636245E+02 -0.10374561171E+02  0.34830941129E+02  0.67009326412E+02  0.00000000000E+00 0.  1.
</event>
<event>
 7    1  0.6235964E-006  0.7911396E+02  0.7818608E-02  0.1347686E+00
          2   -1    0    0  502    0  0.00000000000E+00  0.00000000000E+00  0.36002968274E+03  0.36002968274E+03  0.00000000000E+00 0. -1.
          1   -1    0    0  501    0 -0.00000000000E+00 -0.00000000000E+00 -0.15594403434E+04  0.15594403434E+04  0.00000000000E+00 0. -1.
         25    2    1    2    0    0 -0.13651665637E+02 -0.41831981997E+00 -0.10295619614E+03  0.16251801089E+03  0.12500233027E+03 0.  0.
          2    1    1    2  501    0  0.78674286239E+02 -0.22090730278E+02 -0.14219332729E+04  0.14242794235E+04  0.00000000000E+00 0. -1.
          1    1    1    2  502    0 -0.65022620602E+02  0.22509050098E+02  0.32547880842E+03  0.33267259168E+03  0.00000000000E+00 0. -1.
         22    1    3    3    0    0  0.28610519517E+02  0.41206775454E+02 -0.88077117145E+02  0.10136142627E+03  0.00000000000E+00 0. -1.
         22    1    3    3    0    0 -0.42262185153E+02 -0.41625095274E+02 -0.14879078992E+02  0.61156584618E+02  0.00000000000E+00 0. -1.
</event>
<event>
 7    1  0.6235964E-006  0.7723027E+02  0.7818608E-02  0.1361735E+00
          2   -1    0    0  502    0  0.00000000000E+00  0.00000000000E+00  0.84368621451E+02  0.84368621451E+02  0.00000000000E+00 0. -1.
          1   -1    0    0  501    0 -0.00000000000E+00 -0.00000000000E+00 -0.89322952991E+03  0.89322952991E+03  0.00000000000E+00 0. -1.
         25    2    1    2    0    0  0.24708198057E+02  0.66046104196E+01 -0.20370457923E+02  0.12920569466E+03  0.12500016018E+03 0.  0.
          2    1    1    2  501    0 -0.43786476839E+02 -0.66204151040E+02 -0.78139135383E+03  0.78541243497E+03  0.00000000000E+00 0. -1.
          1    1    1    2  502    0  0.19078278782E+02  0.59599540621E+02 -0.70990967085E+01  0.62980021733E+02  0.00000000000E+00 0. -1.
         22    1    3    3    0    0 -0.43842951839E+02  0.31755244052E+02 -0.13957300427E+02  0.55905332357E+02  0.00000000000E+00 0.  1.
         22    1    3    3    0    0  0.68551149896E+02 -0.25150633632E+02 -0.64131574964E+01  0.73300362300E+02  0.00000000000E+00 0.  1.
</event>
<event>
 7    1  0.6235964E-006  0.1734739E+03  0.7818608E-02  0.1178827E+00
          2   -1    0    0  502    0  0.00000000000E+00  0.00000000000E+00  0.55208676641E+03  0.55208676641E+03  0.00000000000E+00 0. -1.
          1   -1    0    0  501    0 -0.00000000000E+00 -0.00000000000E+00 -0.81418859936E+03  0.81418859936E+03  0.00000000000E+00 0. -1.
         25    2    1    2    0    0  0.13348309589E+03  0.72039056345E+02 -0.11035537562E+03  0.22541241787E+03  0.12500034669E+03 0.  0.
          2    1    1    2  501    0 -0.15413160099E+03  0.10020159745E+03 -0.61727173165E+03  0.64406622427E+03  0.00000000000E+00 0. -1.
          1    1    1    2  502    0  0.20648505093E+02 -0.17224065379E+03  0.46552527432E+03  0.49679672364E+03  0.00000000000E+00 0. -1.
         22    1    3    3    0    0  0.13022619662E+03  0.17643765669E+02 -0.41937167615E+02  0.13794524559E+03  0.00000000000E+00 0. -1.
         22    1    3    3    0    0  0.32568992760E+01  0.54395290676E+02 -0.68418208009E+02  0.87467172287E+02  0.00000000000E+00 0. -1.
</event>
<event>
 7    1  0.6235964E-006  0.5459344E+02  0.7818608E-02  0.1464026E+00
          2   -1    0    0  502    0  0.00000000000E+00  0.00000000000E+00  0.65637628535E+03  0.65637628535E+03  0.00000000000E+00 0. -1.
          1   -1    0    0  501    0 -0.00000000000E+00 -0.00000000000E+00 -0.84478548633E+03  0.84478548633E+03  0.00000000000E+00 0. -1.
         25    2    1    2    0    0 -0.91128313620E+02  0.10511106717E+02 -0.44099634548E+02  0.16119655119E+03  0.12499878976E+03 0.  0.
          2    1    1    2  501    0  0.39502932023E+02  0.58932428950E+01 -0.74037096596E+03  0.74144748916E+03  0.00000000000E+00 0. -1.
          1    1    1    2  502    0  0.51625381597E+02 -0.16404349612E+02  0.59606139953E+03  0.59851773133E+03  0.00000000000E+00 0. -1.
         22    1    3    3    0    0 -0.98205727993E+00  0.33116146571E+02  0.28153516861E+02  0.43477167707E+02  0.00000000000E+00 0.  1.
         22    1    3    3    0    0 -0.90146256340E+02 -0.22605039853E+02 -0.72253151409E+02  0.11771938348E+03  0.00000000000E+00 0.  1.
</event>
<event>
 7    1  0.6235964E-006  0.8904943E+02  0.7818608E-02  0.1395354E+00
          2   -1    0    0  502    0  0.00000000000E+00  0.00000000000E+00  0.60353334251E+03  0.60353334251E+03  0.00000000000E+00 0. -1.
          1   -1    0    0  501    0 -0.00000000000E+00 -0.00000000000E+00 -0.90884941325E+03  0.90884941325E+03  0.00000000000E+00 0. -1.
         25    2    1    2    0    0 -0.33884052941E+02  0.36566351467E+02 -0.15130819020E+02  0.13541900967E+03  0.12499655752E+03 0.  0.
          2    1    1    2  501    0 -0.29897926439E+02  0.28393282852E+02 -0.82924562791E+03  0.83027006205E+03  0.00000000000E+00 0. -1.
          1    1    1    2  502    0  0.63781979379E+02 -0.64959634319E+02  0.53906037619E+03  0.54669368404E+03  0.00000000000E+00 0. -1.
         22    1    3    3    0    0 -0.35647709941E+02  0.81545413545E+02 -0.15863241919E+02  0.90399425542E+02  0.00000000000E+00 0. -1.
         22    1    3    3    0    0  0.17636570003E+01 -0.44979062078E+02  0.73242289937E+00  0.45019584124E+02  0.00000000000E+00 0. -1.
</event>
<event>
 7    1  0.6235964E-006  0.2957065E+02  0.7818608E-02  0.1646229E+00
          2   -1    0    0  502    0  0.00000000000E+00  0.00000000000E+00  0.12590246688E+04  0.12590246688E+04  0.00000000000E+00 0. -1.
          1   -1    0    0  501    0 -0.00000000000E+00 -0.00000000000E+00 -0.87746922257E+03  0.87746922257E+03  0.00000000000E+00 0. -1.
         25    2    1    2    0    0 -0.42059158205E+02  0.27235165546E+02 -0.22139350108E+03  0.25913389753E+03  0.12499826997E+03 0.  0.
          2    1    1    2  501    0  0.27713761134E+02 -0.93006615229E+01 -0.63676383928E+03  0.63743450007E+03  0.00000000000E+00 0. -1.
          1    1    1    2  502    0  0.14345397071E+02 -0.17934504023E+02  0.12397127866E+04  0.12399254938E+04  0.00000000000E+00 0. -1.
         22    1    3    3    0    0 -0.43218338154E+02  0.74171196229E+02 -0.12160598880E+03  0.14885297315E+03  0.00000000000E+00 0.  1.
         22    1    3    3    0    0  0.11591799493E+01 -0.46936030683E+02 -0.99787512283E+02  0.11028092438E+03  0.00000000000E+00 0.  1.
</event>
<event>
 7    1  0.6235964E-006  0.6786074E+02  0.7818608E-02  0.1410339E+00
          2   -1    0    0  502    0  0.00000000000E+00  0.00000000000E+00  0.60725867905E+02  0.60725867905E+02  0.00000000000E+00 0. -1.
          1   -1    0    0  501    0 -0.00000000000E+00 -0.00000000000E+00 -0.53981267336E+03  0.53981267336E+03  0.00000000000E+00 0. -1.
         25    2    1    2    0    0  0.66229827799E+02  0.80997329654E+01 -0.13353523994E+03  0.19470455723E+03  0.12500483406E+03 0.  0.
          2    1    1    2  501    0 -0.46464745107E+02 -0.51925229607E+02 -0.35063338961E+03  0.35748982631E+03  0.00000000000E+00 0. -1.
          1    1    1    2  502    0 -0.19765082691E+02  0.43825496641E+02  0.50818240879E+01  0.48344157720E+02  0.00000000000E+00 0. -1.
         22    1    3    3    0    0  0.89261745878E+02  0.43322288730E+02 -0.86977310142E+02  0.13194518732E+03  0.00000000000E+00 0.  1.
         22    1    3    3    0    0 -0.23031918079E+02 -0.35222555765E+02 -0.46557929794E+02  0.62759369911E+02  0.00000000000E+00 0.  1.
</event>
<event>
 7    1  0.6235964E-006  0.1018052E+03  0.7818608E-02  0.1405056E+00
          2   -1    0    0  502    0  0.00000000000E+00  0.00000000000E+00  0.13196559406E+04  0.13196559406E+04  0.00000000000E+00 0. -1.
          1   -1    0    0  501    0 -0.00000000000E+00 -0.00000000000E+00 -0.57684389147E+03  0.57684389147E+03  0.00000000000E+00 0. -1.
         25    2    1    2    0    0  0.49971957465E+02  0.83147448366E+02 -0.26917473256E+03  0.31223649005E+03  0.12500357742E+03 0.  0.
          2    1    1    2  501    0 -0.80107759472E+02 -0.68746759709E+02 -0.27617844582E+03  0.29566518908E+03  0.00000000000E+00 0. -1.
          1    1    1    2  502    0  0.30135802007E+02 -0.14400688657E+02  0.12881652275E+04  0.12885981529E+04  0.00000000000E+00 0. -1.
         22    1    3    3    0    0  0.26137212639E+02 -0.26777138898E+02 -0.30095285629E+02  0.48019738330E+02  0.00000000000E+00 0.  1.
         22    1    3    3    0    0  0.23834744825E+02  0.10992458726E+03 -0.23907944693E+03  0.26421675172E+03  0.00000000000E+00 0.  1.
</event>
<event>
 7    1  0.6235964E-006  0.3742848E+03  0.7818608E-02  0.1257676E+00
          2   -1    0    0  502    0  0.00000000000E+00  0.00000000000E+00  0.69474320531E+03  0.69474320531E+03  0.00000000000E+00 0. -1.
          1   -1    0    0  501    0 -0.00000000000E+00 -0.00000000000E+00 -0.28134670161E+03  0.28134670161E+03  0.00000000000E+00 0. -1.
         25    2    1    2    0    0 -0.25304952930E+03  0.24515802293E+03  0.30896633615E+03  0.48499746731E+03  0.12500330368E+03 0.  0.
          2    1    1    2  501    0  0.27217246421E+03 -0.27237376084E+03  0.37612997590E+01  0.38507072499E+03  0.00000000000E+00 0. -1.
          1    1    1    2  502    0 -0.19122934905E+02  0.27215737913E+02  0.10066886779E+03  0.10602171462E+03  0.00000000000E+00 0. -1.
         22    1    3    3    0    0 -0.56237620380E+02  0.11273419599E+01  0.23375994273E+02  0.60912871826E+02  0.00000000000E+00 0.  1.
         22    1    3    3    0    0 -0.19681190892E+03  0.24403068097E+03  0.28559034188E+03  0.42408459548E+03  0.00000000000E+00 0.  1.
</event>
<event>
 7    1  0.6235964E-006  0.8644707E+02  0.7818608E-02  0.1385383E+00
          2   -1    0    0  502    0  0.00000000000E+00  0.00000000000E+00  0.12673250575E+04  0.12673250575E+04  0.00000000000E+00 0. -1.
          1   -1    0    0  501    0 -0.00000000000E+00 -0.00000000000E+00 -0.43490713806E+03  0.43490713806E+03  0.00000000000E+00 0. -1.
         25    2    1    2    0    0  0.66012382851E+02  0.16378677616E+01 -0.21160747772E+03  0.25448634510E+03  0.12500103167E+03 0.  0.
          2    1    1    2  501    0 -0.94101155484E+02  0.34808389974E+02 -0.18893714628E+03  0.21392497919E+03  0.00000000000E+00 0. -1.
          1    1    1    2  502    0  0.28088772633E+02 -0.36446257735E+02  0.12329625434E+04  0.12338208712E+04  0.00000000000E+00 0. -1.
         22    1    3    3    0    0  0.85392590493E+02  0.17310882923E+02 -0.73037847311E+02  0.11369295633E+03  0.00000000000E+00 0. -1.
         22    1    3    3    0    0 -0.19380207642E+02 -0.15673015162E+02 -0.13856963040E+03  0.14079338878E+03  0.00000000000E+00 0. -1.
</event>
<event>
 7    1  0.1148969E-005  0.1103218E+03  0.7818608E-02  0.1346184E+00
          2   -1    0    0  502    0  0.00000000000E+00  0.00000000000E+00  0.18987837883E+04  0.18987837883E+04  0.00000000000E+00 0. -1.
          1   -1    0    0  501    0 -0.00000000000E+00 -0.00000000000E+00 -0.10075631358E+04  0.10075631358E+04  0.00000000000E+00 0. -1.
         25    2    1    2    0    0  0.12055817667E+03  0.10342900127E+03 -0.23897787021E+03  0.31299790655E+03  0.12500173915E+03 0.  0.
          2    1    1    2  501    0 -0.43158705621E+02 -0.25212164284E+02 -0.72909290514E+03  0.73080420868E+03  0.00000000000E+00 0. -1.
          1    1    1    2  502    0 -0.77399471051E+02 -0.78216836982E+02  0.18592914278E+04  0.18625448090E+04  0.00000000000E+00 0. -1.
         22    1    3    3    0    0  0.10171649258E+03  0.59593966193E+02 -0.23763074184E+03  0.26526600826E+03  0.00000000000E+00 0.  1.
         22    1    3    3    0    0  0.18841684096E+02  0.43835035073E+02 -0.13471283617E+01  0.47731898289E+02  0.00000000000E+00 0.  1.
</event>
<event>
 7    1  0.6235964E-006  0.7612315E+02  0.7818608E-02  0.1347411E+00
          2   -1    0    0  502    0  0.00000000000E+00  0.00000000000E+00  0.13763752895E+03  0.13763752895E+03  0.00000000000E+00 0. -1.
          1   -1    0    0  501    0 -0.00000000000E+00 -0.00000000000E+00 -0.11405386275E+04  0.11405386275E+04  0.00000000000E+00 0. -1.
         25    2    1    2    0    0  0.17280331531E+02  0.39178237101E+02 -0.80455280576E+02  0.15469982841E+03  0.12500176245E+03 0.  0.
          2    1    1    2  501    0  0.66043349500E+02 -0.27863402883E+02 -0.10038701175E+04  0.10064260062E+04  0.00000000000E+00 0. -1.
          1    1    1    2  502    0 -0.83323681031E+02 -0.11314834218E+02  0.81424299490E+02  0.11705032183E+03  0.00000000000E+00 0. -1.
         22    1    3    3    0    0 -0.96305130131E+01  0.69518941126E+02 -0.66643165379E+01  0.70498532403E+02  0.00000000000E+00 0. -1.
         22    1    3    3    0    0  0.26910844544E+02 -0.30340704024E+02 -0.73790964038E+02  0.84201296002E+02  0.00000000000E+00 0. -1.
</event>
<event>
 7    1  0.6235964E-006  0.5010861E+02  0.7818608E-02  0.1532260E+00
          2   -1    0    0  502    0  0.00000000000E+00  0.00000000000E+00  0.31706597855E+04  0.31706597855E+04  0.00000000000E+00 0. -1.
          1   -1    0    0  501    0 -0.00000000000E+00 -0.00000000000E+00 -0.76109047179E+01  0.76109047179E+01  0.00000000000E+00 0. -1.
         25    2    1    2    0    0 -0.39048566582E+02  0.15665393669E+02  0.10779417750E+04  0.10859801401E+04  0.12499679789E+03 0.  0.
          2    1    1    2  501    0  0.31751820713E+02 -0.41856896079E+02  0.19400002529E+03  0.20098802870E+03  0.00000000000E+00 0. -1.
          1    1    1    2  502    0  0.72967458681E+01  0.26191502410E+02  0.18911070805E+04  0.18913025214E+04  0.00000000000E+00 0. -1.
         22    1    3    3    0    0 -0.54067811670E+02 -0.13572173876E+02  0.20571416178E+03  0.21313340545E+03  0.00000000000E+00 0.  1.
         22    1    3    3    0    0  0.15019245088E+02  0.29237567546E+02  0.87222761318E+03  0.87284673469E+03  0.00000000000E+00 0.  1.
</event>
<event>
 7    1  0.6235964E-006  0.7870362E+02  0.7818608E-02  0.1380123E+00
          2   -1    0    0  502    0  0.00000000000E+00  0.00000000000E+00  0.67604393771E+03  0.67604393771E+03  0.00000000000E+00 0. -1.
          1   -1    0    0  501    0 -0.00000000000E+00 -0.00000000000E+00 -0.26825491966E+03  0.26825491966E+03  0.00000000000E+00 0. -1.
         25    2    1    2    0    0 -0.81606212774E+02 -0.49649298725E+02  0.25008070008E+03  0.29546831025E+03  0.12504614741E+03 0.  0.
          2    1    1    2  501    0  0.48367962597E+02 -0.21043439325E+02 -0.23887372411E+03  0.24462817134E+03  0.00000000000E+00 0. -1.
          1    1    1    2  502    0  0.33238250177E+02  0.70692738049E+02  0.39658204207E+03  0.40420237578E+03  0.00000000000E+00 0. -1.
         22    1    3    3    0    0 -0.84537594707E+02 -0.86143016224E+02  0.18866140625E+03  0.22396506507E+03  0.00000000000E+00 0. -1.
         22    1    3    3    0    0  0.29313819329E+01  0.36493717500E+02  0.61419293824E+02  0.71503245177E+02  0.00000000000E+00 0. -1.
</event>
<event>
 7    1  0.6235964E-006  0.7415212E+02  0.7818608E-02  0.1365659E+00
          2   -1    0    0  502    0  0.00000000000E+00  0.00000000000E+00  0.29740765630E+03  0.29740765630E+03  0.00000000000E+00 0. -1.
          1   -1    0    0  501    0 -0.00000000000E+00 -0.00000000000E+00 -0.63579032881E+03  0.63579032881E+03  0.00000000000E+00 0. -1.
         25    2    1    2    0    0  0.11149420268E+03 -0.19224703256E+02  0.59702684693E+02  0.17885032099E+03  0.12498992084E+03 0.  0.
          2    1    1    2  501    0 -0.57192373290E+02 -0.26594724028E+02 -0.56731376691E+03  0.57080921246E+03  0.00000000000E+00 0. -1.
          1    1    1    2  502    0 -0.54301829388E+02  0.45819427284E+02  0.16922840970E+03  0.18353845166E+03  0.00000000000E+00 0. -1.
         22    1    3    3    0    0  0.16215412940E+01  0.30172055164E+02 -0.18309810449E+02  0.35330319382E+02  0.00000000000E+00 0. -1.
         22    1    3    3    0    0  0.10987266138E+03 -0.49396758420E+02  0.78012495142E+02  0.14352000160E+03  0.00000000000E+00 0. -1.
</event>
<event>
 7    1  0.6235964E-006  0.8978448E+02  0.7818608E-02  0.1476373E+00
          2   -1    0    0  502    0  0.00000000000E+00  0.00000000000E+00  0.57024334089E+03  0.57024334089E+03  0.00000000000E+00 0. -1.
          1   -1    0    0  501    0 -0.00000000000E+00 -0.00000000000E+00 -0.50677851536E+03  0.50677851536E+03  0.00000000000E+00 0. -1.
         25    2    1    2    0    0 -0.41859169939E+02 -0.70295309683E+02 -0.92181684143E+02  0.17557240506E+03  0.12503833755E+03 0.  0.
          2    1    1    2  501    0  0.15573903210E+02 -0.15863565107E+02 -0.36872627120E+03  0.36939580701E+03  0.00000000000E+00 0. -1.
          1    1    1    2  502    0  0.26285266730E+02  0.86158874790E+02  0.52437278088E+03  0.53205364418E+03  0.00000000000E+00 0. -1.
         22    1    3    3    0    0 -0.44339199261E+02  0.64329262386E+01 -0.87929903417E+02  0.98686448138E+02  0.00000000000E+00 0. -1.
         22    1    3    3    0    0  0.24800293214E+01 -0.76728235921E+02 -0.42517807260E+01  0.76885956925E+02  0.00000000000E+00 0. -1.
</event>
<event>
 7    1  0.6235964E-006  0.9816272E+02  0.7818608E-02  0.1352330E+00
          2   -1    0    0  502    0  0.00000000000E+00  0.00000000000E+00  0.86552001375E+03  0.86552001375E+03  0.00000000000E+00 0. -1.
          1   -1    0    0  501    0 -0.00000000000E+00 -0.00000000000E+00 -0.37933212003E+03  0.37933212003E+03  0.00000000000E+00 0. -1.
         25    2    1    2    0    0  0.41454155707E+02  0.14265393313E+03 -0.20305307448E+03  0.28096063383E+03  0.12505892628E+03 0.  0.
          2    1    1    2  501    0 -0.26535874260E+02 -0.46227280687E+02 -0.12914341731E+03  0.13971090271E+03  0.00000000000E+00 0. -1.
          1    1    1    2  502    0 -0.14918281447E+02 -0.96426652444E+02  0.81838438551E+03  0.82418059724E+03  0.00000000000E+00 0. -1.
         22    1    3    3    0    0 -0.37318078968E+02  0.39027077842E+02 -0.10473308367E+03  0.11783365664E+03  0.00000000000E+00 0. -1.
         22    1    3    3    0    0  0.78772234675E+02  0.10362685529E+03 -0.98319990817E+02  0.16312697719E+03  0.00000000000E+00 0. -1.
</event>
<event>
 7    1  0.6235964E-006  0.5432055E+02  0.7818608E-02  0.1503345E+00
          2   -1    0    0  502    0  0.00000000000E+00  0.00000000000E+00  0.15006323498E+03  0.15006323498E+03  0.00000000000E+00 0. -1.
          1   -1    0    0  501    0 -0.00000000000E+00 -0.00000000000E+00 -0.71134436438E+03  0.71134436438E+03  0.00000000000E+00 0. -1.
         25    2    1    2    0    0 -0.67660567736E+02  0.49410787864E+02 -0.10798684942E+03  0.18521774753E+03  0.12500030388E+03 0.  0.
          2    1    1    2  501    0  0.43633865767E+02 -0.30707242917E+02 -0.56137355066E+03  0.56390346017E+03  0.00000000000E+00 0. -1.
          1    1    1    2  502    0  0.24026701969E+02 -0.18703544947E+02  0.10807927068E+03  0.11228639166E+03  0.00000000000E+00 0. -1.
         22    1    3    3    0    0  0.17467825726E+02  0.44520700113E+01 -0.84123418562E+02  0.86033106497E+02  0.00000000000E+00 0.  1.
         22    1    3    3    0    0 -0.85128393463E+02  0.44958717853E+02 -0.23863430857E+02  0.99184641033E+02  0.00000000000E+00 0.  1.
</event>
<event>
 7    1  0.6235964E-006  0.1061796E+03  0.7818608E-02  0.1447388E+00
          2   -1    0    0  502    0  0.00000000000E+00  0.00000000000E+00  0.36749300366E+03  0.36749300366E+03  0.00000000000E+00 0. -1.
          1   -1    0    0  501    0 -0.00000000000E+00 -0.00000000000E+00 -0.16889194925E+03  0.16889194925E+03  0.00000000000E+00 0. -1.
         25    2    1    2    0    0 -0.45383881217E+02  0.92245860304E+02  0.44836432632E+02  0.16794016726E+03  0.12499839467E+03 0.  0.
          2    1    1    2  501    0  0.19937275274E+02  0.11845771769E+02 -0.94890326860E+02  0.97683117200E+02  0.00000000000E+00 0. -1.
          1    1    1    2  502    0  0.25446605943E+02 -0.10409163207E+03  0.24865494864E+03  0.27076166845E+03  0.00000000000E+00 0. -1.
         22    1    3    3    0    0 -0.82706660792E+02  0.31417925985E+02  0.11653084580E+02  0.89237168225E+02  0.00000000000E+00 0. -1.
         22    1    3    3    0    0  0.37322779575E+02  0.60827934318E+02  0.33183348052E+02  0.78702999032E+02  0.00000000000E+00 0. -1.
</event>
<event>
 7    1  0.6235964E-006  0.3944707E+02  0.7818608E-02  0.1599598E+00
          2   -1    0    0  502    0  0.00000000000E+00  0.00000000000E+00  0.10857911384E+04  0.10857911384E+04  0.00000000000E+00 0. -1.
          1   -1    0    0  501    0 -0.00000000000E+00 -0.00000000000E+00 -0.11926565843E+02  0.11926565843E+02  0.00000000000E+00 0. -1.
         25    2    1    2    0    0 -0.13088636203E+02  0.37552309629E+02  0.67365491072E+03  0.68630666045E+03  0.12499762032E+03 0.  0.
          2    1    1    2  501    0 -0.18687452286E+02 -0.12725448126E+02  0.23723091979E+02  0.32771069497E+02  0.00000000000E+00 0. -1.
          1    1    1    2  502    0  0.31776088489E+02 -0.24826861504E+02  0.37648656989E+03  0.37863997433E+03  0.00000000000E+00 0. -1.
         22    1    3    3    0    0 -0.35450674126E+02  0.48002775846E+02  0.14135621106E+03  0.15343596446E+03  0.00000000000E+00 0. -1.
         22    1    3    3    0    0  0.22362037923E+02 -0.10450466217E+02  0.53229869966E+03  0.53287069599E+03  0.00000000000E+00 0. -1.
</event>
<event>
 7    1  0.6235964E-006  0.3592122E+02  0.7818608E-02  0.1541700E+00
          2   -1    0    0  502    0  0.00000000000E+00  0.00000000000E+00  0.10556392297E+04  0.10556392297E+04  0.00000000000E+00 0. -1.
          1   -1    0    0  501    0 -0.00000000000E+00 -0.00000000000E+00 -0.11903205229E+04  0.11903205229E+04  0.00000000000E+00 0. -1.
         25    2    1    2    0    0 -0.16233352793E+00  0.41094356819E+02  0.36125040530E+03  0.38446745698E+03  0.12499839053E+03 0.  0.
          2    1    1    2  501    0  0.29666959760E+02 -0.19783044499E+02 -0.11779569778E+04  0.11784965587E+04  0.00000000000E+00 0. -1.
          1    1    1    2  502    0 -0.29504626232E+02 -0.21311312320E+02  0.68202527934E+03  0.68299573693E+03  0.00000000000E+00 0. -1.
         22    1    3    3    0    0 -0.29253528701E+02 -0.81259933516E+01  0.15626770494E+02  0.34146693332E+02  0.00000000000E+00 0.  1.
         22    1    3    3    0    0  0.29091195173E+02  0.49220350171E+02  0.34562363481E+03  0.35032076365E+03  0.00000000000E+00 0.  1.
</event>
<event>
 7    1  0.6235964E-006  0.1191904E+03  0.7818608E-02  0.1291464E+00
          2   -1    0    0  502    0  0.00000000000E+00  0.00000000000E+00  0.63446645143E+03  0.63446645143E+03  0.00000000000E+00 0. -1.
          1   -1    0    0  501    0 -0.00000000000E+00 -0.00000000000E+00 -0.39607135356E+03  0.39607135356E+03  0.00000000000E+00 0. -1.
         25    2    1    2    0    0 -0.13928646768E+02  0.65979765316E+02  0.21618764901E+02  0.14366855304E+03  0.12500378196E+03 0.  0.
          2    1    1    2  501    0  0.82294718148E+02 -0.98053064703E+02 -0.32007942200E+03  0.34472838658E+03  0.00000000000E+00 0. -1.
          1    1    1    2  502    0 -0.68366071380E+02  0.32073299387E+02  0.53685575497E+03  0.54214086536E+03  0.00000000000E+00 0. -1.
         22    1    3    3    0    0 -0.61603935280E+02  0.70808467729E+02  0.18392839078E+02  0.95640893312E+02  0.00000000000E+00 0. -1.
         22    1    3    3    0    0  0.47675288512E+02 -0.48287024126E+01  0.32259258230E+01  0.48027659730E+02  0.00000000000E+00 0. -1.
</event>
<event>
 7    1  0.6235964E-006  0.1346124E+03  0.7818608E-02  0.1248142E+00
          2   -1    0    0  502    0  0.00000000000E+00  0.00000000000E+00  0.23364587520E+03  0.23364587520E+03  0.00000000000E+00 0. -1.
          1   -1    0    0  501    0 -0.00000000000E+00 -0.00000000000E+00 -0.10850169090E+04  0.10850169090E+04  0.00000000000E+00 0. -1.
         25    2    1    2    0    0  0.12132375392E+03 -0.64719860157E+02 -0.79471476362E+02  0.20211197258E+03  0.12500168135E+03 0.  0.
          2    1    1    2  501    0  0.14462225814E+02  0.10064565311E+03 -0.91230293260E+03  0.91795171131E+03  0.00000000000E+00 0. -1.
          1    1    1    2  502    0 -0.13578597974E+03 -0.35925792955E+02  0.14040337516E+03  0.19859910032E+03  0.00000000000E+00 0. -1.
         22    1    3    3    0    0  0.54405615228E+02 -0.93914979669E+02 -0.25974346023E+02  0.11160045262E+03  0.00000000000E+00 0. -1.
         22    1    3    3    0    0  0.66918138694E+02  0.29195119512E+02 -0.53497130340E+02  0.90511519953E+02  0.00000000000E+00 0. -1.
</event>
<event>
 7    1  0.6235964E-006  0.9527096E+02  0.7818608E-02  0.1378924E+00
          2   -1    0    0  502    0  0.00000000000E+00  0.00000000000E+00  0.24967919174E+03  0.24967919174E+03  0.00000000000E+00 0. -1.
          1   -1    0    0  501    0 -0.00000000000E+00 -0.00000000000E+00 -0.72398602429E+03  0.72398602429E+03  0.00000000000E+00 0. -1.
         25    2    1    2    0    0  0.12824534648E+03 -0.31364671516E+02 -0.17220324930E+03  0.25041901090E+03  0.12500044175E+03 0.  0.
          2    1    1    2  501    0 -0.84429648544E+02  0.35424927356E+02 -0.50622350451E+03  0.51443709776E+03  0.00000000000E+00 0. -1.
          1    1    1    2  502    0 -0.43815697934E+02 -0.40602558402E+01  0.20411992127E+03  0.20880910737E+03  0.00000000000E+00 0. -1.
         22    1    3    3    0    0  0.71150732815E+02  0.27278252550E+02 -0.14564016445E+03  0.16437027512E+03  0.00000000000E+00 0. -1.
         22    1    3    3    0    0  0.57094613662E+02 -0.58642924066E+02 -0.26563084850E+02  0.86048735778E+02  0.00000000000E+00 0. -1.
</event>
<event>
 7    1  0.6235964E-006  0.4303735E+02  0.7818608E-02  0.1511627E+00
          2   -1    0    0  502    0  0.00000000000E+00  0.00000000000E+00  0.19004785434E+03  0.19004785434E+03  0.00000000000E+00 0. -1.
          1   -1    0    0  501    0 -0.00000000000E+00 -0.00000000000E+00 -0.33487228038E+03  0.33487228038E+03  0.00000000000E+00 0. -1.
         25    2    1    2    0    0  0.67391586624E+02 -0.13057116365E+02  0.11626689385E+03  0.18398035348E+03  0.12497465992E+03 0.  0.
          2    1    1    2  501    0 -0.35766864684E+02 -0.63504516390E+01 -0.29101418449E+03  0.29327265883E+03  0.00000000000E+00 0. -1.
          1    1    1    2  502    0 -0.31624721940E+02  0.19407568003E+02  0.29922864593E+02  0.47667122412E+02  0.00000000000E+00 0. -1.
         22    1    3    3    0    0  0.14189119422E+02 -0.12881433875E+02  0.12806017544E+03  0.12948618066E+03  0.00000000000E+00 0.  1.
         22    1    3    3    0    0  0.53202467202E+02 -0.17568248966E+00 -0.11793281580E+02  0.54494172818E+02  0.00000000000E+00 0.  1.
</event>
<event>
 7    1  0.6235964E-006  0.5166754E+02  0.7818608E-02  0.1467284E+00
          2   -1    0    0  502    0  0.00000000000E+00  0.00000000000E+00  0.20769659248E+04  0.20769659248E+04  0.00000000000E+00 0. -1.
          1   -1    0    0  501    0 -0.00000000000E+00 -0.00000000000E+00 -0.24498439720E+03  0.24498439720E+03  0.00000000000E+00 0. -1.
         25    2    1    2    0    0  0.44160889282E+02  0.20084242005E+02 -0.33916728180E+02  0.13830682958E+03  0.12499949495E+03 0.  0.
          2    1    1    2  501    0 -0.16441916044E+02 -0.50596024290E+02 -0.15420272114E+03  0.16312195893E+03  0.00000000000E+00 0. -1.
          1    1    1    2  502    0 -0.27718973238E+02  0.30511782285E+02  0.20201009769E+04  0.20205215335E+04  0.00000000000E+00 0. -1.
         22    1    3    3    0    0 -0.43737646118E+02  0.13468876486E+02 -0.82825165372E+01  0.46507982131E+02  0.00000000000E+00 0. -1.
         22    1    3    3    0    0  0.87898535400E+02  0.66153655196E+01 -0.25634211643E+02  0.91798847449E+02  0.00000000000E+00 0. -1.
</event>
<event>
 7    1  0.6235964E-006  0.7018224E+02  0.7818608E-02  0.1516274E+00
          2   -1    0    0  502    0  0.00000000000E+00  0.00000000000E+00  0.37514102522E+03  0.37514102522E+03  0.00000000000E+00 0. -1.
          1   -1    0    0  501    0 -0.00000000000E+00 -0.00000000000E+00 -0.43236427789E+03  0.43236427789E+03  0.00000000000E+00 0. -1.
         25    2    1    2    0    0 -0.66996723156E+02  0.61670533060E+02 -0.16779542535E+03  0.22819292365E+03  0.12499956030E+03 0.  0.
          2    1    1    2  501    0  0.13427673091E+02 -0.16905103750E+02 -0.23032796483E+03  0.23133753763E+03  0.00000000000E+00 0. -1.
          1    1    1    2  502    0  0.53569050065E+02 -0.44765429310E+02  0.34090013751E+03  0.34797484182E+03  0.00000000000E+00 0. -1.
         22    1    3    3    0    0 -0.75551762540E+02  0.94174837702E+02 -0.12516300072E+03  0.17390441521E+03  0.00000000000E+00 0.  1.
         22    1    3    3    0    0  0.85550393839E+01 -0.32504304643E+02 -0.42632424635E+02  0.54288508447E+02  0.00000000000E+00 0.  1.
</event>
<event>
 7    1  0.6235964E-006  0.5233967E+02  0.7818608E-02  0.1448309E+00
          2   -1    0    0  502    0  0.00000000000E+00  0.00000000000E+00  0.62441948807E+03  0.62441948807E+03  0.00000000000E+00 0. -1.
          1   -1    0    0  501    0 -0.00000000000E+00 -0.00000000000E+00 -0.48916577066E+02  0.48916577066E+02  0.00000000000E+00 0. -1.
         25    2    1    2    0    0 -0.11497238405E+02  0.42285183507E+02  0.25535948339E+03  0.28767048063E+03  0.12500246571E+03 0.  0.
          2    1    1    2  501    0  0.46711150118E+02  0.12373264249E+01 -0.12478611253E+02  0.48365052061E+02  0.00000000000E+00 0. -1.
          1    1    1    2  502    0 -0.35213911713E+02 -0.43522509932E+02  0.33262203886E+03  0.33730053244E+03  0.00000000000E+00 0. -1.
         22    1    3    3    0    0  0.17760157577E+02 -0.40716919668E+02  0.82722751700E+02  0.93895390692E+02  0.00000000000E+00 0.  1.
         22    1    3    3    0    0 -0.29257395982E+02  0.83002103175E+02  0.17263673169E+03  0.19377508994E+03  0.00000000000E+00 0.  1.
</event>
<event>
 7    1  0.6235964E-006  0.7984960E+02  0.7818608E-02  0.1348516E+00
          2   -1    0    0  502    0  0.00000000000E+00  0.00000000000E+00  0.69453967815E+03  0.69453967815E+03  0.00000000000E+00 0. -1.
          1   -1    0    0  501    0 -0.00000000000E+00 -0.00000000000E+00 -0.74279985098E+03  0.74279985098E+03  0.00000000000E+00 0. -1.
         25    2    1    2    0    0 -0.11543821768E+03  0.44638180001E+02 -0.30688614592E+03  0.35372695611E+03  0.12500041482E+03 0.  0.
          2    1    1    2  501    0  0.36729869862E+02 -0.56860743191E+02 -0.40732683579E+03  0.41291328219E+03  0.00000000000E+00 0. -1.
          1    1    1    2  502    0  0.78708347818E+02  0.12222563190E+02  0.66595280887E+03  0.67069929083E+03  0.00000000000E+00 0. -1.
         22    1    3    3    0    0 -0.54061272748E+02  0.78944070849E+02 -0.23224724544E+03  0.25118433580E+03  0.00000000000E+00 0. -1.
         22    1    3    3    0    0 -0.61376944932E+02 -0.34305890848E+02 -0.74638900477E+02  0.10254262031E+03  0.00000000000E+00 0. -1.
</event>
<event>
 7    1  0.6235964E-006  0.9344940E+02  0.7818608E-02  0.1384761E+00
          2   -1    0    0  502    0  0.00000000000E+00  0.00000000000E+00  0.65297906611E+03  0.65297906611E+03  0.00000000000E+00 0. -1.
          1   -1    0    0  501    0 -0.00000000000E+00 -0.00000000000E+00 -0.47743938855E+02  0.47743938855E+02  0.00000000000E+00 0. -1.
         25    2    1    2    0    0  0.82342460367E+02  0.66903806783E+02  0.16400910041E+03  0.23191243715E+03  0.12501197281E+03 0.  0.
          2    1    1    2  501    0 -0.39893809350E+02  0.15450485828E+02  0.45789522069E+02  0.62665092899E+02  0.00000000000E+00 0. -1.
          1    1    1    2  502    0 -0.42448651017E+02 -0.82354292611E+02  0.39543650478E+03  0.40614547491E+03  0.00000000000E+00 0. -1.
         22    1    3    3    0    0  0.44032631657E+02  0.37767247606E+02  0.17342420437E+03  0.18286933123E+03  0.00000000000E+00 0. -1.
         22    1    3    3    0    0  0.38309828710E+02  0.29136559177E+02 -0.94151039560E+01  0.49043105927E+02  0.00000000000E+00 0. -1.
</event>
<event>
 7    1  0.6235964E-006  0.1497053E+03  0.7818608E-02  0.1245733E+00
          2   -1    0    0  502    0  0.00000000000E+00  0.00000000000E+00  0.26269676982E+03  0.26269676982E+03  0.00000000000E+00 0. -1.
          1   -1    0    0  501    0 -0.00000000000E+00 -0.00000000000E+00 -0.64424725103E+03  0.64424725103E+03  0.00000000000E+00 0. -1.
         25    2    1    2    0    0  0.24097208965E+02 -0.66182250903E+02  0.50086699515E+02  0.15196415461E+03  0.12499464390E+03 0.  0.
          2    1    1    2  501    0 -0.75355428405E+01  0.15837337264E+03 -0.56790595158E+03  0.58962367609E+03  0.00000000000E+00 0. -1.
          1    1    1    2  502    0 -0.16561666125E+02 -0.92191121737E+02  0.13626877085E+03  0.16535619015E+03  0.00000000000E+00 0. -1.
         22    1    3    3    0    0  0.63353084921E+02 -0.57824291829E+02 -0.25001070217E+01  0.85810912066E+02  0.00000000000E+00 0.  1.
         22    1    3    3    0    0 -0.39255875956E+02 -0.83579590740E+01  0.52586806537E+02  0.66153242541E+02  0.00000000000E+00 0.  1.
</event>
<event>
 7    1  0.6235964E-006  0.2001926E+03  0.7818608E-02  0.1293576E+00
          2   -1    0    0  502    0  0.00000000000E+00  0.00000000000E+00  0.12902576408E+04  0.12902576408E+04  0.00000000000E+00 0. -1.
          1   -1    0    0  501    0 -0.00000000000E+00 -0.00000000000E+00 -0.97730110203E+03  0.97730110203E+03  0.00000000000E+00 0. -1.
         25    2    1    2    0    0 -0.17873974271E+03 -0.14966421483E+03  0.37249671123E+03  0.45686570998E+03  0.12500081703E+03 0.  0.
          2    1    1    2  501    0  0.13473779704E+03  0.14698777389E+03 -0.92391891309E+03  0.94519090008E+03  0.00000000000E+00 0. -1.
          1    1    1    2  502    0  0.44001945664E+02  0.26764409468E+01  0.86437874061E+03  0.86550213274E+03  0.00000000000E+00 0. -1.
         22    1    3    3    0    0 -0.37185169615E+02 -0.69160345070E+02  0.22066280489E+03  0.23421776967E+03  0.00000000000E+00 0. -1.
         22    1    3    3    0    0 -0.14155457309E+03 -0.80503869764E+02  0.15183390634E+03  0.22264794031E+03  0.00000000000E+00 0. -1.
</event>
<event>
 7    1  0.6235964E-006  0.5971806E+02  0.7818608E-02  0.1425095E+00
          2   -1    0    0  502    0  0.00000000000E+00  0.00000000000E+00  0.41911771129E+03  0.41911771129E+03  0.00000000000E+00 0. -1.
          1   -1    0    0  501    0 -0.00000000000E+00 -0.00000000000E+00 -0.10459163361E+04  0.10459163361E+04  0.00000000000E+00 0. -1.
         25    2    1    2    0    0 -0.18210409799E+02  0.21585527329E+02  0.41970048230E+02  0.13484076984E+03  0.12499197673E+03 0.  0.
          2    1    1    2  501    0 -0.13490498926E+02 -0.58624097292E+02 -0.99677250592E+03  0.99858610390E+03  0.00000000000E+00 0. -1.
          1    1    1    2  502    0  0.31700908725E+02  0.37038569964E+02  0.32800383284E+03  0.33160717368E+03  0.00000000000E+00 0. -1.
         22    1    3    3    0    0  0.25355993582E+02 -0.17543305667E+01 -0.35068707349E+02  0.43310718320E+02  0.00000000000E+00 0.  1.
         22    1    3    3    0    0 -0.43566403381E+02  0.23339857896E+02  0.77038755579E+02  0.91530051520E+02  0.00000000000E+00 0.  1.
</event>
<event>
 7    1  0.6235964E-006  0.5867641E+02  0.7818608E-02  0.1476892E+00
          2   -1    0    0  502    0  0.00000000000E+00  0.00000000000E+00  0.12816743555E+04  0.12816743555E+04  0.00000000000E+00 0. -1.
          1   -1    0    0  501    0 -0.00000000000E+00 -0.00000000000E+00 -0.21756071433E+04  0.21756071433E+04  0.00000000000E+00 0. -1.
         25    2    1    2    0    0 -0.64451509057E+02 -0.66379066828E+02  0.59104227222E+03  0.61116051780E+03  0.12500413364E+03 0.  0.
          2    1    1    2  501    0  0.41586750664E+02  0.41362302099E+02 -0.21647285971E+04  0.21655230770E+04  0.00000000000E+00 0. -1.
          1    1    1    2  502    0  0.22864758394E+02  0.25016764729E+02  0.67975353715E+03  0.68059790403E+03  0.00000000000E+00 0. -1.
         22    1    3    3    0    0 -0.94890912338E+02 -0.75315640739E+02  0.50848796898E+03  0.52272052339E+03  0.00000000000E+00 0. -1.
         22    1    3    3    0    0  0.30439403280E+02  0.89365739106E+01  0.82554303247E+02  0.88439994403E+02  0.00000000000E+00 0. -1.
</event>
<event>
 7    1  0.6235964E-006  0.5776662E+02  0.7818608E-02  0.1449256E+00
          2   -1    0    0  502    0  0.00000000000E+00  0.00000000000E+00  0.14682501001E+04  0.14682501001E+04  0.00000000000E+00 0. -1.
          1   -1    0    0  501    0 -0.00000000000E+00 -0.00000000000E+00 -0.41176702920E+02  0.41176702920E+02  0.00000000000E+00 0. -1.
         25    2    1    2    0    0 -0.29917766732E+02 -0.48945218773E+02  0.53298047447E+03  0.55043596384E+03  0.12498342660E+03 0.  0.
          2    1    1    2  501    0  0.40996109388E+02 -0.93226491079E+01 -0.17450039973E+02  0.45520288514E+02  0.00000000000E+00 0. -1.
          1    1    1    2  502    0 -0.11078342656E+02  0.58267867881E+02  0.91154296265E+03  0.91347055062E+03  0.00000000000E+00 0. -1.
         22    1    3    3    0    0 -0.58651768650E+02  0.17734874398E+02  0.18244440461E+03  0.19245912945E+03  0.00000000000E+00 0.  1.
         22    1    3    3    0    0  0.28734001917E+02 -0.66680093171E+02  0.35053606986E+03  0.35797683439E+03  0.00000000000E+00 0.  1.
</event>
<event>
 7    1  0.6235964E-006  0.6531269E+02  0.7818608E-02  0.1396574E+00
          2   -1    0    0  502    0  0.00000000000E+00  0.00000000000E+00  0.37132485364E+03  0.37132485364E+03  0.00000000000E+00 0. -1.
          1   -1    0    0  501    0 -0.00000000000E+00 -0.00000000000E+00 -0.33760889643E+03  0.33760889643E+03  0.00000000000E+00 0. -1.
         25    2    1    2    0    0  0.37651360832E+02 -0.29047878838E+02  0.16000990994E+03  0.20853903034E+03  0.12499580657E+03 0.  0.
          2    1    1    2  501    0  0.40588421605E+01  0.65923245177E+02 -0.30559403841E+03  0.31265006760E+03  0.00000000000E+00 0. -1.
          1    1    1    2  502    0 -0.41710202993E+02 -0.36875366339E+02  0.17930008568E+03  0.18774465213E+03  0.00000000000E+00 0. -1.
         22    1    3    3    0    0  0.48582605952E+02 -0.29295670879E+02  0.93671677162E+01  0.57499997951E+02  0.00000000000E+00 0. -1.
         22    1    3    3    0    0 -0.10931245120E+02  0.24779204079E+00  0.15064274222E+03  0.15103903239E+03  0.00000000000E+00 0. -1.
</event>
<event>
 7    1  0.6235964E-006  0.1320932E+03  0.7818608E-02  0.1250459E+00
          2   -1    0    0  502    0  0.00000000000E+00  0.00000000000E+00  0.25606611934E+04  0.25606611934E+04  0.00000000000E+00 0. -1.
          1   -1    0    0  501    0 -0.00000000000E+00 -0.00000000000E+00 -0.83658064571E+03  0.83658064571E+03  0.00000000000E+00 0. -1.
         25    2    1    2    0    0 -0.53973447317E+02 -0.19706901463E+03  0.10486533886E+04  0.10756617369E+04  0.12499965258E+03 0.  0.
          2    1    1    2  501    0  0.85059044389E+02  0.10071415015E+03 -0.81607076636E+03  0.82664979089E+03  0.00000000000E+00 0. -1.
          1    1    1    2  502    0 -0.31085597072E+02  0.96354864483E+02  0.14914979254E+04  0.14949303114E+04  0.00000000000E+00 0. -1.
         22    1    3    3    0    0  0.21694666193E+02  0.63422804696E+00  0.19277037822E+03  0.19398834889E+03  0.00000000000E+00 0.  1.
         22    1    3    3    0    0 -0.75668113510E+02 -0.19770324268E+03  0.85588301043E+03  0.88167338800E+03  0.00000000000E+00 0.  1.
</event>
<event>
 7    1  0.6235964E-006  0.9520135E+02  0.7818608E-02  0.1326149E+00
          2   -1    0    0  502    0  0.00000000000E+00  0.00000000000E+00  0.20389787182E+04  0.20389787182E+04  0.00000000000E+00 0. -1.
          1   -1    0    0  501    0 -0.00000000000E+00 -0.00000000000E+00 -0.76537547629E+03  0.76537547629E+03  0.00000000000E+00 0. -1.
         25    2    1    2    0    0  0.14175505600E+03 -0.80797819763E+02  0.29056019496E+03  0.35590980688E+03  0.12499512054E+03 0.  0.
          2    1    1    2  501    0 -0.84698860718E+02  0.42047853942E+02 -0.72895239141E+03  0.73506020703E+03  0.00000000000E+00 0. -1.
          1    1    1    2  502    0 -0.57056195283E+02  0.38749965821E+02  0.17119954384E+04  0.17133841806E+04  0.00000000000E+00 0. -1.
         22    1    3    3    0    0  0.47149744357E+02  0.18885792788E+02  0.15403610087E+03  0.16219399475E+03  0.00000000000E+00 0. -1.
         22    1    3    3    0    0  0.94605311644E+02 -0.99683612551E+02  0.13652409409E+03  0.19371581213E+03  0.00000000000E+00 0. -1.
</event>
<event>
 7    1  0.6235964E-006  0.8039709E+02  0.7818608E-02  0.1348149E+00
          2   -1    0    0  502    0  0.00000000000E+00  0.00000000000E+00  0.18256515942E+04  0.18256515942E+04  0.00000000000E+00 0. -1.
          1   -1    0    0  501    0 -0.00000000000E+00 -0.00000000000E+00 -0.14617349325E+03  0.14617349325E+03  0.00000000000E+00 0. -1.
         25    2    1    2    0    0  0.30704621368E+02 -0.28876483386E+01  0.18115697568E+02  0.13001654859E+03  0.12500004849E+03 0.  0.
          2    1    1    2  501    0 -0.13198670590E+02  0.81355691784E+02 -0.70271118245E+02  0.10830966508E+03  0.00000000000E+00 0. -1.
          1    1    1    2  502    0 -0.17505950778E+02 -0.78468043445E+02  0.17316335216E+04  0.17334988738E+04  0.00000000000E+00 0. -1.
         22    1    3    3    0    0 -0.31288829374E+02  0.41752646069E+02  0.10727026580E+02  0.53266719409E+02  0.00000000000E+00 0.  1.
         22    1    3    3    0    0  0.61993450742E+02 -0.44640294407E+02  0.73886709881E+01  0.76749829176E+02  0.00000000000E+00 0.  1.
</event>
<event>
 7    1  0.6235964E-006  0.7152130E+02  0.7818608E-02  0.1413474E+00
          2   -1    0    0  502    0  0.00000000000E+00  0.00000000000E+00  0.39340333853E+03  0.39340333853E+03  0.00000000000E+00 0. -1.
          1   -1    0    0  501    0 -0.00000000000E+00 -0.00000000000E+00 -0.26693535128E+04  0.26693535128E+04  0.00000000000E+00 0. -1.
         25    2    1    2    0    0  0.32063013896E+01  0.57567288091E+02 -0.41221451572E+02  0.14369093437E+03  0.12499441397E+03 0.  0.
          2    1    1    2  501    0 -0.44464070492E+02  0.21568546067E+01 -0.25728527680E+04  0.25732378575E+04  0.00000000000E+00 0. -1.
          1    1    1    2  502    0  0.41257769102E+02 -0.59724142698E+02  0.33812404526E+03  0.34582805947E+03  0.00000000000E+00 0. -1.
         22    1    3    3    0    0  0.39269987511E+02  0.43344224133E+02 -0.73016142005E+02  0.93553250494E+02  0.00000000000E+00 0. -1.
         22    1    3    3    0    0 -0.36063686122E+02  0.14223063958E+02  0.31794690432E+02  0.50137683879E+02  0.00000000000E+00 0. -1.
</event>
<event>
 7    1  0.6235964E-006  0.7951778E+02  0.7818608E-02  0.1352025E+00
          2   -1    0    0  502    0  0.00000000000E+00  0.00000000000E+00  0.91009322970E+03  0.91009322970E+03  0.00000000000E+00 0. -1.
          1   -1    0    0  501    0 -0.00000000000E+00 -0.00000000000E+00 -0.33871024987E+03  0.33871024987E+03  0.00000000000E+00 0. -1.
         25    2    1    2    0    0 -0.13340106219E+02 -0.49389170526E+02  0.19124354463E+03  0.23413442323E+03  0.12501034430E+03 0.  0.
          2    1    1    2  501    0 -0.64341129554E+02  0.14573516814E+02 -0.31119629869E+03  0.31811209449E+03  0.00000000000E+00 0. -1.
          1    1    1    2  502    0  0.77681235773E+02  0.34815653712E+02  0.69133573389E+03  0.69655696184E+03  0.00000000000E+00 0. -1.
         22    1    3    3    0    0 -0.22988363768E+02 -0.77537485710E+01 -0.11561631177E+02  0.26874835834E+02  0.00000000000E+00 0. -1.
         22    1    3    3    0    0  0.96482575493E+01 -0.41635421955E+02  0.20280517580E+03  0.20725958740E+03  0.00000000000E+00 0. -1.
</event>
<event>
 7    1  0.6235964E-006  0.6175155E+02  0.7818608E-02  0.1444441E+00
          2   -1    0    0  502    0  0.00000000000E+00  0.00000000000E+00  0.88484318276E+03  0.88484318276E+03  0.00000000000E+00 0. -1.
          1   -1    0    0  501    0 -0.00000000000E+00 -0.00000000000E+00 -0.83994575459E+02  0.83994575459E+02  0.00000000000E+00 0. -1.
         25    2    1    2    0    0  0.77449909348E+02 -0.32508559011E+01  0.15675927222E+03  0.21496065165E+03  0.12500222321E+03 0.  0.
          2    1    1    2  501    0 -0.26387934195E+02 -0.31060461800E+02 -0.45766690180E+02  0.61283482999E+02  0.00000000000E+00 0. -1.
          1    1    1    2  502    0 -0.51061975152E+02  0.34311317702E+02  0.68985602526E+03  0.69259362357E+03  0.00000000000E+00 0. -1.
         22    1    3    3    0    0  0.44751383000E+02  0.59601347679E+02  0.64001718213E+02  0.98240657876E+02  0.00000000000E+00 0.  1.
         22    1    3    3    0    0  0.32698526348E+02 -0.62852203580E+02  0.92757554009E+02  0.11671999377E+03  0.00000000000E+00 0.  1.
</event>
<event>
 7    1  0.6235964E-006  0.8345369E+02  0.7818608E-02  0.1418283E+00
          2   -1    0    0  502    0  0.00000000000E+00  0.00000000000E+00  0.79664329380E+03  0.79664329380E+03  0.00000000000E+00 0. -1.
          1   -1    0    0  501    0 -0.00000000000E+00 -0.00000000000E+00 -0.38218820412E+03  0.38218820412E+03  0.00000000000E+00 0. -1.
         25    2    1    2    0    0 -0.55593189801E+02  0.10395266172E+03  0.27721564374E+02  0.17404028612E+03  0.12499910971E+03 0.  0.
          2    1    1    2  501    0  0.23789291736E+02 -0.28021664745E+02 -0.30548812892E+03  0.30769163298E+03  0.00000000000E+00 0. -1.
          1    1    1    2  502    0  0.31803898065E+02 -0.75930996978E+02  0.69222165422E+03  0.69709957883E+03  0.00000000000E+00 0. -1.
         22    1    3    3    0    0 -0.30426748550E+02  0.96328745675E+02 -0.34292249644E+02  0.10668164161E+03  0.00000000000E+00 0. -1.
         22    1    3    3    0    0 -0.25166441251E+02  0.76239160480E+01  0.62013814018E+02  0.67358644510E+02  0.00000000000E+00 0. -1.
</event>
<event>
 7    1  0.6235964E-006  0.8955219E+02  0.7818608E-02  0.1308686E+00
          2   -1    0    0  502    0  0.00000000000E+00  0.00000000000E+00  0.85924542073E+03  0.85924542073E+03  0.00000000000E+00 0. -1.
          1   -1    0    0  501    0 -0.00000000000E+00 -0.00000000000E+00 -0.88892127740E+03  0.88892127740E+03  0.00000000000E+00 0. -1.
         25    2    1    2    0    0 -0.75829917199E+01 -0.19279604080E+02 -0.60259106037E+03  0.61576843788E+03  0.12500231262E+03 0.  0.
          2    1    1    2  501    0 -0.82133763716E+02  0.24659620391E+02 -0.27072573115E+03  0.28398322754E+03  0.00000000000E+00 0. -1.
          1    1    1    2  502    0  0.89716755436E+02 -0.53800163110E+01  0.84364093484E+03  0.84841503270E+03  0.00000000000E+00 0. -1.
         22    1    3    3    0    0  0.45004053627E+02  0.30312739932E+02 -0.27399597399E+03  0.27931706143E+03  0.00000000000E+00 0.  1.
         22    1    3    3    0    0 -0.52587045347E+02 -0.49592344012E+02 -0.32859508638E+03  0.33645137645E+03  0.00000000000E+00 0.  1.
</event>
<event>
 7    1  0.6235964E-006  0.8552222E+02  0.7818608E-02  0.1364883E+00
          2   -1    0    0  502    0  0.00000000000E+00  0.00000000000E+00  0.11943300941E+04  0.11943300941E+04  0.00000000000E+00 0. -1.
          1   -1    0    0  501    0 -0.00000000000E+00 -0.00000000000E+00 -0.72471127782E+03  0.72471127782E+03  0.00000000000E+00 0. -1.
         25    2    1    2    0    0 -0.13668648660E+03 -0.30250456013E+02 -0.48538282206E+03  0.52040424128E+03  0.12500321868E+03 0.  0.
          2    1    1    2  501    0  0.52379974169E+02  0.16913735705E+02 -0.21682677794E+03  0.22370424176E+03  0.00000000000E+00 0. -1.
          1    1    1    2  502    0  0.84306512433E+02  0.13336720308E+02  0.11718284163E+04  0.11749328889E+04  0.00000000000E+00 0. -1.
         22    1    3    3    0    0 -0.15534909457E+03 -0.28187087351E+02 -0.35304479683E+03  0.38674084558E+03  0.00000000000E+00 0. -1.
         22    1    3    3    0    0  0.18662607963E+02 -0.20633686615E+01 -0.13233802524E+03  0.13366339570E+03  0.00000000000E+00 0. -1.
</event>
<event>
 7    1  0.6235964E-006  0.4986239E+02  0.7818608E-02  0.1558270E+00
          2   -1    0    0  502    0  0.00000000000E+00  0.00000000000E+00  0.73388906925E+03  0.73388906925E+03  0.00000000000E+00 0. -1.
          1   -1    0    0  501    0 -0.00000000000E+00 -0.00000000000E+00 -0.34351677909E+03  0.34351677909E+03  0.00000000000E+00 0. -1.
         25    2    1    2    0    0  0.18517033420E+01 -0.26799290870E+02 -0.19118036901E+03  0.22999301320E+03  0.12500088731E+03 0.  0.
          2    1    1    2  501    0  0.16028841602E+01 -0.23039022099E+02 -0.13104582850E+03  0.13306530331E+03  0.00000000000E+00 0. -1.
          1    1    1    2  502    0 -0.34545875022E+01  0.49838312969E+02  0.71259848767E+03  0.71434753184E+03  0.00000000000E+00 0. -1.
         22    1    3    3    0    0 -0.23076420261E+02  0.17460796047E+02  0.31726742109E+01  0.29111276721E+02  0.00000000000E+00 0.  1.
         22    1    3    3    0    0  0.24928123603E+02 -0.44260086917E+02 -0.19435304323E+03  0.20088173648E+03  0.00000000000E+00 0.  1.
</event>
<event>
 7    1  0.6235964E-006  0.4287515E+02  0.7818608E-02  0.1490222E+00
          2   -1    0    0  502    0  0.00000000000E+00  0.00000000000E+00  0.13254102293E+04  0.13254102293E+04  0.00000000000E+00 0. -1.
          1   -1    0    0  501    0 -0.00000000000E+00 -0.00000000000E+00 -0.10753835213E+03  0.10753835213E+03  0.00000000000E+00 0. -1.
         25    2    1    2    0    0  0.19958701138E+02 -0.23104239075E+02  0.80027003663E+03  0.81054884887E+03  0.12500059704E+03 0.  0.
          2    1    1    2  501    0 -0.40846568557E+02 -0.13602213129E+02 -0.96970165234E+02  0.10609748023E+03  0.00000000000E+00 0. -1.
          1    1    1    2  502    0  0.20887867419E+02  0.36706452205E+02  0.51457200576E+03  0.51630225232E+03  0.00000000000E+00 0. -1.
         22    1    3    3    0    0  0.27996737873E+02  0.35137921653E+02  0.60382703594E+03  0.60549614384E+03  0.00000000000E+00 0.  1.
         22    1    3    3    0    0 -0.80380367348E+01 -0.58242160728E+02  0.19644300069E+03  0.20505270503E+03  0.00000000000E+00 0.  1.
</event>
<event>
 7    1  0.6235964E-006  0.6842591E+02  0.7818608E-02  0.1413489E+00
          2   -1    0    0  502    0  0.00000000000E+00  0.00000000000E+00  0.14945547518E+04  0.14945547518E+04  0.00000000000E+00 0. -1.
          1   -1    0    0  501    0 -0.00000000000E+00 -0.00000000000E+00 -0.19883043100E+03  0.19883043100E+03  0.00000000000E+00 0. -1.
         25    2    1    2    0    0  0.17237912379E+02  0.14237566487E+02 -0.59354344053E+02  0.14017152362E+03  0.12500105581E+03 0.  0.
          2    1    1    2  501    0  0.38700814917E+02  0.25822317035E+02 -0.92742815782E+02  0.10375825274E+03  0.00000000000E+00 0. -1.
          1    1    1    2  502    0 -0.55938727296E+02 -0.40059883522E+02  0.14478214807E+04  0.14494554065E+04  0.00000000000E+00 0. -1.
         22    1    3    3    0    0  0.33713914928E+02  0.61898923159E+02 -0.12997392955E+02  0.71673125868E+02  0.00000000000E+00 0. -1.
         22    1    3    3    0    0 -0.16476002550E+02 -0.47661356673E+02 -0.46356951098E+02  0.68498397755E+02  0.00000000000E+00 0. -1.
</event>
<event>
 7    1  0.6235964E-006  0.1608525E+03  0.7818608E-02  0.1217724E+00
          2   -1    0    0  502    0  0.00000000000E+00  0.00000000000E+00  0.11709155628E+04  0.11709155628E+04  0.00000000000E+00 0. -1.
          1   -1    0    0  501    0 -0.00000000000E+00 -0.00000000000E+00 -0.25455580426E+03  0.25455580426E+03  0.00000000000E+00 0. -1.
         25    2    1    2    0    0  0.94919692929E+01  0.41117314873E+01  0.20977935351E+02  0.12716701384E+03  0.12499748726E+03 0.  0.
          2    1    1    2  501    0 -0.10113507439E+03 -0.13630503630E+03 -0.15849422137E+03  0.23222356556E+03  0.00000000000E+00 0. -1.
          1    1    1    2  502    0  0.91643105098E+02  0.13219330481E+03  0.10538760445E+04  0.10660807876E+04  0.00000000000E+00 0. -1.
         22    1    3    3    0    0  0.33462703900E+02 -0.16153239222E+02  0.63944259735E+02  0.73956392845E+02  0.00000000000E+00 0.  1.
         22    1    3    3    0    0 -0.23970734607E+02  0.20264970710E+02 -0.42966324384E+02  0.53210620994E+02  0.00000000000E+00 0.  1.
</event>
<event>
 7    1  0.6235964E-006  0.1069282E+03  0.7818608E-02  0.1335481E+00
          2   -1    0    0  502    0  0.00000000000E+00  0.00000000000E+00  0.30737579215E+03  0.30737579215E+03  0.00000000000E+00 0. -1.
          1   -1    0    0  501    0 -0.00000000000E+00 -0.00000000000E+00 -0.14935370402E+04  0.14935370402E+04  0.00000000000E+00 0. -1.
         25    2    1    2    0    0 -0.51895643916E+01  0.16274387602E+03  0.11106325788E+03  0.23339630783E+03  0.12500515389E+03 0.  0.
          2    1    1    2  501    0  0.18436401410E+01 -0.10626975537E+03 -0.14243820204E+04  0.14283419759E+04  0.00000000000E+00 0. -1.
          1    1    1    2  502    0  0.33459242506E+01 -0.56474120651E+02  0.12715751447E+03  0.13917454867E+03  0.00000000000E+00 0. -1.
         22    1    3    3    0    0  0.55582156130E+02  0.49339410682E+02  0.57772608392E+02  0.94135157125E+02  0.00000000000E+00 0.  1.
         22    1    3    3    0    0 -0.60771720522E+02  0.11340446534E+03  0.53290649486E+02  0.13926115071E+03  0.00000000000E+00 0.  1.
</event>
<event>
 7    1  0.6235964E-006  0.1117448E+03  0.7818608E-02  0.1399622E+00
          2   -1    0    0  502    0  0.00000000000E+00  0.00000000000E+00  0.11930088326E+04  0.11930088326E+04  0.00000000000E+00 0. -1.
          1   -1    0    0  501    0 -0.00000000000E+00 -0.00000000000E+00 -0.22090322997E+03  0.22090322997E+03  0.00000000000E+00 0. -1.
         25    2    1    2    0    0 -0.73498413590E+02 -0.83518856212E+02  0.92734925346E+03  0.94232611573E+03  0.12499781740E+03 0.  0.
          2    1    1    2  501    0  0.94537271437E+02  0.59724112261E+02 -0.19765954838E+03  0.22709813372E+03  0.00000000000E+00 0. -1.
          1    1    1    2  502    0 -0.21038857847E+02  0.23794743950E+02  0.24241589759E+03  0.24448781316E+03  0.00000000000E+00 0. -1.
         22    1    3    3    0    0  0.23683698432E+02  0.15390123113E+02  0.18386835875E+03  0.18602512413E+03  0.00000000000E+00 0. -1.
         22    1    3    3    0    0 -0.97182112022E+02 -0.98908979325E+02  0.74348089471E+03  0.75630099160E+03  0.00000000000E+00 0. -1.
</event>
<event>
 7    1  0.1200228E-005  0.7510612E+02  0.7818608E-02  0.1479929E+00
          2   -1    0    0  502    0  0.00000000000E+00  0.00000000000E+00  0.23673774676E+04  0.23673774676E+04  0.00000000000E+00 0. -1.
          1   -1    0    0  501    0 -0.00000000000E+00 -0.00000000000E+00 -0.95268445121E+03  0.95268445121E+03  0.00000000000E+00 0. -1.
         25    2    1    2    0    0  0.90701280013E+02  0.26333465355E+01 -0.40147830534E+03  0.43016682602E+03  0.12500004737E+03 0.  0.
          2    1    1    2  501    0 -0.18535782068E+02  0.18110359160E+02 -0.53594970043E+03  0.53657584898E+03  0.00000000000E+00 0. -1.
          1    1    1    2  502    0 -0.72165497945E+02 -0.20743705695E+02  0.23521210222E+04  0.23533192438E+04  0.00000000000E+00 0. -1.
         22    1    3    3    0    0  0.12195775209E+03 -0.48146804534E+00 -0.33827044782E+03  0.35958423349E+03  0.00000000000E+00 0.  1.
         22    1    3    3    0    0 -0.31256472075E+02  0.31148145808E+01 -0.63207857519E+02  0.70582592532E+02  0.00000000000E+00 0.  1.
</event>
<event>
 7    1  0.6235964E-006  0.2711124E+02  0.7818608E-02  0.1661545E+00
          2   -1    0    0  502    0  0.00000000000E+00  0.00000000000E+00  0.87131265188E+03  0.87131265188E+03  0.00000000000E+00 0. -1.
          1   -1    0    0  501    0 -0.00000000000E+00 -0.00000000000E+00 -0.11027052608E+04  0.11027052608E+04  0.00000000000E+00 0. -1.
         25    2    1    2    0    0 -0.56526017845E+00 -0.12265582325E+02  0.47658483761E+03  0.49285793267E+03  0.12500028131E+03 0.  0.
          2    1    1    2  501    0  0.23515349144E+02  0.13506779509E+02 -0.10940589398E+04  0.10943949783E+04  0.00000000000E+00 0. -1.
          1    1    1    2  502    0 -0.22950088966E+02 -0.12411971839E+01  0.38608149325E+03  0.38676500176E+03  0.00000000000E+00 0. -1.
         22    1    3    3    0    0  0.25748791642E+02  0.40692551253E+02  0.92861709547E+02  0.10460488085E+03  0.00000000000E+00 0. -1.
         22    1    3    3    0    0 -0.26314051821E+02 -0.52958133578E+02  0.38372312806E+03  0.38825305181E+03  0.00000000000E+00 0. -1.
</event>
<event>
 7    1  0.6235964E-006  0.3184563E+02  0.7818608E-02  0.1586825E+00
          2   -1    0    0  502    0  0.00000000000E+00  0.00000000000E+00  0.47347296967E+03  0.47347296967E+03  0.00000000000E+00 0. -1.
          1   -1    0    0  501    0 -0.00000000000E+00 -0.00000000000E+00 -0.53178310682E+03  0.53178310682E+03  0.00000000000E+00 0. -1.
         25    2    1    2    0    0  0.12004099292E+02 -0.21814604204E+02  0.32006978104E+03  0.34451248438E+03  0.12499684716E+03 0.  0.
          2    1    1    2  501    0  0.21155975370E+02  0.23802708743E+02 -0.51711100580E+03  0.51809066442E+03  0.00000000000E+00 0. -1.
          1    1    1    2  502    0 -0.33160074662E+02 -0.19881045396E+01  0.13873108761E+03  0.14265292769E+03  0.00000000000E+00 0. -1.
         22    1    3    3    0    0 -0.10043199483E+02 -0.10136144064E+02  0.31923027506E+03  0.31954901938E+03  0.00000000000E+00 0.  1.
         22    1    3    3    0    0  0.22047298775E+02 -0.11678460140E+02  0.83950598589E+00  0.24963465000E+02  0.00000000000E+00 0.  1.
</event>
<event>
 7    1  0.6235964E-006  0.8433880E+02  0.7818608E-02  0.1327429E+00
          2   -1    0    0  502    0  0.00000000000E+00  0.00000000000E+00  0.19306218555E+04  0.19306218555E+04  0.00000000000E+00 0. -1.
          1   -1    0    0  501    0 -0.00000000000E+00 -0.00000000000E+00 -0.14354629744E+02  0.14354629744E+02  0.00000000000E+00 0. -1.
         25    2    1    2    0    0 -0.20016658911E+02 -0.48118915316E+02  0.11414655358E+04  0.11494714278E+04  0.12499958934E+03 0.  0.
          2    1    1    2  501    0 -0.62107147113E+02  0.67320847506E+02  0.31559597602E+03  0.32861864571E+03  0.00000000000E+00 0. -1.
          1    1    1    2  502    0  0.82123806024E+02 -0.19201932191E+02  0.45920571388E+03  0.46688641164E+03  0.00000000000E+00 0. -1.
         22    1    3    3    0    0  0.17459584237E+02 -0.81919203024E+02  0.78386832692E+03  0.78833060758E+03  0.00000000000E+00 0.  1.
         22    1    3    3    0    0 -0.37476243148E+02  0.33800287708E+02  0.35759720889E+03  0.36114082026E+03  0.00000000000E+00 0.  1.
</event>
<event>
 7    1  0.6235964E-006  0.2999771E+03  0.7818608E-02  0.1273884E+00
          2   -1    0    0  502    0  0.00000000000E+00  0.00000000000E+00  0.69305813089E+03  0.69305813089E+03  0.00000000000E+00 0. -1.
          1   -1    0    0  501    0 -0.00000000000E+00 -0.00000000000E+00 -0.73149930214E+03  0.73149930214E+03  0.00000000000E+00 0. -1.
         25    2    1    2    0    0  0.22371335922E+03  0.17534138877E+03 -0.11149038373E+02  0.31071185977E+03  0.12500115614E+03 0.  0.
          2    1    1    2  501    0 -0.25705640183E+03 -0.16332167639E+03 -0.52925929188E+03  0.61062866109E+03  0.00000000000E+00 0. -1.
          1    1    1    2  502    0  0.33343042612E+02 -0.12019712382E+02  0.50196715900E+03  0.50321691217E+03  0.00000000000E+00 0. -1.
         22    1    3    3    0    0  0.20611959922E+03  0.98676194565E+02  0.11642565379E+02  0.22881833380E+03  0.00000000000E+00 0. -1.
         22    1    3    3    0    0  0.17593760002E+02  0.76665194208E+02 -0.22791603753E+02  0.81893525968E+02  0.00000000000E+00 0. -1.
</event>
<event>
 7    1  0.6235964E-006  0.1531323E+03  0.7818608E-02  0.1223523E+00
          2   -1    0    0  502    0  0.00000000000E+00  0.00000000000E+00  0.92552709880E+02  0.92552709880E+02  0.00000000000E+00 0. -1.
          1   -1    0    0  501    0 -0.00000000000E+00 -0.00000000000E+00 -0.11174008981E+04  0.11174008981E+04  0.00000000000E+00 0. -1.
         25    2    1    2    0    0  0.18954995728E+03 -0.72623676945E+02 -0.38061640511E+03  0.44910333873E+03  0.12498630429E+03 0.  0.
          2    1    1    2  501    0 -0.10462860401E+03 -0.47655036235E+02 -0.59438905471E+03  0.60540605846E+03  0.00000000000E+00 0. -1.
          1    1    1    2  502    0 -0.84921353271E+02  0.12027871318E+03 -0.49842728355E+02  0.15544421075E+03  0.00000000000E+00 0. -1.
         22    1    3    3    0    0  0.20213833107E+03 -0.59971137413E+02 -0.30094081526E+03  0.36745314871E+03  0.00000000000E+00 0. -1.
         22    1    3    3    0    0 -0.12588373792E+02 -0.12652539532E+02 -0.79675589854E+02  0.81650190017E+02  0.00000000000E+00 0. -1.
</event>
<event>
 7    1  0.6235964E-006  0.5824664E+02  0.7818608E-02  0.1466712E+00
          2   -1    0    0  502    0  0.00000000000E+00  0.00000000000E+00  0.11454984958E+04  0.11454984958E+04  0.00000000000E+00 0. -1.
          1   -1    0    0  501    0 -0.00000000000E+00 -0.00000000000E+00 -0.34024437206E+02  0.34024437206E+02  0.00000000000E+00 0. -1.
         25    2    1    2    0    0  0.21003646760E+02 -0.71760038212E+02  0.22061307335E+03  0.26436091808E+03  0.12500364239E+03 0.  0.
          2    1    1    2  501    0 -0.33421732130E+02  0.15203292601E+02  0.18928699071E+02  0.41309174926E+02  0.00000000000E+00 0. -1.
          1    1    1    2  502    0  0.12418085370E+02  0.56556745611E+02  0.87193228621E+03  0.87385284005E+03  0.00000000000E+00 0. -1.
         22    1    3    3    0    0  0.22426563759E+02 -0.23294368357E+02 -0.57678171808E+01  0.32845792337E+02  0.00000000000E+00 0. -1.
         22    1    3    3    0    0 -0.14229169989E+01 -0.48465669855E+02  0.22638089053E+03  0.23151512574E+03  0.00000000000E+00 0. -1.
</event>
<event>
 7    1  0.6235964E-006  0.6619858E+02  0.7818608E-02  0.1395447E+00
          2   -1    0    0  502    0  0.00000000000E+00  0.00000000000E+00  0.33658138526E+03  0.33658138526E+03  0.00000000000E+00 0. -1.
          1   -1    0    0  501    0 -0.00000000000E+00 -0.00000000000E+00 -0.75222806109E+02  0.75222806109E+02  0.00000000000E+00 0. -1.
         25    2    1    2    0    0  0.30000272224E+02 -0.16299727208E+02  0.67488538324E+02  0.14609773886E+03  0.12499659618E+03 0.  0.
          2    1    1    2  501    0 -0.10798647527E+02 -0.54361414431E+02 -0.31564088414E+01  0.55513395538E+02  0.00000000000E+00 0. -1.
          1    1    1    2  502    0 -0.19201624697E+02  0.70661141639E+02  0.19702644967E+03  0.21019305697E+03  0.00000000000E+00 0. -1.
         22    1    3    3    0    0  0.21183795878E+02 -0.66429902406E+02  0.11913443243E+02  0.70736237328E+02  0.00000000000E+00 0. -1.
         22    1    3    3    0    0  0.88164763461E+01  0.50130175197E+02  0.55575095082E+02  0.75361501536E+02  0.00000000000E+00 0. -1.
</event>
<event>
 7    1  0.6235964E-006  0.3140730E+02  0.7818608E-02  0.1618690E+00
          2   -1    0    0  502    0  0.00000000000E+00  0.00000000000E+00  0.87323268353E+03  0.87323268353E+03  0.00000000000E+00 0. -1.
          1   -1    0    0  501    0 -0.00000000000E+00 -0.00000000000E+00 -0.15992866132E+04  0.15992866132E+04  0.00000000000E+00 0. -1.
         25    2    1    2    0    0  0.28206671444E+02  0.15580215937E+02 -0.26927179635E+03  0.29862818923E+03  0.12503253837E+03 0.  0.
          2    1    1    2  501    0 -0.77557527765E+01 -0.30557556600E+02 -0.13149605379E+04  0.13153384097E+04  0.00000000000E+00 0. -1.
          1    1    1    2  502    0 -0.20450918667E+02  0.14977340663E+02  0.85817840455E+03  0.85855269777E+03  0.00000000000E+00 0. -1.
         22    1    3    3    0    0 -0.33739315536E+02  0.29442123465E+01 -0.15765113066E+02  0.37357042029E+02  0.00000000000E+00 0.  1.
         22    1    3    3    0    0  0.61945986980E+02  0.12636003590E+02 -0.25350668328E+03  0.26127114720E+03  0.00000000000E+00 0.  1.
</event>
<event>
 7    1  0.6235964E-006  0.1295726E+03  0.7818608E-02  0.1373557E+00
          2   -1    0    0  502    0  0.00000000000E+00  0.00000000000E+00  0.49607308810E+03  0.49607308810E+03  0.00000000000E+00 0. -1.
          1   -1    0    0  501    0 -0.00000000000E+00 -0.00000000000E+00 -0.23984527552E+03  0.23984527552E+03  0.00000000000E+00 0. -1.
         25    2    1    2    0    0  0.11405576469E+03  0.27410786433E+02 -0.72642669771E+02  0.18617300059E+03  0.12499343984E+03 0.  0.
          2    1    1    2  501    0 -0.12758228427E+03 -0.58397411180E+02 -0.64851529247E+02  0.15457431138E+03  0.00000000000E+00 0. -1.
          1    1    1    2  502    0  0.13526519574E+02  0.30986624747E+02  0.39372201160E+03  0.39517105165E+03  0.00000000000E+00 0. -1.
         22    1    3    3    0    0  0.11524765670E+03 -0.20516442200E+02 -0.73503163939E+02  0.13822323207E+03  0.00000000000E+00 0. -1.
         22    1    3    3    0    0 -0.11918920007E+01  0.47927228633E+02  0.86049416817E+00  0.47949768520E+02  0.00000000000E+00 0. -1.
</event>
<event>
 7    1  0.6235964E-006  0.5062647E+02  0.7818608E-02  0.1578046E+00
          2   -1    0    0  502    0  0.00000000000E+00  0.00000000000E+00  0.40746474271E+03  0.40746474271E+03  0.00000000000E+00 0. -1.
          1   -1    0    0  501    0 -0.00000000000E+00 -0.00000000000E+00 -0.27817448613E+03  0.27817448613E+03  0.00000000000E+00 0. -1.
         25    2    1    2    0    0 -0.27595751169E+02  0.20681348607E+02 -0.46851631629E+02  0.13790595651E+03  0.12503493029E+03 0.  0.
          2    1    1    2  501    0 -0.19956150313E+02 -0.23433869291E+01 -0.18345026803E+03  0.18454739293E+03  0.00000000000E+00 0. -1.
          1    1    1    2  502    0  0.47551901482E+02 -0.18337961678E+02  0.35959215623E+03  0.36318587940E+03  0.00000000000E+00 0. -1.
         22    1    3    3    0    0  0.25991099896E+02  0.20753710836E+02  0.29613443068E+02  0.44533243735E+02  0.00000000000E+00 0.  1.
         22    1    3    3    0    0 -0.53586851065E+02 -0.72362229673E-01 -0.76465074697E+02  0.93372712779E+02  0.00000000000E+00 0.  1.
</event>
<event>
 7    1  0.6235964E-006  0.8395313E+02  0.7818608E-02  0.1363692E+00
          2   -1    0    0  502    0  0.00000000000E+00  0.00000000000E+00  0.24236131549E+04  0.24236131549E+04  0.00000000000E+00 0. -1.
          1   -1    0    0  501    0 -0.00000000000E+00 -0.00000000000E+00 -0.35666557556E+02  0.35666557556E+02  0.00000000000E+00 0. -1.
         25    2    1    2    0    0 -0.32220933742E+02 -0.86200091326E+02  0.52355310149E+03  0.54607763166E+03  0.12499714158E+03 0.  0.
          2    1    1    2  501    0 -0.24223704232E+02  0.81594852566E+02  0.51620907326E+02  0.99545094732E+02  0.00000000000E+00 0. -1.
          1    1    1    2  502    0  0.56444637974E+02  0.46052387603E+01  0.18127725885E+04  0.18136569861E+04  0.00000000000E+00 0. -1.
         22    1    3    3    0    0 -0.36843680786E+02 -0.46434307382E+02  0.74316360387E+02  0.95060628744E+02  0.00000000000E+00 0. -1.
         22    1    3    3    0    0  0.46227470437E+01 -0.39765783944E+02  0.44923674110E+03  0.45101700292E+03  0.00000000000E+00 0. -1.
</event>
<event>
 7    1  0.6235964E-006  0.1143218E+03  0.7818608E-02  0.1285520E+00
          2   -1    0    0  502    0  0.00000000000E+00  0.00000000000E+00  0.10346044990E+04  0.10346044990E+04  0.00000000000E+00 0. -1.
          1   -1    0    0  501    0 -0.00000000000E+00 -0.00000000000E+00 -0.68784539593E+03  0.68784539593E+03  0.00000000000E+00 0. -1.
         25    2    1    2    0    0  0.13475791841E+03  0.57776848923E+01 -0.30929328892E+03  0.35983499611E+03  0.12500323052E+03 0.  0.
          2    1    1    2  501    0 -0.87033968583E+02 -0.73989960414E+02 -0.34226876855E+03  0.36082867937E+03  0.00000000000E+00 0. -1.
          1    1    1    2  502    0 -0.47723949826E+02  0.68212275521E+02  0.99832116053E+03  0.10017862194E+04  0.00000000000E+00 0. -1.
         22    1    3    3    0    0  0.84472172363E+01  0.10833663079E+02  0.96270080639E+01  0.16775071356E+02  0.00000000000E+00 0.  1.
         22    1    3    3    0    0  0.12631070117E+03 -0.50559781867E+01 -0.31892029698E+03  0.34305992476E+03  0.00000000000E+00 0.  1.
</event>
<event>
 7    1  0.6235964E-006  0.6207706E+02  0.7818608E-02  0.1394820E+00
          2   -1    0    0  502    0  0.00000000000E+00  0.00000000000E+00  0.65163511657E+02  0.65163511657E+02  0.00000000000E+00 0. -1.
          1   -1    0    0  501    0 -0.00000000000E+00 -0.00000000000E+00 -0.51043813608E+03  0.51043813608E+03  0.00000000000E+00 0. -1.
         25    2    1    2    0    0  0.22148320799E+02 -0.12120844882E+02 -0.95292861327E+02  0.15919648147E+03  0.12500130918E+03 0.  0.
          2    1    1    2  501    0 -0.45237704364E+02 -0.45502429973E+02 -0.34845102003E+03  0.35430923554E+03  0.00000000000E+00 0. -1.
          1    1    1    2  502    0  0.23089383564E+02  0.57623274855E+02 -0.15307430665E+01  0.62095930726E+02  0.00000000000E+00 0. -1.
         22    1    3    3    0    0  0.24508528925E+02 -0.52800299148E+02 -0.29766065330E+01  0.58287217867E+02  0.00000000000E+00 0. -1.
         22    1    3    3    0    0 -0.23602081258E+01  0.40679454265E+02 -0.92316254794E+02  0.10090926360E+03  0.00000000000E+00 0. -1.
</event>
<event>
 7    1  0.6235964E-006  0.5546513E+02  0.7818608E-02  0.1487414E+00
          2   -1    0    0  502    0  0.00000000000E+00  0.00000000000E+00  0.84795400710E+02  0.84795400710E+02  0.00000000000E+00 0. -1.
          1   -1    0    0  501    0 -0.00000000000E+00 -0.00000000000E+00 -0.93689713652E+03  0.93689713652E+03  0.00000000000E+00 0. -1.
         25    2    1    2    0    0 -0.26235474588E+02  0.60161828403E+02 -0.45800219004E+03  0.47927089714E+03  0.12500736394E+03 0.  0.
          2    1    1    2  501    0  0.32895556235E+02 -0.51277967895E+01 -0.45721052158E+03  0.45842106514E+03  0.00000000000E+00 0. -1.
          1    1    1    2  502    0 -0.66600816477E+01 -0.55034031613E+02  0.63110975815E+02  0.84000574947E+02  0.00000000000E+00 0. -1.
         22    1    3    3    0    0 -0.27031737682E+02  0.85659465651E+02 -0.19115614223E+03  0.21120826122E+03  0.00000000000E+00 0. -1.
         22    1    3    3    0    0  0.79626309402E+00 -0.25497637248E+02 -0.26684604781E+03  0.26806263592E+03  0.00000000000E+00 0. -1.
</event>
<event>
 7    1  0.6235964E-006  0.1050771E+03  0.7818608E-02  0.1342732E+00
          2   -1    0    0  502    0  0.00000000000E+00  0.00000000000E+00  0.15159862823E+04  0.15159862823E+04  0.00000000000E+00 0. -1.
          1   -1    0    0  501    0 -0.00000000000E+00 -0.00000000000E+00 -0.11039065762E+03  0.11039065762E+03  0.00000000000E+00 0. -1.
         25    2    1    2    0    0  0.58102519740E+02 -0.47160022125E+02  0.43447215837E+03  0.45825317900E+03  0.12501979511E+03 0.  0.
          2    1    1    2  501    0  0.51715340457E+02  0.15749093131E+02 -0.87772559840E+02  0.10308507474E+03  0.00000000000E+00 0. -1.
          1    1    1    2  502    0 -0.10981786020E+03  0.31410928994E+02  0.10588960262E+04  0.10650386862E+04  0.00000000000E+00 0. -1.
         22    1    3    3    0    0 -0.27525580311E+02  0.55340908530E+01  0.28463435987E+02  0.39980631826E+02  0.00000000000E+00 0.  1.
         22    1    3    3    0    0  0.85628100051E+02 -0.52694112978E+02  0.40600872239E+03  0.41827254717E+03  0.00000000000E+00 0.  1.
</event>
<event>
 7    1  0.6235964E-006  0.4788655E+02  0.7818608E-02  0.1475098E+00
          2   -1    0    0  502    0  0.00000000000E+00  0.00000000000E+00  0.15134078577E+04  0.15134078577E+04  0.00000000000E+00 0. -1.
          1   -1    0    0  501    0 -0.00000000000E+00 -0.00000000000E+00 -0.18840544311E+02  0.18840544311E+02  0.00000000000E+00 0. -1.
         25    2    1    2    0    0 -0.84294660586E+01  0.14823995859E+02  0.38071657204E+03  0.40107428930E+03  0.12499868222E+03 0.  0.
          2    1    1    2  501    0 -0.41208309730E+02 -0.84239375009E+01  0.46693963827E+02  0.62844361495E+02  0.00000000000E+00 0. -1.
          1    1    1    2  502    0  0.49637775789E+02 -0.64000583579E+01  0.10671567775E+04  0.10683297512E+04  0.00000000000E+00 0. -1.
         22    1    3    3    0    0 -0.36554350983E+02 -0.42991831447E+02  0.12091092840E+03  0.13343152084E+03  0.00000000000E+00 0.  1.
         22    1    3    3    0    0  0.28124884924E+02  0.57815827306E+02  0.25980564365E+03  0.26764276846E+03  0.00000000000E+00 0.  1.
</event>
<event>
 7    1  0.6235964E-006  0.1270444E+03  0.7818608E-02  0.1334397E+00
          2   -1    0    0  502    0  0.00000000000E+00  0.00000000000E+00  0.50322798065E+03  0.50322798065E+03  0.00000000000E+00 0. -1.
          1   -1    0    0  501    0 -0.00000000000E+00 -0.00000000000E+00 -0.21635330040E+04  0.21635330040E+04  0.00000000000E+00 0. -1.
         25    2    1    2    0    0  0.64083487143E+02  0.15652166455E+03 -0.43594746295E+02  0.21477597150E+03  0.12498996453E+03 0.  0.
          2    1    1    2  501    0 -0.40436060828E+01 -0.47897695965E+02 -0.20248352178E+04  0.20254056875E+04  0.00000000000E+00 0. -1.
          1    1    1    2  502    0 -0.60039881060E+02 -0.10862396858E+03  0.40812494067E+03  0.42657932564E+03  0.00000000000E+00 0. -1.
         22    1    3    3    0    0  0.67710004229E+02  0.11234458864E+03 -0.83201276044E+02  0.15533320187E+03  0.00000000000E+00 0.  1.
         22    1    3    3    0    0 -0.36265170865E+01  0.44177075912E+02  0.39606529749E+02  0.59442769628E+02  0.00000000000E+00 0.  1.
</event>
<event>
 7    1  0.6235964E-006  0.3066745E+02  0.7818608E-02  0.1613928E+00
          2   -1    0    0  502    0  0.00000000000E+00  0.00000000000E+00  0.84815167084E+03  0.84815167084E+03  0.00000000000E+00 0. -1.
          1   -1    0    0  501    0 -0.00000000000E+00 -0.00000000000E+00 -0.11088447094E+04  0.11088447094E+04  0.00000000000E+00 0. -1.
         25    2    1    2    0    0  0.41962013252E+02  0.18125397558E+02  0.17284920297E+02  0.13421419082E+03  0.12500135981E+03 0.  0.
          2    1    1    2  501    0 -0.25552996806E+02  0.77387194390E+01 -0.10499066294E+04  0.10502460539E+04  0.00000000000E+00 0. -1.
          1    1    1    2  502    0 -0.16409016446E+02 -0.25864116997E+02  0.77192867049E+03  0.77253613552E+03  0.00000000000E+00 0. -1.
         22    1    3    3    0    0  0.22752922690E+02 -0.18413676101E+02  0.64900444021E+02  0.71195692233E+02  0.00000000000E+00 0. -1.
         22    1    3    3    0    0  0.19209090562E+02  0.36539073659E+02 -0.47615523724E+02  0.63018498583E+02  0.00000000000E+00 0. -1.
</event>
<event>
 7    1  0.6235964E-006  0.5094099E+02  0.7818608E-02  0.1574643E+00
          2   -1    0    0  502    0  0.00000000000E+00  0.00000000000E+00  0.12861227348E+03  0.12861227348E+03  0.00000000000E+00 0. -1.
          1   -1    0    0  501    0 -0.00000000000E+00 -0.00000000000E+00 -0.23954438669E+03  0.23954438669E+03  0.00000000000E+00 0. -1.
         25    2    1    2    0    0  0.53729116596E+02  0.16176693250E+01  0.35870116153E+02  0.14071462115E+03  0.12499801818E+03 0.  0.
          2    1    1    2  501    0 -0.47744297111E+02  0.17879642459E+02 -0.18076998814E+03  0.18782169239E+03  0.00000000000E+00 0. -1.
          1    1    1    2  502    0 -0.59848194850E+01 -0.19497311784E+02  0.33967758772E+02  0.39620346630E+02  0.00000000000E+00 0. -1.
         22    1    3    3    0    0  0.88260742011E+02  0.12272138437E+02  0.49685936703E+02  0.10202576277E+03  0.00000000000E+00 0.  1.
         22    1    3    3    0    0 -0.34531625415E+02 -0.10654469112E+02 -0.13815820549E+02  0.38688858387E+02  0.00000000000E+00 0.  1.
</event>
<event>
 7    1  0.6235964E-006  0.1006901E+03  0.7818608E-02  0.1282864E+00
          2   -1    0    0  502    0  0.00000000000E+00  0.00000000000E+00  0.77800699291E+03  0.77800699291E+03  0.00000000000E+00 0. -1.
          1   -1    0    0  501    0 -0.00000000000E+00 -0.00000000000E+00 -0.55546689804E+03  0.55546689804E+03  0.00000000000E+00 0. -1.
         25    2    1    2    0    0 -0.22286279960E+02  0.28856609990E+02 -0.63786040597E+02  0.14499144949E+03  0.12499791692E+03 0.  0.
          2    1    1    2  501    0 -0.29117221211E+02 -0.11102633289E+03 -0.44050697859E+03  0.45521539666E+03  0.00000000000E+00 0. -1.
          1    1    1    2  502    0  0.51403501171E+02  0.82169722905E+02  0.72683311406E+03  0.73326704480E+03  0.00000000000E+00 0. -1.
         22    1    3    3    0    0  0.28875618819E+02  0.39099333478E+02  0.14667883909E+02  0.50771114415E+02  0.00000000000E+00 0. -1.
         22    1    3    3    0    0 -0.51161898779E+02 -0.10242723489E+02 -0.78453924506E+02  0.94220335074E+02  0.00000000000E+00 0. -1.
</event>
<event>
 7    1  0.6235964E-006  0.8736213E+02  0.7818608E-02  0.1365236E+00
          2   -1    0    0  502    0  0.00000000000E+00  0.00000000000E+00  0.41001193213E+03  0.41001193213E+03  0.00000000000E+00 0. -1.
          1   -1    0    0  501    0 -0.00000000000E+00 -0.00000000000E+00 -0.33956785994E+03  0.33956785994E+03  0.00000000000E+00 0. -1.
         25    2    1    2    0    0  0.19945143120E+02  0.91281070797E+02  0.70274068597E+02  0.17115905999E+03  0.12500774567E+03 0.  0.
          2    1    1    2  501    0 -0.63878357989E+02 -0.60357325116E+02 -0.27983373978E+03  0.29330934734E+03  0.00000000000E+00 0. -1.
          1    1    1    2  502    0  0.43933214869E+02 -0.30923745680E+02  0.28000374337E+03  0.28511138475E+03  0.00000000000E+00 0. -1.
         22    1    3    3    0    0  0.19268417703E+02  0.46766318058E+02 -0.31836254088E+02  0.59765437335E+02  0.00000000000E+00 0.  1.
         22    1    3    3    0    0  0.67672541684E+00  0.44514752738E+02  0.10211032268E+03  0.11139362265E+03  0.00000000000E+00 0.  1.
</event>
<event>
 7    1  0.6235964E-006  0.3928519E+02  0.7818608E-02  0.1525653E+00
          2   -1    0    0  502    0  0.00000000000E+00  0.00000000000E+00  0.66490029650E+01  0.66490029650E+01  0.00000000000E+00 0. -1.
          1   -1    0    0  501    0 -0.00000000000E+00 -0.00000000000E+00 -0.31328053742E+04  0.31328053742E+04  0.00000000000E+00 0. -1.
         25    2    1    2    0    0  0.33165024328E+02 -0.41295904467E+02 -0.18534559158E+04  0.18584210828E+04  0.12499927503E+03 0.  0.
          2    1    1    2  501    0 -0.38731950357E+02  0.54994897619E+01 -0.11912230094E+04  0.11918652048E+04  0.00000000000E+00 0. -1.
          1    1    1    2  502    0  0.55669260290E+01  0.35796414705E+02 -0.81477445995E+02  0.89168089455E+02  0.00000000000E+00 0. -1.
         22    1    3    3    0    0  0.26900470547E+02 -0.83100822539E+02 -0.95990373012E+03  0.96386957267E+03  0.00000000000E+00 0. -1.
         22    1    3    3    0    0  0.62645537807E+01  0.41804918072E+02 -0.89355218568E+03  0.89455151017E+03  0.00000000000E+00 0. -1.
</event>
<event>
 7    1  0.6235964E-006  0.1115457E+03  0.7818608E-02  0.1334766E+00
          2   -1    0    0  502    0  0.00000000000E+00  0.00000000000E+00  0.12513990444E+03  0.12513990444E+03  0.00000000000E+00 0. -1.
          1   -1    0    0  501    0 -0.00000000000E+00 -0.00000000000E+00 -0.33785007493E+04  0.33785007493E+04  0.00000000000E+00 0. -1.
         25    2    1    2    0    0 -0.91096006186E+02 -0.11702926371E+03 -0.34697514251E+03  0.39750622504E+03  0.12500047407E+03 0.  0.
          2    1    1    2  501    0  0.52461371176E+02  0.15025279874E+02 -0.29761541277E+04  0.29766543881E+04  0.00000000000E+00 0. -1.
          1    1    1    2  502    0  0.38634635010E+02  0.10200398384E+03  0.69768425331E+02  0.12948004060E+03  0.00000000000E+00 0. -1.
         22    1    3    3    0    0 -0.10596413890E+03 -0.11600549926E+03 -0.22386968714E+03  0.27350194041E+03  0.00000000000E+00 0. -1.
         22    1    3    3    0    0  0.14868132712E+02 -0.10237644573E+01 -0.12310545537E+03  0.12400428463E+03  0.00000000000E+00 0. -1.
</event>
<event>
 7    1  0.6235964E-006  0.7149986E+02  0.7818608E-02  0.1442041E+00
          2   -1    0    0  502    0  0.00000000000E+00  0.00000000000E+00  0.57278823236E+03  0.57278823236E+03  0.00000000000E+00 0. -1.
          1   -1    0    0  501    0 -0.00000000000E+00 -0.00000000000E+00 -0.21554740210E+03  0.21554740210E+03  0.00000000000E+00 0. -1.
         25    2    1    2    0    0  0.43821584554E+02  0.15302237764E+02  0.17223694085E+03  0.21781914461E+03  0.12500050485E+03 0.  0.
          2    1    1    2  501    0  0.32324238566E+02 -0.15465935153E+02 -0.18720236436E+03  0.19060109331E+03  0.00000000000E+00 0. -1.
          1    1    1    2  502    0 -0.76145823119E+02  0.16369738882E+00  0.37220625377E+03  0.37991539653E+03  0.00000000000E+00 0. -1.
         22    1    3    3    0    0  0.72477287234E+02 -0.94768725697E+01  0.46815556790E+02  0.86801293977E+02  0.00000000000E+00 0.  1.
         22    1    3    3    0    0 -0.28655702680E+02  0.24779110333E+02  0.12542138406E+03  0.13101785063E+03  0.00000000000E+00 0.  1.
</event>
<event>
 7    1  0.6235964E-006  0.7704620E+02  0.7818608E-02  0.1397422E+00
          2   -1    0    0  502    0  0.00000000000E+00  0.00000000000E+00  0.69591678448E+03  0.69591678448E+03  0.00000000000E+00 0. -1.
          1   -1    0    0  501    0 -0.00000000000E+00 -0.00000000000E+00 -0.38689301032E+03  0.38689301032E+03  0.00000000000E+00 0. -1.
         25    2    1    2    0    0  0.37184880060E+02 -0.59703273204E+02  0.12096127263E+03  0.18762533671E+03  0.12499776543E+03 0.  0.
          2    1    1    2  501    0 -0.42944513064E+02 -0.18795933829E+02 -0.34912653289E+03  0.35225964047E+03  0.00000000000E+00 0. -1.
          1    1    1    2  502    0  0.57596330041E+01  0.78499207033E+02  0.53718903443E+03  0.54292481762E+03  0.00000000000E+00 0. -1.
         22    1    3    3    0    0  0.74240945741E+02 -0.26852564083E+02  0.30768296558E+02  0.84731731338E+02  0.00000000000E+00 0.  1.
         22    1    3    3    0    0 -0.37056065681E+02 -0.32850709120E+02  0.90192976076E+02  0.10289360537E+03  0.00000000000E+00 0.  1.
</event>
<event>
 7    1  0.6235964E-006  0.6750568E+02  0.7818608E-02  0.1508551E+00
          2   -1    0    0  502    0  0.00000000000E+00  0.00000000000E+00  0.17175915795E+04  0.17175915795E+04  0.00000000000E+00 0. -1.
          1   -1    0    0  501    0 -0.00000000000E+00 -0.00000000000E+00 -0.86386609731E+02  0.86386609731E+02  0.00000000000E+00 0. -1.
         25    2    1    2    0    0 -0.57333633516E+02  0.39691675460E+02  0.31860556620E+01  0.14317128123E+03  0.12500116073E+03 0.  0.
          2    1    1    2  501    0  0.18075159789E+02  0.15247017259E+02 -0.67911798596E+01  0.24602907564E+02  0.00000000000E+00 0. -1.
          1    1    1    2  502    0  0.39258473727E+02 -0.54938692719E+02  0.16348100939E+04  0.16362040004E+04  0.00000000000E+00 0. -1.
         22    1    3    3    0    0 -0.73178214426E+02  0.15646521004E+02  0.48721001422E+02  0.89295020385E+02  0.00000000000E+00 0.  1.
         22    1    3    3    0    0  0.15844580910E+02  0.24045154456E+02 -0.45534945760E+02  0.53876260843E+02  0.00000000000E+00 0.  1.
</event>
<event>
 7    1  0.6235964E-006  0.1026572E+03  0.7818608E-02  0.1379355E+00
          2   -1    0    0  502    0  0.00000000000E+00  0.00000000000E+00  0.12521921712E+04  0.12521921712E+04  0.00000000000E+00 0. -1.
          1   -1    0    0  501    0 -0.00000000000E+00 -0.00000000000E+00 -0.26298585243E+03  0.26298585243E+03  0.00000000000E+00 0. -1.
         25    2    1    2    0    0 -0.76840960978E+02 -0.86694675087E+02  0.78869562571E+02  0.18779409288E+03  0.12500285376E+03 0.  0.
          2    1    1    2  501    0  0.37019862173E+02  0.95077547214E+02 -0.19564609605E+03  0.22065267975E+03  0.00000000000E+00 0. -1.
          1    1    1    2  502    0  0.39821098806E+02 -0.83828721272E+01  0.11059828522E+04  0.11067312510E+04  0.00000000000E+00 0. -1.
         22    1    3    3    0    0 -0.43677096146E+02  0.27368116260E+02  0.26841337013E+02  0.58113336576E+02  0.00000000000E+00 0.  1.
         22    1    3    3    0    0 -0.33163864832E+02 -0.11406279135E+03  0.52028225559E+02  0.12968075630E+03  0.00000000000E+00 0.  1.
</event>
<event>
 7    1  0.6235964E-006  0.1114809E+03  0.7818608E-02  0.1358244E+00
          2   -1    0    0  502    0  0.00000000000E+00  0.00000000000E+00  0.20748123829E+04  0.20748123829E+04  0.00000000000E+00 0. -1.
          1   -1    0    0  501    0 -0.00000000000E+00 -0.00000000000E+00 -0.11160624267E+04  0.11160624267E+04  0.00000000000E+00 0. -1.
         25    2    1    2    0    0  0.41369004623E+02  0.61231716555E+02  0.12029056556E+03  0.18856092598E+03  0.12499873994E+03 0.  0.
          2    1    1    2  501    0 -0.68959578287E+00  0.44637414844E+02 -0.10797910713E+04  0.10807135291E+04  0.00000000000E+00 0. -1.
          1    1    1    2  502    0 -0.40679408840E+02 -0.10586913140E+03  0.19182504620E+04  0.19216003544E+04  0.00000000000E+00 0. -1.
         22    1    3    3    0    0  0.88840057111E+01 -0.20921914351E+02 -0.14818010982E+02  0.27133475765E+02  0.00000000000E+00 0. -1.
         22    1    3    3    0    0  0.32484998911E+02  0.82153630906E+02  0.13510857655E+03  0.16142745021E+03  0.00000000000E+00 0. -1.
</event>
<event>
 7    1  0.6235964E-006  0.5025269E+02  0.7818608E-02  0.1494745E+00
          2   -1    0    0  502    0  0.00000000000E+00  0.00000000000E+00  0.12372631924E+04  0.12372631924E+04  0.00000000000E+00 0. -1.
          1   -1    0    0  501    0 -0.00000000000E+00 -0.00000000000E+00 -0.21387989209E+03  0.21387989209E+03  0.00000000000E+00 0. -1.
         25    2    1    2    0    0  0.48784012591E+01 -0.15204954446E+02  0.45830326716E+03  0.47531166191E+03  0.12499720722E+03 0.  0.
          2    1    1    2  501    0 -0.62160863920E+01  0.50098661633E+02 -0.20187015709E+03  0.20808670296E+03  0.00000000000E+00 0. -1.
          1    1    1    2  502    0  0.13376851329E+01 -0.34893707187E+02  0.76695019025E+03  0.76774471963E+03  0.00000000000E+00 0. -1.
         22    1    3    3    0    0  0.36957476507E+02 -0.41774708171E+02  0.99236912754E+02  0.11383736718E+03  0.00000000000E+00 0. -1.
         22    1    3    3    0    0 -0.32079075248E+02  0.26569753725E+02  0.35906635441E+03  0.36147429473E+03  0.00000000000E+00 0. -1.
</event>
<event>
 7    1  0.6235964E-006  0.1116829E+03  0.7818608E-02  0.1344671E+00
          2   -1    0    0  502    0  0.00000000000E+00  0.00000000000E+00  0.87889608246E+03  0.87889608246E+03  0.00000000000E+00 0. -1.
          1   -1    0    0  501    0 -0.00000000000E+00 -0.00000000000E+00 -0.91074517012E+03  0.91074517012E+03  0.00000000000E+00 0. -1.
         25    2    1    2    0    0 -0.98696394299E+02 -0.20715282123E+02  0.13324237735E+03  0.20868059997E+03  0.12499584201E+03 0.  0.
          2    1    1    2  501    0 -0.11987683802E+02  0.48562467152E+02 -0.86770094259E+03  0.86914149801E+03  0.00000000000E+00 0. -1.
          1    1    1    2  502    0  0.11068407810E+03 -0.27847185029E+02  0.70260947758E+03  0.71181915459E+03  0.00000000000E+00 0. -1.
         22    1    3    3    0    0 -0.11190675847E+03  0.19997281018E+02  0.74186296689E+02  0.13574468850E+03  0.00000000000E+00 0. -1.
         22    1    3    3    0    0  0.13210364169E+02 -0.40712563141E+02  0.59056080664E+02  0.72935911473E+02  0.00000000000E+00 0. -1.
</event>
<event>
 7    1  0.6235964E-006  0.1596403E+03  0.7818608E-02  0.1354012E+00
          2   -1    0    0  502    0  0.00000000000E+00  0.00000000000E+00  0.11972634197E+04  0.11972634197E+04  0.00000000000E+00 0. -1.
          1   -1    0    0  501    0 -0.00000000000E+00 -0.00000000000E+00 -0.33200146081E+03  0.33200146081E+03  0.00000000000E+00 0. -1.
         25    2    1    2    0    0 -0.12476516493E+03 -0.59437808261E+02  0.23160181602E+03  0.29725800547E+03  0.12499488469E+03 0.  0.
          2    1    1    2  501    0  0.13382924548E+03  0.90451109333E+02 -0.27706284088E+03  0.32071091020E+03  0.00000000000E+00 0. -1.
          1    1    1    2  502    0 -0.90640805431E+01 -0.31013301072E+02  0.91072298378E+03  0.91129596487E+03  0.00000000000E+00 0. -1.
         22    1    3    3    0    0 -0.13479794654E+03 -0.47270401787E+02  0.12597107959E+03  0.19045653091E+03  0.00000000000E+00 0. -1.
         22    1    3    3    0    0  0.10032781603E+02 -0.12167406475E+02  0.10563073644E+03  0.10680147455E+03  0.00000000000E+00 0. -1.
</event>
<event>
 7    1  0.6235964E-006  0.1192035E+03  0.7818608E-02  0.1436964E+00
          2   -1    0    0  502    0  0.00000000000E+00  0.00000000000E+00  0.63395794227E+02  0.63395794227E+02  0.00000000000E+00 0. -1.
          1   -1    0    0  501    0 -0.00000000000E+00 -0.00000000000E+00 -0.66319174671E+03  0.66319174671E+03  0.00000000000E+00 0. -1.
         25    2    1    2    0    0 -0.77702811322E+02 -0.69287510952E+02 -0.28743710882E+03  0.33027640525E+03  0.12499570504E+03 0.  0.
          2    1    1    2  501    0 -0.21916132989E+02 -0.42540504551E+01 -0.26149726745E+03  0.26244853727E+03  0.00000000000E+00 0. -1.
          1    1    1    2  502    0  0.99618944311E+02  0.73541561407E+02 -0.50861576212E+02  0.13386259842E+03  0.00000000000E+00 0. -1.
         22    1    3    3    0    0 -0.66569827024E+02  0.21117243118E+02 -0.10122321201E+03  0.12297812195E+03  0.00000000000E+00 0. -1.
         22    1    3    3    0    0 -0.11132984299E+02 -0.90404754070E+02 -0.18621389680E+03  0.20729828330E+03  0.00000000000E+00 0. -1.
</event>
<event>
 7    1  0.6235964E-006  0.9185668E+02  0.7818608E-02  0.1401120E+00
          2   -1    0    0  502    0  0.00000000000E+00  0.00000000000E+00  0.14855196559E+04  0.14855196559E+04  0.00000000000E+00 0. -1.
          1   -1    0    0  501    0 -0.00000000000E+00 -0.00000000000E+00 -0.11536021760E+03  0.11536021760E+03  0.00000000000E+00 0. -1.
         25    2    1    2    0    0 -0.39297500127E+02  0.38802959177E+02  0.26072104096E+01  0.13668293530E+03  0.12500185638E+03 0.  0.
          2    1    1    2  501    0 -0.32993141847E+02  0.19220860605E+02 -0.39007813173E+02  0.54585697576E+02  0.00000000000E+00 0. -1.
          1    1    1    2  502    0  0.72290641974E+02 -0.58023819782E+02  0.14065600410E+04  0.14096112406E+04  0.00000000000E+00 0. -1.
         22    1    3    3    0    0 -0.68740767599E+02  0.23952959107E+02 -0.39799195398E+02  0.82963927911E+02  0.00000000000E+00 0.  1.
         22    1    3    3    0    0  0.29443267471E+02  0.14850000070E+02  0.42406405807E+02  0.53719007390E+02  0.00000000000E+00 0.  1.
</event>
<event>
 7    1  0.6235964E-006  0.1654730E+03  0.7818608E-02  0.1245832E+00
          2   -1    0    0  502    0  0.00000000000E+00  0.00000000000E+00  0.26906015082E+03  0.26906015082E+03  0.00000000000E+00 0. -1.
          1   -1    0    0  501    0 -0.00000000000E+00 -0.00000000000E+00 -0.20157240731E+04  0.20157240731E+04  0.00000000000E+00 0. -1.
         25    2    1    2    0    0 -0.19499655106E+03 -0.10209039974E+03 -0.57210620600E+02  0.25950785387E+03  0.12500066586E+03 0.  0.
          2    1    1    2  501    0  0.43066279822E+02  0.72884385857E+02 -0.18205336893E+04  0.18225009608E+04  0.00000000000E+00 0. -1.
          1    1    1    2  502    0  0.15193027124E+03  0.29206013884E+02  0.13108038765E+03  0.20277540924E+03  0.00000000000E+00 0. -1.
         22    1    3    3    0    0 -0.15035172975E+03 -0.11518477475E+02 -0.21067193729E+02  0.15225683766E+03  0.00000000000E+00 0.  1.
         22    1    3    3    0    0 -0.44644821313E+02 -0.90571922266E+02 -0.36143426871E+02  0.10725101621E+03  0.00000000000E+00 0.  1.
</event>
<event>
 7    1  0.6235964E-006  0.1991794E+03  0.7818608E-02  0.1154548E+00
          2   -1    0    0  502    0  0.00000000000E+00  0.00000000000E+00  0.16712414599E+04  0.16712414599E+04  0.00000000000E+00 0. -1.
          1   -1    0    0  501    0 -0.00000000000E+00 -0.00000000000E+00 -0.92602163244E+02  0.92602163244E+02  0.00000000000E+00 0. -1.
         25    2    1    2    0    0 -0.26113686861E+02 -0.61356345889E+02  0.40837910872E+03  0.43225484645E+03  0.12499692003E+03 0.  0.
          2    1    1    2  501    0  0.16724456692E+03  0.20190702391E+03  0.17179269255E+03  0.31344843384E+03  0.00000000000E+00 0. -1.
          1    1    1    2  502    0 -0.14113088006E+03 -0.14055067802E+03  0.99846749543E+03  0.10181403429E+04  0.00000000000E+00 0. -1.
         22    1    3    3    0    0  0.44507454729E+02  0.45122686620E+01  0.14408811508E+03  0.15087298964E+03  0.00000000000E+00 0.  1.
         22    1    3    3    0    0 -0.70621141590E+02 -0.65868614551E+02  0.26429099364E+03  0.28138185681E+03  0.00000000000E+00 0.  1.
</event>
<event>
 7    1  0.6235964E-006  0.2316137E+03  0.7818608E-02  0.1183122E+00
          2   -1    0    0  502    0  0.00000000000E+00  0.00000000000E+00  0.55112417668E+03  0.55112417668E+03  0.00000000000E+00 0. -1.
          1   -1    0    0  501    0 -0.00000000000E+00 -0.00000000000E+00 -0.10044338835E+04  0.10044338835E+04  0.00000000000E+00 0. -1.
         25    2    1    2    0    0 -0.11734815685E+03  0.47777405792E+02 -0.25287630904E+03  0.30923287220E+03  0.12500108462E+03 0.  0.
          2    1    1    2  501    0 -0.11662134427E+03  0.15144407738E+02 -0.69007274672E+03  0.70002163308E+03  0.00000000000E+00 0. -1.
          1    1    1    2  502    0  0.23396950112E+03 -0.62921813530E+02  0.48963934894E+03  0.54630355490E+03  0.00000000000E+00 0. -1.
         22    1    3    3    0    0  0.13514558452E+02  0.42527118133E+02 -0.88024553406E+02  0.98689011897E+02  0.00000000000E+00 0.  1.
         22    1    3    3    0    0 -0.13086271530E+03  0.52502876588E+01 -0.16485175564E+03  0.21054386030E+03  0.00000000000E+00 0.  1.
</event>
<event>
 7    1  0.6235964E-006  0.6468399E+02  0.7818608E-02  0.1436005E+00
          2   -1    0    0  502    0  0.00000000000E+00  0.00000000000E+00  0.24532412976E+04  0.24532412976E+04  0.00000000000E+00 0. -1.
          1   -1    0    0  501    0 -0.00000000000E+00 -0.00000000000E+00 -0.10005293883E+03  0.10005293883E+03  0.00000000000E+00 0. -1.
         25    2    1    2    0    0 -0.27934817927E+02  0.61279170279E+02  0.87501512562E+03  0.88646073296E+03  0.12500268103E+03 0.  0.
          2    1    1    2  501    0 -0.29457220144E+02 -0.29146104802E+02 -0.89055680415E+02  0.98224932975E+02  0.00000000000E+00 0. -1.
          1    1    1    2  502    0  0.57392038071E+02 -0.32133065478E+02  0.15672289136E+04  0.15686085705E+04  0.00000000000E+00 0. -1.
         22    1    3    3    0    0  0.25868365988E+02 -0.13158561042E+02  0.64141954842E+02  0.70402489008E+02  0.00000000000E+00 0.  1.
         22    1    3    3    0    0 -0.53803183915E+02  0.74437731321E+02  0.81087317078E+03  0.81605824395E+03  0.00000000000E+00 0.  1.
</event>
<event>
 7    1  0.6235964E-006  0.7190108E+02  0.7818608E-02  0.1444886E+00
          2   -1    0    0  502    0  0.00000000000E+00  0.00000000000E+00  0.31687921262E+03  0.31687921262E+03  0.00000000000E+00 0. -1.
          1   -1    0    0  501    0 -0.00000000000E+00 -0.00000000000E+00 -0.56939025461E+03  0.56939025461E+03  0.00000000000E+00 0. -1.
         25    2    1    2    0    0 -0.34087766558E+02  0.22165868200E+02 -0.11833052290E+03  0.17686243736E+03  0.12499963023E+03 0.  0.
          2    1    1    2  501    0  0.62247257097E+02 -0.42761735444E+02 -0.41733420970E+03  0.42411216632E+03  0.00000000000E+00 0. -1.
          1    1    1    2  502    0 -0.28159490539E+02  0.20595867244E+02  0.28315369062E+03  0.28529486354E+03  0.00000000000E+00 0. -1.
         22    1    3    3    0    0 -0.28011577940E+02  0.37774965179E+02 -0.14102300172E+03  0.14865760494E+03  0.00000000000E+00 0.  1.
         22    1    3    3    0    0 -0.60761886172E+01 -0.15609096980E+02  0.22692478820E+02  0.28204832416E+02  0.00000000000E+00 0.  1.
</event>
<event>
 7    1  0.6235964E-006  0.1477703E+03  0.7818608E-02  0.1368877E+00
          2   -1    0    0  502    0  0.00000000000E+00  0.00000000000E+00  0.20956586124E+04  0.20956586124E+04  0.00000000000E+00 0. -1.
          1   -1    0    0  501    0 -0.00000000000E+00 -0.00000000000E+00 -0.12945309517E+04  0.12945309517E+04  0.00000000000E+00 0. -1.
         25    2    1    2    0    0 -0.11564647822E+03  0.20121777927E+02  0.41989447725E+03  0.45355700470E+03  0.12499436233E+03 0.  0.
          2    1    1    2  501    0  0.14638895479E+03 -0.22242138377E+02 -0.12732659055E+04  0.12818465216E+04  0.00000000000E+00 0. -1.
          1    1    1    2  502    0 -0.30742476572E+02  0.21203604496E+01  0.16544990889E+04  0.16547860379E+04  0.00000000000E+00 0. -1.
         22    1    3    3    0    0  0.25547886067E+02  0.15405277882E+02  0.62544657356E+02  0.69295391137E+02  0.00000000000E+00 0. -1.
         22    1    3    3    0    0 -0.14119436429E+03  0.47165000452E+01  0.35734981989E+03  0.38426161356E+03  0.00000000000E+00 0. -1.
</event>
<event>
 7    1  0.6235964E-006  0.9285421E+02  0.7818608E-02  0.1321955E+00
          2   -1    0    0  502    0  0.00000000000E+00  0.00000000000E+00  0.63997034973E+03  0.63997034973E+03  0.00000000000E+00 0. -1.
          1   -1    0    0  501    0 -0.00000000000E+00 -0.00000000000E+00 -0.57036345028E+03  0.57036345028E+03  0.00000000000E+00 0. -1.
         25    2    1    2    0    0 -0.58589708611E+02  0.51279358380E+02  0.29171731174E+03  0.32677935615E+03  0.12499372417E+03 0.  0.
          2    1    1    2  501    0 -0.15283813410E+01 -0.93385325934E+02 -0.54473628375E+03  0.55268505849E+03  0.00000000000E+00 0. -1.
          1    1    1    2  502    0  0.60118089952E+02  0.42105967554E+02  0.32262587145E+03  0.33086938537E+03  0.00000000000E+00 0. -1.
         22    1    3    3    0    0  0.59483103643E+01  0.74334833542E+02  0.19018228429E+03  0.20428008011E+03  0.00000000000E+00 0. -1.
         22    1    3    3    0    0 -0.64538018975E+02 -0.23055475162E+02  0.10153502746E+03  0.12249927604E+03  0.00000000000E+00 0. -1.
</event>
<event>
 7    1  0.6235964E-006  0.6624876E+02  0.7818608E-02  0.1427646E+00
          2   -1    0    0  502    0  0.00000000000E+00  0.00000000000E+00  0.21824277816E+04  0.21824277816E+04  0.00000000000E+00 0. -1.
          1   -1    0    0  501    0 -0.00000000000E+00 -0.00000000000E+00 -0.13829286701E+04  0.13829286701E+04  0.00000000000E+00 0. -1.
         25    2    1    2    0    0  0.26352793603E+02 -0.12302636017E+02  0.11717716222E+03  0.17378710706E+03  0.12500258658E+03 0.  0.
          2    1    1    2  501    0  0.15119116234E+02 -0.40361706483E+02 -0.13537291352E+04  0.13544150865E+04  0.00000000000E+00 0. -1.
          1    1    1    2  502    0 -0.41471909837E+02  0.52664342500E+02  0.20360510845E+04  0.20371542580E+04  0.00000000000E+00 0. -1.
         22    1    3    3    0    0  0.70469330792E+02 -0.30491543083E+02  0.92005546674E+02  0.11983606052E+03  0.00000000000E+00 0.  1.
         22    1    3    3    0    0 -0.44116537189E+02  0.18188907065E+02  0.25171615545E+02  0.53951046542E+02  0.00000000000E+00 0.  1.
</event>
<event>
 7    1  0.6432305E-006  0.8598258E+02  0.7818608E-02  0.1359817E+00
          2   -1    0    0  502    0  0.00000000000E+00  0.00000000000E+00  0.14783222921E+04  0.14783222921E+04  0.00000000000E+00 0. -1.
          1   -1    0    0  501    0 -0.00000000000E+00 -0.00000000000E+00 -0.88465537575E+03  0.88465537575E+03  0.00000000000E+00 0. -1.
         25    2    1    2    0    0 -0.42720660141E+02 -0.52678850966E+02 -0.65049116951E+03  0.66585492596E+03  0.12499561858E+03 0.  0.
          2    1    1    2  501    0 -0.42159799368E+02  0.38539895850E+02 -0.22159872924E+03  0.22884223617E+03  0.00000000000E+00 0. -1.
          1    1    1    2  502    0  0.84880459509E+02  0.14138955116E+02  0.14657568151E+04  0.14682805057E+04  0.00000000000E+00 0. -1.
         22    1    3    3    0    0 -0.85891411820E+02 -0.35015419190E+02 -0.36629588590E+03  0.37785723525E+03  0.00000000000E+00 0. -1.
         22    1    3    3    0    0  0.43170751679E+02 -0.17663431776E+02 -0.28419528361E+03  0.28799769070E+03  0.00000000000E+00 0. -1.
</event>
<event>
 7    1  0.6235964E-006  0.1301212E+03  0.7818608E-02  0.1405618E+00
          2   -1    0    0  502    0  0.00000000000E+00  0.00000000000E+00  0.13664217986E+04  0.13664217986E+04  0.00000000000E+00 0. -1.
          1   -1    0    0  501    0 -0.00000000000E+00 -0.00000000000E+00 -0.24478729439E+04  0.24478729439E+04  0.00000000000E+00 0. -1.
         25    2    1    2    0    0 -0.13304392711E+02 -0.12024237012E+03 -0.90540266275E+03  0.92196269831E+03  0.12500400365E+03 0.  0.
          2    1    1    2  501    0 -0.90502450356E+01  0.13355105060E+03 -0.15311454189E+04  0.15369853883E+04  0.00000000000E+00 0. -1.
          1    1    1    2  502    0  0.22354637746E+02 -0.13308680477E+02  0.13550969363E+04  0.13553466559E+04  0.00000000000E+00 0. -1.
         22    1    3    3    0    0  0.55144777187E+02 -0.39343826957E+02 -0.37722390360E+03  0.38325808095E+03  0.00000000000E+00 0. -1.
         22    1    3    3    0    0 -0.68449169898E+02 -0.80898543161E+02 -0.52817875915E+03  0.53870461736E+03  0.00000000000E+00 0. -1.
</event>
<event>
 7    1  0.6235964E-006  0.6292788E+02  0.7818608E-02  0.1427422E+00
          2   -1    0    0  502    0  0.00000000000E+00  0.00000000000E+00  0.15498304139E+04  0.15498304139E+04  0.00000000000E+00 0. -1.
          1   -1    0    0  501    0 -0.00000000000E+00 -0.00000000000E+00 -0.14492764850E+04  0.14492764850E+04  0.00000000000E+00 0. -1.
         25    2    1    2    0    0 -0.37698324735E+02 -0.18704156568E+01  0.42930012422E+03  0.44871790141E+03  0.12499798498E+03 0.  0.
          2    1    1    2  501    0 -0.14346657692E+02  0.43128675296E+02 -0.14382155385E+04  0.14389335789E+04  0.00000000000E+00 0. -1.
          1    1    1    2  502    0  0.52044982427E+02 -0.41258259640E+02  0.11094693431E+04  0.11114554186E+04  0.00000000000E+00 0. -1.
         22    1    3    3    0    0 -0.30170696476E+01 -0.35565850377E+02  0.30362831670E+02  0.46860793520E+02  0.00000000000E+00 0.  1.
         22    1    3    3    0    0 -0.34681255088E+02  0.33695434720E+02  0.39893729255E+03  0.40185710789E+03  0.00000000000E+00 0.  1.
</event>
<event>
 7    1  0.6235964E-006  0.7021469E+02  0.7818608E-02  0.1459163E+00
          2   -1    0    0  502    0  0.00000000000E+00  0.00000000000E+00  0.11041836849E+04  0.11041836849E+04  0.00000000000E+00 0. -1.
          1   -1    0    0  501    0 -0.00000000000E+00 -0.00000000000E+00 -0.31760314518E+03  0.31760314518E+03  0.00000000000E+00 0. -1.
         25    2    1    2    0    0  0.11167438901E+02  0.69076704468E+02  0.50875367811E+03  0.52853805836E+03  0.12500348536E+03 0.  0.
          2    1    1    2  501    0  0.30324237726E+02 -0.10735471576E+02 -0.30467275385E+03  0.30636627863E+03  0.00000000000E+00 0. -1.
          1    1    1    2  502    0 -0.41491676627E+02 -0.58341232892E+02  0.58249961550E+03  0.58688249313E+03  0.00000000000E+00 0. -1.
         22    1    3    3    0    0  0.35824099737E+02 -0.22737054819E+02  0.95683576195E+02  0.10466941548E+03  0.00000000000E+00 0.  1.
         22    1    3    3    0    0 -0.24656660836E+02  0.91813759287E+02  0.41307010191E+03  0.42386864287E+03  0.00000000000E+00 0.  1.
</event>
<event>
 7    1  0.6235964E-006  0.4343710E+02  0.7818608E-02  0.1503416E+00
          2   -1    0    0  502    0  0.00000000000E+00  0.00000000000E+00  0.15739964319E+04  0.15739964319E+04  0.00000000000E+00 0. -1.
          1   -1    0    0  501    0 -0.00000000000E+00 -0.00000000000E+00 -0.71581563463E+02  0.71581563463E+02  0.00000000000E+00 0. -1.
         25    2    1    2    0    0 -0.20771572305E+02  0.67597098247E+02  0.36772678622E+03  0.39477782296E+03  0.12500285711E+03 0.  0.
          2    1    1    2  501    0  0.28342995950E+02 -0.25399808777E+02 -0.51389483684E+02  0.63948062822E+02  0.00000000000E+00 0. -1.
          1    1    1    2  502    0 -0.75714236448E+01 -0.42197289470E+02  0.11860775659E+04  0.11868521096E+04  0.00000000000E+00 0. -1.
         22    1    3    3    0    0  0.43558494234E+02  0.57550610792E+02  0.25041110935E+03  0.26060533170E+03  0.00000000000E+00 0. -1.
         22    1    3    3    0    0 -0.64330066539E+02  0.10046487455E+02  0.11731567687E+03  0.13417249126E+03  0.00000000000E+00 0. -1.
</event>
<event>
 7    1  0.6235964E-006  0.7957608E+02  0.7818608E-02  0.1422948E+00
          2   -1    0    0  502    0  0.00000000000E+00  0.00000000000E+00  0.16997613330E+03  0.16997613330E+03  0.00000000000E+00 0. -1.
          1   -1    0    0  501    0 -0.00000000000E+00 -0.00000000000E+00 -0.30182806296E+03  0.30182806296E+03  0.00000000000E+00 0. -1.
         25    2    1    2    0    0  0.41902199228E+02 -0.49430812256E+02 -0.69026106033E+02  0.15681536434E+03  0.12500902239E+03 0.  0.
          2    1    1    2  501    0 -0.22114930647E+02  0.80922182823E+02 -0.17648012710E+03  0.19540395363E+03  0.00000000000E+00 0. -1.
          1    1    1    2  502    0 -0.19787268581E+02 -0.31491370568E+02  0.11365430347E+03  0.11958487829E+03  0.00000000000E+00 0. -1.
         22    1    3    3    0    0  0.73429397526E+02  0.94080707589E+01 -0.34860107462E+02  0.81826739570E+02  0.00000000000E+00 0. -1.
         22    1    3    3    0    0 -0.31527198298E+02 -0.58838883014E+02 -0.34165998571E+02  0.74988624772E+02  0.00000000000E+00 0. -1.
</event>
<event>
 7    1  0.7974060E-006  0.4371908E+02  0.7818608E-02  0.1486186E+00
          2   -1    0    0  502    0  0.00000000000E+00  0.00000000000E+00  0.16959507763E+04  0.16959507763E+04  0.00000000000E+00 0. -1.
          1   -1    0    0  501    0 -0.00000000000E+00 -0.00000000000E+00 -0.27319699961E+04  0.27319699961E+04  0.00000000000E+00 0. -1.
         25    2    1    2    0    0 -0.46190371687E+02 -0.59770723718E+02 -0.62602567436E+03  0.64283690896E+03  0.12500022684E+03 0.  0.
          2    1    1    2  501    0  0.39226633233E+02  0.16620047983E+02 -0.20970392937E+04  0.20974719912E+04  0.00000000000E+00 0. -1.
          1    1    1    2  502    0  0.69637384538E+01  0.43150675736E+02  0.16870457483E+04  0.16876118722E+04  0.00000000000E+00 0. -1.
         22    1    3    3    0    0  0.19645824983E+02 -0.74706680991E+02 -0.29106743922E+03  0.30114332268E+03  0.00000000000E+00 0.  1.
         22    1    3    3    0    0 -0.65836196669E+02  0.14935957273E+02 -0.33495823514E+03  0.34169358627E+03  0.00000000000E+00 0.  1.
</event>
<event>
 7    1  0.6235964E-006  0.1055316E+03  0.7818608E-02  0.1354292E+00
          2   -1    0    0  502    0  0.00000000000E+00  0.00000000000E+00  0.53230642503E+03  0.53230642503E+03  0.00000000000E+00 0. -1.
          1   -1    0    0  501    0 -0.00000000000E+00 -0.00000000000E+00 -0.70131835671E+03  0.70131835671E+03  0.00000000000E+00 0. -1.
         25    2    1    2    0    0 -0.23805287836E+01  0.11024265022E+03  0.40033259259E+03  0.43365005041E+03  0.12500829049E+03 0.  0.
          2    1    1    2  501    0 -0.44219875064E+02 -0.95888678369E+02 -0.67521137641E+03  0.68341820200E+03  0.00000000000E+00 0. -1.
          1    1    1    2  502    0  0.46600403848E+02 -0.14353971849E+02  0.10586685215E+03  0.11655652933E+03  0.00000000000E+00 0. -1.
         22    1    3    3    0    0 -0.49991711664E+02  0.58220812945E+01  0.15117299144E+03  0.15933091730E+03  0.00000000000E+00 0. -1.
         22    1    3    3    0    0  0.47611182880E+02  0.10442056892E+03  0.24915960114E+03  0.27431913311E+03  0.00000000000E+00 0. -1.
</event>
<event>
 7    1  0.1250398E-005  0.1406013E+03  0.7818608E-02  0.1237533E+00
          2   -1    0    0  502    0  0.00000000000E+00  0.00000000000E+00  0.13871490390E+04  0.13871490390E+04  0.00000000000E+00 0. -1.
          1   -1    0    0  501    0 -0.00000000000E+00 -0.00000000000E+00 -0.16991723708E+04  0.16991723708E+04  0.00000000000E+00 0. -1.
         25    2    1    2    0    0  0.48779189362E+02  0.44167633789E+02 -0.37084545354E+03  0.39683892932E+03  0.12499838488E+03 0.  0.
          2    1    1    2  501    0 -0.11833855632E+03 -0.12726318279E+03 -0.13074353580E+04  0.13189340950E+04  0.00000000000E+00 0. -1.
          1    1    1    2  502    0  0.69559366958E+02  0.83095549004E+02  0.13662574797E+04  0.13705483854E+04  0.00000000000E+00 0. -1.
         22    1    3    3    0    0 -0.42335919810E+02  0.74978607920E+01 -0.11779015799E+03  0.12539166377E+03  0.00000000000E+00 0. -1.
         22    1    3    3    0    0  0.91115109172E+02  0.36669772997E+02 -0.25305529556E+03  0.27144726556E+03  0.00000000000E+00 0. -1.
</event>
<event>
 7    1  0.6235964E-006  0.1924434E+03  0.7818608E-02  0.1196040E+00
          2   -1    0    0  502    0  0.00000000000E+00  0.00000000000E+00  0.56816641871E+03  0.56816641871E+03  0.00000000000E+00 0. -1.
          1   -1    0    0  501    0 -0.00000000000E+00 -0.00000000000E+00 -0.11900246462E+04  0.11900246462E+04  0.00000000000E+00 0. -1.
         25    2    1    2    0    0 -0.29554520062E+03  0.84887271816E+02  0.40239280144E+02  0.33436044826E+03  0.12499958066E+03 0.  0.
          2    1    1    2  501    0  0.17376156113E+03 -0.69905630458E+02 -0.10243651981E+04  0.10413471738E+04  0.00000000000E+00 0. -1.
          1    1    1    2  502    0  0.12178363949E+03 -0.14981641359E+02  0.36226769051E+03  0.38248344280E+03  0.00000000000E+00 0. -1.
         22    1    3    3    0    0 -0.14588569575E+03  0.22110410630E+02  0.79189946577E+02  0.16745911179E+03  0.00000000000E+00 0.  1.
         22    1    3    3    0    0 -0.14965950487E+03  0.62776861186E+02 -0.38950666433E+02  0.16690133647E+03  0.00000000000E+00 0.  1.
</event>
<event>
 7    1  0.6235964E-006  0.1545517E+03  0.7818608E-02  0.1235339E+00
          2   -1    0    0  502    0  0.00000000000E+00  0.00000000000E+00  0.47915751658E+03  0.47915751658E+03  0.00000000000E+00 0. -1.
          1   -1    0    0  501    0 -0.00000000000E+00 -0.00000000000E+00 -0.13290156231E+04  0.13290156231E+04  0.00000000000E+00 0. -1.
         25    2    1    2    0    0  0.16966062965E+03  0.11218717699E+03 -0.35303493470E+03  0.42618074447E+03  0.12500267959E+03 0.  0.
          2    1    1    2  501    0 -0.97977915515E+02  0.23768247889E+02 -0.92323687738E+03  0.92872543482E+03  0.00000000000E+00 0. -1.
          1    1    1    2  502    0 -0.71682714138E+02 -0.13595542488E+03  0.42641370558E+03  0.45326696037E+03  0.00000000000E+00 0. -1.
         22    1    3    3    0    0  0.16624177991E+03  0.46786311843E+02 -0.24269928626E+03  0.29787284521E+03  0.00000000000E+00 0.  1.
         22    1    3    3    0    0  0.34188497452E+01  0.65400865149E+02 -0.11033564845E+03  0.12830789927E+03  0.00000000000E+00 0.  1.
</event>
<event>
 7    1  0.6235964E-006  0.1100416E+03  0.7818608E-02  0.1373418E+00
          2   -1    0    0  502    0  0.00000000000E+00  0.00000000000E+00  0.48692107646E+03  0.48692107646E+03  0.00000000000E+00 0. -1.
          1   -1    0    0  501    0 -0.00000000000E+00 -0.00000000000E+00 -0.93685940322E+03  0.93685940322E+03  0.00000000000E+00 0. -1.
         25    2    1    2    0    0 -0.79831421942E+02  0.12173715141E+03  0.85401906526E+02  0.21002652241E+03  0.12499865806E+03 0.  0.
          2    1    1    2  501    0  0.71250613340E+02 -0.82814970625E+02 -0.86994801137E+03  0.87678076607E+03  0.00000000000E+00 0. -1.
          1    1    1    2  502    0  0.85808086022E+01 -0.38922180781E+02  0.33460777809E+03  0.33697319120E+03  0.00000000000E+00 0. -1.
         22    1    3    3    0    0 -0.66780758819E+02  0.12714776004E+03  0.22271883344E+02  0.14533499035E+03  0.00000000000E+00 0. -1.
         22    1    3    3    0    0 -0.13050663124E+02 -0.54106086366E+01  0.63130023182E+02  0.64691532064E+02  0.00000000000E+00 0. -1.
</event>
<event>
 7    1  0.6304305E-006  0.1073945E+03  0.7818608E-02  0.1270671E+00
          2   -1    0    0  502    0  0.00000000000E+00  0.00000000000E+00  0.67131728497E+03  0.67131728497E+03  0.00000000000E+00 0. -1.
          1   -1    0    0  501    0 -0.00000000000E+00 -0.00000000000E+00 -0.13459095750E+04  0.13459095750E+04  0.00000000000E+00 0. -1.
         25    2    1    2    0    0 -0.42860670943E+02 -0.95046352036E+02 -0.35891051365E+03  0.39409710226E+03  0.12499969221E+03 0.  0.
          2    1    1    2  501    0  0.10943211238E+03  0.10774053728E+02 -0.96184121868E+03  0.96810639777E+03  0.00000000000E+00 0. -1.
          1    1    1    2  502    0 -0.66571441434E+02  0.84272298308E+02  0.64615944235E+03  0.65502335990E+03  0.00000000000E+00 0. -1.
         22    1    3    3    0    0  0.10802178436E+02 -0.10696037101E+03 -0.22592472211E+03  0.25019829753E+03  0.00000000000E+00 0. -1.
         22    1    3    3    0    0 -0.53662849379E+02  0.11914018974E+02 -0.13298579154E+03  0.14389880473E+03  0.00000000000E+00 0. -1.
</event>
<event>
 7    1  0.6235964E-006  0.4639180E+02  0.7818608E-02  0.1502089E+00
          2   -1    0    0  502    0  0.00000000000E+00  0.00000000000E+00  0.66091875741E+03  0.66091875741E+03  0.00000000000E+00 0. -1.
          1   -1    0    0  501    0 -0.00000000000E+00 -0.00000000000E+00 -0.10759508610E+04  0.10759508610E+04  0.00000000000E+00 0. -1.
         25    2    1    2    0    0 -0.26856045817E+02  0.86216802072E+01  0.11443903274E+03  0.17180621271E+03  0.12500200777E+03 0.  0.
          2    1    1    2  501    0  0.82198423968E+01  0.35008040428E+02 -0.10458708596E+04  0.10464888837E+04  0.00000000000E+00 0. -1.
          1    1    1    2  502    0  0.18636203420E+02 -0.43629720635E+02  0.51639972332E+03  0.51857452198E+03  0.00000000000E+00 0. -1.
         22    1    3    3    0    0  0.47780180670E+02  0.21188522450E+02  0.42175627870E+02  0.67161616528E+02  0.00000000000E+00 0.  1.
         22    1    3    3    0    0 -0.74636226486E+02 -0.12566842243E+02  0.72263404866E+02  0.10464459619E+03  0.00000000000E+00 0.  1.
</event>
<event>
 7    1  0.6235964E-006  0.7009745E+02  0.7818608E-02  0.1522193E+00
          2   -1    0    0  502    0  0.00000000000E+00  0.00000000000E+00  0.32690287651E+03  0.32690287651E+03  0.00000000000E+00 0. -1.
          1   -1    0    0  501    0 -0.00000000000E+00 -0.00000000000E+00 -0.10806480795E+03  0.10806480795E+03  0.00000000000E+00 0. -1.
         25    2    1    2    0    0  0.31727277439E+02  0.40328018477E+02  0.17127924259E+01  0.13513244431E+03  0.12499949856E+03 0.  0.
          2    1    1    2  501    0  0.16832144273E+02  0.12177703601E+02 -0.33382002793E+02  0.39318896936E+02  0.00000000000E+00 0. -1.
          1    1    1    2  502    0 -0.48559421712E+02 -0.52505722078E+02  0.25050727892E+03  0.26051634321E+03  0.00000000000E+00 0. -1.
         22    1    3    3    0    0  0.24547657161E+02  0.66572729055E+02  0.44987781071E+02  0.84014380743E+02  0.00000000000E+00 0. -1.
         22    1    3    3    0    0  0.71796202785E+01 -0.26244710578E+02 -0.43274988645E+02  0.51118063567E+02  0.00000000000E+00 0. -1.
</event>
<event>
 7    1  0.6235964E-006  0.2489952E+03  0.7818608E-02  0.1207713E+00
          2   -1    0    0  502    0  0.00000000000E+00  0.00000000000E+00  0.21197909781E+04  0.21197909781E+04  0.00000000000E+00 0. -1.
          1   -1    0    0  501    0 -0.00000000000E+00 -0.00000000000E+00 -0.42859776480E+03  0.42859776480E+03  0.00000000000E+00 0. -1.
         25    2    1    2    0    0 -0.10241194143E+03  0.15334247696E+03  0.12207877816E+03  0.25402897264E+03  0.12500147950E+03 0.  0.
          2    1    1    2  501    0 -0.77482344622E+02  0.31329341403E+02 -0.34906589452E+03  0.35893180421E+03  0.00000000000E+00 0. -1.
          1    1    1    2  502    0  0.17989428605E+03 -0.18467181836E+03  0.19181803297E+04  0.19354279661E+04  0.00000000000E+00 0. -1.
         22    1    3    3    0    0 -0.38300042110E+01  0.82478747248E+02  0.10135306045E+01  0.82573845279E+02  0.00000000000E+00 0. -1.
         22    1    3    3    0    0 -0.98581937215E+02  0.70863729712E+02  0.12106524755E+03  0.17145512736E+03  0.00000000000E+00 0. -1.
</event>
<event>
 7    1  0.6235964E-006  0.5688508E+02  0.7818608E-02  0.1412408E+00
          2   -1    0    0  502    0  0.00000000000E+00  0.00000000000E+00  0.15760321908E+04  0.15760321908E+04  0.00000000000E+00 0. -1.
          1   -1    0    0  501    0 -0.00000000000E+00 -0.00000000000E+00 -0.29182998776E+02  0.29182998776E+02  0.00000000000E+00 0. -1.
         25    2    1    2    0    0 -0.23735707150E+02 -0.33107330246E+01  0.77879883537E+03  0.78913169899E+03  0.12500747029E+03 0.  0.
          2    1    1    2  501    0  0.10902952592E+02  0.58267912432E+02  0.15301739782E+02  0.61222277275E+02  0.00000000000E+00 0. -1.
          1    1    1    2  502    0  0.12832754558E+02 -0.54957179408E+02  0.75274861683E+03  0.75486121327E+03  0.00000000000E+00 0. -1.
         22    1    3    3    0    0  0.21689661502E+02 -0.53291630917E+02  0.43228077764E+03  0.43609300620E+03  0.00000000000E+00 0. -1.
         22    1    3    3    0    0 -0.45425368652E+02  0.49980897893E+02  0.34651805773E+03  0.35303869279E+03  0.00000000000E+00 0. -1.
</event>
<event>
 7    1  0.6235964E-006  0.6357157E+02  0.7818608E-02  0.1442387E+00
          2   -1    0    0  502    0  0.00000000000E+00  0.00000000000E+00  0.76932954351E+03  0.76932954351E+03  0.00000000000E+00 0. -1.
          1   -1    0    0  501    0 -0.00000000000E+00 -0.00000000000E+00 -0.92468904283E+03  0.92468904283E+03  0.00000000000E+00 0. -1.
         25    2    1    2    0    0  0.82858638041E+02 -0.15322711318E+01  0.10582043180E+03  0.18354832749E+03  0.12499649190E+03 0.  0.
          2    1    1    2  501    0 -0.27663275198E+02 -0.29166704372E+02 -0.88377055510E+03  0.88468432082E+03  0.00000000000E+00 0. -1.
          1    1    1    2  502    0 -0.55195362843E+02  0.30698975504E+02  0.62259062398E+03  0.62578593804E+03  0.00000000000E+00 0. -1.
         22    1    3    3    0    0 -0.18093771009E+02 -0.29894644914E+02  0.52902520866E+00  0.34947878499E+02  0.00000000000E+00 0.  1.
         22    1    3    3    0    0  0.10095240905E+03  0.28362373783E+02  0.10529140659E+03  0.14860044900E+03  0.00000000000E+00 0.  1.
</event>
<event>
 7    1  0.6235964E-006  0.9677466E+02  0.7818608E-02  0.1299914E+00
          2   -1    0    0  502    0  0.00000000000E+00  0.00000000000E+00  0.30125207202E+03  0.30125207202E+03  0.00000000000E+00 0. -1.
          1   -1    0    0  501    0 -0.00000000000E+00 -0.00000000000E+00 -0.17818969085E+04  0.17818969085E+04  0.00000000000E+00 0. -1.
         25    2    1    2    0    0 -0.13395484630E+02  0.55500448512E+02 -0.59735326856E+03  0.61295660307E+03  0.12500052394E+03 0.  0.
          2    1    1    2  501    0  0.99149229630E+02 -0.61901192557E+02 -0.11674605718E+04  0.11732972829E+04  0.00000000000E+00 0. -1.
          1    1    1    2  502    0 -0.85753745000E+02  0.64007440445E+01  0.28416900397E+03  0.29689509447E+03  0.00000000000E+00 0. -1.
         22    1    3    3    0    0  0.32428159080E+02 -0.19419528028E+02 -0.83556774144E+02  0.91708440590E+02  0.00000000000E+00 0. -1.
         22    1    3    3    0    0 -0.45823643710E+02  0.74919976540E+02 -0.51379649442E+03  0.52124816248E+03  0.00000000000E+00 0. -1.
</event>
<event>
 7    1  0.6235964E-006  0.3588449E+02  0.7818608E-02  0.1579545E+00
          2   -1    0    0  502    0  0.00000000000E+00  0.00000000000E+00  0.81358964339E+03  0.81358964339E+03  0.00000000000E+00 0. -1.
          1   -1    0    0  501    0 -0.00000000000E+00 -0.00000000000E+00 -0.57702236902E+03  0.57702236902E+03  0.00000000000E+00 0. -1.
         25    2    1    2    0    0 -0.33063470384E+02 -0.77652928981E+01  0.23048340245E+03  0.26438793252E+03  0.12499954884E+03 0.  0.
          2    1    1    2  501    0  0.15009159226E+02 -0.23739617020E+02 -0.55913503040E+03  0.55984000080E+03  0.00000000000E+00 0. -1.
          1    1    1    2  502    0  0.18054311157E+02  0.31504909918E+02  0.56521890233E+03  0.56638407909E+03  0.00000000000E+00 0. -1.
         22    1    3    3    0    0  0.29426092239E+02 -0.34381537316E+02  0.16092808452E+03  0.16717007328E+03  0.00000000000E+00 0. -1.
         22    1    3    3    0    0 -0.62489562623E+02  0.26616244418E+02  0.69555317927E+02  0.97217859242E+02  0.00000000000E+00 0. -1.
</event>
<event>
 7    1  0.6235964E-006  0.2325948E+02  0.7818608E-02  0.1695762E+00
          2   -1    0    0  502    0  0.00000000000E+00  0.00000000000E+00  0.29485202994E+03  0.29485202994E+03  0.00000000000E+00 0. -1.
          1   -1    0    0  501    0 -0.00000000000E+00 -0.00000000000E+00 -0.23808923347E+03  0.23808923347E+03  0.00000000000E+00 0. -1.
         25    2    1    2    0    0  0.21835779762E+02 -0.20513511821E+02  0.83336295419E+02  0.15319318914E+03  0.12500243845E+03 0.  0.
          2    1    1    2  501    0  0.22391824731E+00  0.23274794931E+02 -0.20178940923E+03  0.20312737849E+03  0.00000000000E+00 0. -1.
          1    1    1    2  502    0 -0.22059698009E+02 -0.27612831098E+01  0.17521591028E+03  0.17662069578E+03  0.00000000000E+00 0. -1.
         22    1    3    3    0    0 -0.12373476736E+02 -0.11761705977E+02 -0.29981510166E+02  0.34501182674E+02  0.00000000000E+00 0.  1.
         22    1    3    3    0    0  0.34209256498E+02 -0.87518058440E+01  0.11331780559E+03  0.11869200646E+03  0.00000000000E+00 0.  1.
</event>
<event>
 7    1  0.6235964E-006  0.5550660E+02  0.7818608E-02  0.1492880E+00
          2   -1    0    0  502    0  0.00000000000E+00  0.00000000000E+00  0.20344282983E+04  0.20344282983E+04  0.00000000000E+00 0. -1.
          1   -1    0    0  501    0 -0.00000000000E+00 -0.00000000000E+00 -0.57549693227E+02  0.57549693227E+02  0.00000000000E+00 0. -1.
         25    2    1    2    0    0 -0.34640705557E+02 -0.64957148435E+02  0.75060536551E+02  0.16333634256E+03  0.12500106815E+03 0.  0.
          2    1    1    2  501    0  0.68036543474E+01  0.49122890055E+02  0.33042224540E+02  0.59591414167E+02  0.00000000000E+00 0. -1.
          1    1    1    2  502    0  0.27837051210E+02  0.15834258380E+02  0.18687758440E+04  0.18690502348E+04  0.00000000000E+00 0. -1.
         22    1    3    3    0    0  0.43478247874E+01  0.20728572947E+02  0.65351679160E+02  0.68698029709E+02  0.00000000000E+00 0. -1.
         22    1    3    3    0    0 -0.38988530345E+02 -0.85685721382E+02  0.97088573910E+01  0.94638312850E+02  0.00000000000E+00 0. -1.
</event>
<event>
 7    1  0.6235964E-006  0.6169170E+02  0.7818608E-02  0.1482135E+00
          2   -1    0    0  502    0  0.00000000000E+00  0.00000000000E+00  0.18344101702E+03  0.18344101702E+03  0.00000000000E+00 0. -1.
          1   -1    0    0  501    0 -0.00000000000E+00 -0.00000000000E+00 -0.29650126438E+03  0.29650126438E+03  0.00000000000E+00 0. -1.
         25    2    1    2    0    0 -0.22510312887E+02 -0.34266344526E+02  0.66596100397E+02  0.14744824220E+03  0.12500018795E+03 0.  0.
          2    1    1    2  501    0 -0.42596561868E+01 -0.30768762265E+02 -0.23867162761E+03  0.24068445573E+03  0.00000000000E+00 0. -1.
          1    1    1    2  502    0  0.26769969073E+02  0.65035106791E+02  0.59015279862E+02  0.91809583469E+02  0.00000000000E+00 0. -1.
         22    1    3    3    0    0 -0.49319654378E+02  0.32188813451E+02  0.39115274249E+02  0.70700443414E+02  0.00000000000E+00 0.  1.
         22    1    3    3    0    0  0.26809341492E+02 -0.66455157976E+02  0.27480826148E+02  0.76747798787E+02  0.00000000000E+00 0.  1.
</event>
<event>
 7    1  0.6235964E-006  0.1418498E+03  0.7818608E-02  0.1226686E+00
          2   -1    0    0  502    0  0.00000000000E+00  0.00000000000E+00  0.45476549156E+03  0.45476549156E+03  0.00000000000E+00 0. -1.
          1   -1    0    0  501    0 -0.00000000000E+00 -0.00000000000E+00 -0.36878944436E+04  0.36878944436E+04  0.00000000000E+00 0. -1.
         25    2    1    2    0    0  0.73530313733E+02 -0.10060776022E+03 -0.40193116518E+03  0.43897857161E+03  0.12499958533E+03 0.  0.
          2    1    1    2  501    0  0.39171637234E+02  0.14209354059E+03 -0.32574760444E+04  0.32608089750E+04  0.00000000000E+00 0. -1.
          1    1    1    2  502    0 -0.11270195097E+03 -0.41485780372E+02  0.42627825753E+03  0.44287238858E+03  0.00000000000E+00 0. -1.
         22    1    3    3    0    0  0.19682805221E+02 -0.74039512078E+02 -0.77269554638E+02  0.10881105755E+03  0.00000000000E+00 0. -1.
         22    1    3    3    0    0  0.53847508512E+02 -0.26568248141E+02 -0.32466161054E+03  0.33016751406E+03  0.00000000000E+00 0. -1.
</event>
<event>
 7    1  0.6235964E-006  0.7504386E+02  0.7818608E-02  0.1491971E+00
          2   -1    0    0  502    0  0.00000000000E+00  0.00000000000E+00  0.10507892198E+04  0.10507892198E+04  0.00000000000E+00 0. -1.
          1   -1    0    0  501    0 -0.00000000000E+00 -0.00000000000E+00 -0.38663439190E+03  0.38663439190E+03  0.00000000000E+00 0. -1.
         25    2    1    2    0    0  0.56007284193E+02  0.70331645733E+01  0.26397161795E+03  0.29748020413E+03  0.12500870163E+03 0.  0.
          2    1    1    2  501    0 -0.74948699658E+02  0.74395604349E+01 -0.36585865785E+03  0.37353073791E+03  0.00000000000E+00 0. -1.
          1    1    1    2  502    0  0.18941415465E+02 -0.14472725008E+02  0.76604186775E+03  0.76641266961E+03  0.00000000000E+00 0. -1.
         22    1    3    3    0    0 -0.34792890947E+02  0.22822789281E+02  0.53996882173E+02  0.68169555194E+02  0.00000000000E+00 0.  1.
         22    1    3    3    0    0  0.90800175140E+02 -0.15789624708E+02  0.20997473577E+03  0.22931064894E+03  0.00000000000E+00 0.  1.
</event>
<event>
 7    1  0.6235964E-006  0.1307764E+03  0.7818608E-02  0.1364253E+00
          2   -1    0    0  502    0  0.00000000000E+00  0.00000000000E+00  0.66362615891E+02  0.66362615891E+02  0.00000000000E+00 0. -1.
          1   -1    0    0  501    0 -0.00000000000E+00 -0.00000000000E+00 -0.12585691070E+04  0.12585691070E+04  0.00000000000E+00 0. -1.
         25    2    1    2    0    0 -0.10036735261E+03  0.60867122932E+02 -0.80870469725E+03  0.82668422785E+03  0.12500045236E+03 0.  0.
          2    1    1    2  501    0  0.90701184074E+01  0.35030183838E+02 -0.36236176709E+03  0.36416401673E+03  0.00000000000E+00 0. -1.
          1    1    1    2  502    0  0.91297234204E+02 -0.95897306770E+02 -0.21140026733E+02  0.13408347829E+03  0.00000000000E+00 0. -1.
         22    1    3    3    0    0 -0.29719325715E+02  0.60838193726E+02 -0.15462149398E+03  0.16879671364E+03  0.00000000000E+00 0. -1.
         22    1    3    3    0    0 -0.70648026897E+02  0.28929205790E-01 -0.65408320328E+03  0.65788751421E+03  0.00000000000E+00 0. -1.
</event>
<event>
 7    1  0.6235964E-006  0.1701320E+03  0.7818608E-02  0.1391712E+00
          2   -1    0    0  502    0  0.00000000000E+00  0.00000000000E+00  0.21144041695E+03  0.21144041695E+03  0.00000000000E+00 0. -1.
          1   -1    0    0  501    0 -0.00000000000E+00 -0.00000000000E+00 -0.14487042535E+04  0.14487042535E+04  0.00000000000E+00 0. -1.
         25    2    1    2    0    0  0.13180920597E+03 -0.83557853437E+02 -0.11337239256E+03  0.22985605257E+03  0.12499969543E+03 0.  0.
          2    1    1    2  501    0 -0.13533101330E+03  0.10549588448E+03 -0.12704852535E+04  0.12820205318E+04  0.00000000000E+00 0. -1.
          1    1    1    2  502    0  0.35218073217E+01 -0.21938031045E+02  0.14659380952E+03  0.14826808598E+03  0.00000000000E+00 0. -1.
         22    1    3    3    0    0  0.98194376568E+02 -0.74471514213E+02 -0.13368425654E+02  0.12396312687E+03  0.00000000000E+00 0. -1.
         22    1    3    3    0    0  0.33614829406E+02 -0.90863392248E+01 -0.10000396691E+03  0.10589292570E+03  0.00000000000E+00 0. -1.
</event>
<event>
 7    1  0.6235964E-006  0.1077584E+03  0.7818608E-02  0.1333687E+00
          2   -1    0    0  502    0  0.00000000000E+00  0.00000000000E+00  0.84772041516E+02  0.84772041516E+02  0.00000000000E+00 0. -1.
          1   -1    0    0  501    0 -0.00000000000E+00 -0.00000000000E+00 -0.18719688466E+04  0.18719688466E+04  0.00000000000E+00 0. -1.
         25    2    1    2    0    0 -0.79555479167E+02  0.12590306134E+02 -0.65579832710E+03  0.67244630721E+03  0.12500000073E+03 0.  0.
          2    1    1    2  501    0  0.99858231200E+02 -0.65877738518E+02 -0.11937902992E+04  0.11997694867E+04  0.00000000000E+00 0. -1.
          1    1    1    2  502    0 -0.20302752032E+02  0.53287432384E+02  0.62391821229E+02  0.84525094182E+02  0.00000000000E+00 0. -1.
         22    1    3    3    0    0 -0.52421778426E+02 -0.37627003664E+02 -0.53459366384E+03  0.53847397307E+03  0.00000000000E+00 0. -1.
         22    1    3    3    0    0 -0.27133700741E+02  0.50217309798E+02 -0.12120466326E+03  0.13397233414E+03  0.00000000000E+00 0. -1.
</event>
<event>
 7    1  0.6235964E-006  0.6745892E+02  0.7818608E-02  0.1522039E+00
          2   -1    0    0  502    0  0.00000000000E+00  0.00000000000E+00  0.48092763801E+03  0.48092763801E+03  0.00000000000E+00 0. -1.
          1   -1    0    0  501    0 -0.00000000000E+00 -0.00000000000E+00 -0.11584968374E+03  0.11584968374E+03  0.00000000000E+00 0. -1.
         25    2    1    2    0    0  0.60966438284E+01  0.87562390346E+02  0.67508454862E+02  0.16699180343E+03  0.12499811865E+03 0.  0.
          2    1    1    2  501    0 -0.12272564618E+00 -0.21609929761E+02 -0.61227056101E+02  0.64928857411E+02  0.00000000000E+00 0. -1.
          1    1    1    2  502    0 -0.59739181822E+01 -0.65952460584E+02  0.35879655552E+03  0.36485666090E+03  0.00000000000E+00 0. -1.
         22    1    3    3    0    0 -0.40091430632E+02  0.65150165544E+02  0.83477451658E+02  0.11322699244E+03  0.00000000000E+00 0.  1.
         22    1    3    3    0    0  0.46188074460E+02  0.22412224801E+02 -0.15968996797E+02  0.53764810997E+02  0.00000000000E+00 0.  1.
</event>
<event>
 7    1  0.6235964E-006  0.1205321E+03  0.7818608E-02  0.1336105E+00
          2   -1    0    0  502    0  0.00000000000E+00  0.00000000000E+00  0.40437068416E+04  0.40437068416E+04  0.00000000000E+00 0. -1.
          1   -1    0    0  501    0 -0.00000000000E+00 -0.00000000000E+00 -0.80909739439E+03  0.80909739439E+03  0.00000000000E+00 0. -1.
         25    2    1    2    0    0 -0.85394967884E+02 -0.96898571548E+02  0.55111980033E+03  0.57968840665E+03  0.12499592303E+03 0.  0.
          2    1    1    2  501    0 -0.23089422320E+02  0.44254386609E+02 -0.79298305631E+03  0.79455251541E+03  0.00000000000E+00 0. -1.
          1    1    1    2  502    0  0.10848439020E+03  0.52644184938E+02  0.34764727032E+04  0.34785633139E+04  0.00000000000E+00 0. -1.
         22    1    3    3    0    0 -0.10596322675E+02 -0.84854830517E+02  0.41673854602E+03  0.42542172024E+03  0.00000000000E+00 0. -1.
         22    1    3    3    0    0 -0.74798645209E+02 -0.12043741031E+02  0.13438125431E+03  0.15426668640E+03  0.00000000000E+00 0. -1.
</event>
<event>
 7    1  0.6235964E-006  0.1139875E+03  0.7818608E-02  0.1424227E+00
          2   -1    0    0  502    0  0.00000000000E+00  0.00000000000E+00  0.12963655480E+04  0.12963655480E+04  0.00000000000E+00 0. -1.
          1   -1    0    0  501    0 -0.00000000000E+00 -0.00000000000E+00 -0.32970091701E+03  0.32970091701E+03  0.00000000000E+00 0. -1.
         25    2    1    2    0    0  0.15516103047E+02  0.89230723374E+02  0.41581521987E+03  0.44354236791E+03  0.12499865442E+03 0.  0.
          2    1    1    2  501    0 -0.93165815615E+01 -0.11418340293E+03 -0.30524921514E+03  0.32603946316E+03  0.00000000000E+00 0. -1.
          1    1    1    2  502    0 -0.61995214856E+01  0.24952679555E+02  0.85609862627E+03  0.85648463395E+03  0.00000000000E+00 0. -1.
         22    1    3    3    0    0 -0.15515813665E+01 -0.31945738490E+02  0.87720896547E+02  0.93369659437E+02  0.00000000000E+00 0.  1.
         22    1    3    3    0    0  0.17067684414E+02  0.12117646186E+03  0.32809432332E+03  0.35017270847E+03  0.00000000000E+00 0.  1.
</event>
<event>
 7    1  0.6235964E-006  0.2217482E+02  0.7818608E-02  0.1717340E+00
          2   -1    0    0  502    0  0.00000000000E+00  0.00000000000E+00  0.42711688005E+03  0.42711688005E+03  0.00000000000E+00 0. -1.
          1   -1    0    0  501    0 -0.00000000000E+00 -0.00000000000E+00 -0.85836106002E+03  0.85836106002E+03  0.00000000000E+00 0. -1.
         25    2    1    2    0    0  0.49894950029E+01  0.42335030512E+02 -0.14817842451E+03  0.19849315897E+03  0.12500215518E+03 0.  0.
          2    1    1    2  501    0 -0.47088575344E+01 -0.21523073281E+02 -0.68457848683E+03  0.68493293150E+03  0.00000000000E+00 0. -1.
          1    1    1    2  502    0 -0.28063746856E+00 -0.20811957231E+02  0.40151273136E+03  0.40205184960E+03  0.00000000000E+00 0. -1.
         22    1    3    3    0    0 -0.13786770213E+02  0.64399444515E+02 -0.15527507720E+03  0.16866449859E+03  0.00000000000E+00 0. -1.
         22    1    3    3    0    0  0.18776265216E+02 -0.22064414003E+02  0.70966526860E+01  0.29828660381E+02  0.00000000000E+00 0. -1.
</event>
<event>
 7    1  0.6235964E-006  0.1156197E+03  0.7818608E-02  0.1340095E+00
          2   -1    0    0  502    0  0.00000000000E+00  0.00000000000E+00  0.11064854218E+03  0.11064854218E+03  0.00000000000E+00 0. -1.
          1   -1    0    0  501    0 -0.00000000000E+00 -0.00000000000E+00 -0.51042947303E+03  0.51042947303E+03  0.00000000000E+00 0. -1.
         25    2    1    2    0    0 -0.79662959020E+02  0.11363993287E+02 -0.13603812035E+03  0.20151797755E+03  0.12501119032E+03 0.  0.
          2    1    1    2  501    0 -0.47304899909E+02 -0.16990774104E+02 -0.28612963856E+03  0.29051094648E+03  0.00000000000E+00 0. -1.
          1    1    1    2  502    0  0.12696785893E+03  0.56267808178E+01  0.22386828069E+02  0.12904909118E+03  0.00000000000E+00 0. -1.
         22    1    3    3    0    0  0.27516190863E+02  0.91084223475E+01 -0.86845810894E+00  0.28997557427E+02  0.00000000000E+00 0. -1.
         22    1    3    3    0    0 -0.10717914988E+03  0.22555709391E+01 -0.13516966224E+03  0.17252042013E+03  0.00000000000E+00 0. -1.
</event>
<event>
 7    1  0.6235964E-006  0.8045392E+02  0.7818608E-02  0.1400756E+00
          2   -1    0    0  502    0  0.00000000000E+00  0.00000000000E+00  0.67780350462E+02  0.67780350462E+02  0.00000000000E+00 0. -1.
          1   -1    0    0  501    0 -0.00000000000E+00 -0.00000000000E+00 -0.41279797186E+03  0.41279797186E+03  0.00000000000E+00 0. -1.
         25    2    1    2    0    0 -0.16781199602E+02 -0.38471559313E+02 -0.27107089222E+03  0.30144163828E+03  0.12500385252E+03 0.  0.
          2    1    1    2  501    0 -0.18269393960E+02 -0.39720914194E+02 -0.82145918246E+02  0.93056292987E+02  0.00000000000E+00 0. -1.
          1    1    1    2  502    0  0.35050593562E+02  0.78192473507E+02  0.81991890693E+01  0.86080391052E+02  0.00000000000E+00 0. -1.
         22    1    3    3    0    0 -0.39111631262E+02 -0.81178021313E+01 -0.25872120485E+03  0.26178670755E+03  0.00000000000E+00 0.  1.
         22    1    3    3    0    0  0.22330431660E+02 -0.30353757182E+02 -0.12349687372E+02  0.39654930732E+02  0.00000000000E+00 0.  1.
</event>
<event>
 7    1  0.6235964E-006  0.6622979E+02  0.7818608E-02  0.1414231E+00
          2   -1    0    0  502    0  0.00000000000E+00  0.00000000000E+00  0.44300297927E+03  0.44300297927E+03  0.00000000000E+00 0. -1.
          1   -1    0    0  501    0 -0.00000000000E+00 -0.00000000000E+00 -0.26574028573E+03  0.26574028573E+03  0.00000000000E+00 0. -1.
         25    2    1    2    0    0  0.11703968298E+02  0.92596870015E+02  0.27503317799E+02  0.15838599574E+03  0.12497410910E+03 0.  0.
          2    1    1    2  501    0 -0.35753918722E+02 -0.31712540534E+02 -0.19431762065E+03  0.20010838470E+03  0.00000000000E+00 0. -1.
          1    1    1    2  502    0  0.24049950424E+02 -0.60884329480E+02  0.34407699640E+03  0.35024888457E+03  0.00000000000E+00 0. -1.
         22    1    3    3    0    0 -0.46832390391E+02  0.27651919172E+01  0.19698755569E+02  0.50881824329E+02  0.00000000000E+00 0. -1.
         22    1    3    3    0    0  0.58536358688E+02  0.89831678097E+02  0.78045622295E+01  0.10750417141E+03  0.00000000000E+00 0. -1.
</event>
<event>
 7    1  0.6235964E-006  0.5035487E+02  0.7818608E-02  0.1560603E+00
          2   -1    0    0  502    0  0.00000000000E+00  0.00000000000E+00  0.70406106987E+02  0.70406106987E+02  0.00000000000E+00 0. -1.
          1   -1    0    0  501    0 -0.00000000000E+00 -0.00000000000E+00 -0.26245622171E+03  0.26245622171E+03  0.00000000000E+00 0. -1.
         25    2    1    2    0    0 -0.23655364283E+02 -0.23557627939E+02 -0.10429935648E+03  0.16618473935E+03  0.12499789493E+03 0.  0.
          2    1    1    2  501    0 -0.22425029631E+02 -0.22021628915E+01 -0.10785776699E+03  0.11018633934E+03  0.00000000000E+00 0. -1.
          1    1    1    2  502    0  0.46080393914E+02  0.25759790830E+02  0.20107008750E+02  0.56491250010E+02  0.00000000000E+00 0. -1.
         22    1    3    3    0    0  0.46557570785E+01  0.22822312429E+02 -0.10917161266E+03  0.11162873747E+03  0.00000000000E+00 0.  1.
         22    1    3    3    0    0 -0.28311121362E+02 -0.46379940368E+02  0.48722561766E+01  0.54556001884E+02  0.00000000000E+00 0.  1.
</event>
<event>
 7    1  0.6235964E-006  0.7133890E+02  0.7818608E-02  0.1490871E+00
          2   -1    0    0  502    0  0.00000000000E+00  0.00000000000E+00  0.34893765161E+03  0.34893765161E+03  0.00000000000E+00 0. -1.
          1   -1    0    0  501    0 -0.00000000000E+00 -0.00000000000E+00 -0.35126908455E+03  0.35126908455E+03  0.00000000000E+00 0. -1.
         25    2    1    2    0    0  0.86155523617E+02 -0.24234422528E+02 -0.13796690625E+03  0.20656651353E+03  0.12499910323E+03 0.  0.
          2    1    1    2  501    0 -0.15313194737E+02  0.20099413466E+02 -0.17407735726E+03  0.17590169603E+03  0.00000000000E+00 0. -1.
          1    1    1    2  502    0 -0.70842328880E+02  0.41350090629E+01  0.30971283057E+03  0.31773852659E+03  0.00000000000E+00 0. -1.
         22    1    3    3    0    0  0.97796909829E+02 -0.59971630225E+02 -0.11543100467E+03  0.16274258461E+03  0.00000000000E+00 0.  1.
         22    1    3    3    0    0 -0.11641386212E+02  0.35737207697E+02 -0.22535901576E+02  0.43823928928E+02  0.00000000000E+00 0.  1.
</event>
<event>
 7    1  0.6235964E-006  0.1072335E+03  0.7818608E-02  0.1330527E+00
          2   -1    0    0  502    0  0.00000000000E+00  0.00000000000E+00  0.14186507398E+03  0.14186507398E+03  0.00000000000E+00 0. -1.
          1   -1    0    0  501    0 -0.00000000000E+00 -0.00000000000E+00 -0.50113960806E+03  0.50113960806E+03  0.00000000000E+00 0. -1.
         25    2    1    2    0    0  0.74898047498E+02  0.96526780689E+01 -0.52534616269E+02  0.15520172895E+03  0.12499919620E+03 0.  0.
          2    1    1    2  501    0 -0.92729899389E+02 -0.65801857335E+02 -0.37835425018E+03  0.39507044599E+03  0.00000000000E+00 0. -1.
          1    1    1    2  502    0  0.17831851891E+02  0.56149179266E+02  0.71614332361E+02  0.92732507104E+02  0.00000000000E+00 0. -1.
         22    1    3    3    0    0  0.52915000388E+02  0.27041722193E+02  0.31046638250E+02  0.67045848133E+02  0.00000000000E+00 0.  1.
         22    1    3    3    0    0  0.21983047110E+02 -0.17389044124E+02 -0.83581254519E+02  0.88155880818E+02  0.00000000000E+00 0.  1.
</event>
<event>
 7    1  0.6235964E-006  0.1388848E+03  0.7818608E-02  0.1215818E+00
          2   -1    0    0  502    0  0.00000000000E+00  0.00000000000E+00  0.25692541591E+04  0.25692541591E+04  0.00000000000E+00 0. -1.
          1   -1    0    0  501    0 -0.00000000000E+00 -0.00000000000E+00 -0.11362457105E+03  0.11362457105E+03  0.00000000000E+00 0. -1.
         25    2    1    2    0    0  0.25851265841E+02 -0.43005487080E+02  0.51435213444E+03  0.53169562764E+03  0.12499744948E+03 0.  0.
          2    1    1    2  501    0  0.83619107941E+02  0.12612737447E+03 -0.46768981729E+02  0.15839067982E+03  0.00000000000E+00 0. -1.
          1    1    1    2  502    0 -0.10947037378E+03 -0.83121887388E+02  0.19880464354E+04  0.19927924227E+04  0.00000000000E+00 0. -1.
         22    1    3    3    0    0 -0.45521857235E+02 -0.48023409188E+01  0.10704481908E+03  0.11642119763E+03  0.00000000000E+00 0.  1.
         22    1    3    3    0    0  0.71373123076E+02 -0.38203146161E+02  0.40730731536E+03  0.41527443001E+03  0.00000000000E+00 0.  1.
</event>
<event>
 7    1  0.6235964E-006  0.6245369E+02  0.7818608E-02  0.1437158E+00
          2   -1    0    0  502    0  0.00000000000E+00  0.00000000000E+00  0.18228412761E+04  0.18228412761E+04  0.00000000000E+00 0. -1.
          1   -1    0    0  501    0 -0.00000000000E+00 -0.00000000000E+00 -0.14674008460E+02  0.14674008460E+02  0.00000000000E+00 0. -1.
         25    2    1    2    0    0 -0.96553734404E+02  0.18932421905E+02  0.14355220057E+04  0.14443096618E+04  0.12500363956E+03 0.  0.
          2    1    1    2  501    0  0.59973170048E+02  0.28003212205E+01  0.95439685378E+02  0.11275352087E+03  0.00000000000E+00 0. -1.
          1    1    1    2  502    0  0.36580564356E+02 -0.21732743125E+02  0.27720557658E+03  0.28045210197E+03  0.00000000000E+00 0. -1.
         22    1    3    3    0    0  0.28979535153E+02  0.94666594902E+00  0.17058216975E+03  0.17302885965E+03  0.00000000000E+00 0. -1.
         22    1    3    3    0    0 -0.12553326956E+03  0.17985755956E+02  0.12649398360E+04  0.12712808021E+04  0.00000000000E+00 0. -1.
</event>
<event>
 7    1  0.6235964E-006  0.8851336E+02  0.7818608E-02  0.1417263E+00
          2   -1    0    0  502    0  0.00000000000E+00  0.00000000000E+00  0.12610959194E+04  0.12610959194E+04  0.00000000000E+00 0. -1.
          1   -1    0    0  501    0 -0.00000000000E+00 -0.00000000000E+00 -0.30947801239E+02  0.30947801239E+02  0.00000000000E+00 0. -1.
         25    2    1    2    0    0  0.59608796782E+02 -0.27169640960E+02  0.94609725527E+03  0.95656469458E+03  0.12499840182E+03 0.  0.
          2    1    1    2  501    0 -0.90233877066E+02  0.10369331644E+02  0.60308863016E+02  0.10902676079E+03  0.00000000000E+00 0. -1.
          1    1    1    2  502    0  0.30625080285E+02  0.16800309316E+02  0.22374199985E+03  0.22645226524E+03  0.00000000000E+00 0. -1.
         22    1    3    3    0    0  0.33408350546E+01  0.36852748170E+02  0.55763656695E+03  0.55886297697E+03  0.00000000000E+00 0. -1.
         22    1    3    3    0    0  0.56267961727E+02 -0.64022389130E+02  0.38846068831E+03  0.39770171761E+03  0.00000000000E+00 0. -1.
</event>
<event>
 7    1  0.6235964E-006  0.5475615E+02  0.7818608E-02  0.1523467E+00
          2   -1    0    0  502    0  0.00000000000E+00  0.00000000000E+00  0.19791132208E+04  0.19791132208E+04  0.00000000000E+00 0. -1.
          1   -1    0    0  501    0 -0.00000000000E+00 -0.00000000000E+00 -0.80271950784E+03  0.80271950784E+03  0.00000000000E+00 0. -1.
         25    2    1    2    0    0 -0.47347259129E+02  0.38175696930E+02  0.37667336760E+02  0.14402879036E+03  0.12500526953E+03 0.  0.
          2    1    1    2  501    0  0.23839045096E+02  0.11276512419E+02 -0.74890970075E+03  0.74937387176E+03  0.00000000000E+00 0. -1.
          1    1    1    2  502    0  0.23508214032E+02 -0.49452209349E+02  0.18876360769E+04  0.18884300665E+04  0.00000000000E+00 0. -1.
         22    1    3    3    0    0 -0.37515808816E+02  0.83933202379E+02  0.29244128799E+02  0.96475061244E+02  0.00000000000E+00 0.  1.
         22    1    3    3    0    0 -0.98314503124E+01 -0.45757505449E+02  0.84232079609E+01  0.47553729113E+02  0.00000000000E+00 0.  1.
</event>
<event>
 7    1  0.6235964E-006  0.5353166E+02  0.7818608E-02  0.1436702E+00
          2   -1    0    0  502    0  0.00000000000E+00  0.00000000000E+00  0.24557513517E+03  0.24557513517E+03  0.00000000000E+00 0. -1.
          1   -1    0    0  501    0 -0.00000000000E+00 -0.00000000000E+00 -0.28856606422E+03  0.28856606422E+03  0.00000000000E+00 0. -1.
         25    2    1    2    0    0 -0.45500653374E+02 -0.13585293126E+02 -0.97744017987E+02  0.16563073872E+03  0.12499911564E+03 0.  0.
          2    1    1    2  501    0  0.48555149631E+01  0.49574094907E+02 -0.14928380559E+03  0.15737478045E+03  0.00000000000E+00 0. -1.
          1    1    1    2  502    0  0.40645138411E+02 -0.35988801781E+02  0.20403689453E+03  0.21113568021E+03  0.00000000000E+00 0. -1.
         22    1    3    3    0    0  0.25912752269E+02  0.30068691031E+02 -0.64158279953E+02  0.75444561083E+02  0.00000000000E+00 0.  1.
         22    1    3    3    0    0 -0.71413405643E+02 -0.43653984157E+02 -0.33585738034E+02  0.90186177642E+02  0.00000000000E+00 0.  1.
</event>
<event>
 7    1  0.6235964E-006  0.9692117E+02  0.7818608E-02  0.1386017E+00
          2   -1    0    0  502    0  0.00000000000E+00  0.00000000000E+00  0.78038355753E+03  0.78038355753E+03  0.00000000000E+00 0. -1.
          1   -1    0    0  501    0 -0.00000000000E+00 -0.00000000000E+00 -0.29990304347E+03  0.29990304347E+03  0.00000000000E+00 0. -1.
         25    2    1    2    0    0  0.31179402729E+02  0.13026788732E+03  0.34096554363E+03  0.38707127805E+03  0.12499917891E+03 0.  0.
          2    1    1    2  501    0 -0.95774979683E+01 -0.95618564000E+02 -0.26745867789E+03  0.28419849160E+03  0.00000000000E+00 0. -1.
          1    1    1    2  502    0 -0.21601904761E+02 -0.34649323317E+02  0.40697364832E+03  0.40901683134E+03  0.00000000000E+00 0. -1.
         22    1    3    3    0    0 -0.20645277947E+02  0.10205756927E+03  0.12248131466E+03  0.16075959501E+03  0.00000000000E+00 0. -1.
         22    1    3    3    0    0  0.51824680677E+02  0.28210318047E+02  0.21848422897E+03  0.22631168304E+03  0.00000000000E+00 0. -1.
</event>
<event>
 7    1  0.6235964E-006  0.7938919E+02  0.7818608E-02  0.1337425E+00
          2   -1    0    0  502    0  0.00000000000E+00  0.00000000000E+00  0.72712805497E+02  0.72712805497E+02  0.00000000000E+00 0. -1.
          1   -1    0    0  501    0 -0.00000000000E+00 -0.00000000000E+00 -0.34419805606E+04  0.34419805606E+04  0.00000000000E+00 0. -1.
         25    2    1    2    0    0  0.12267449797E+02 -0.89537318490E+02 -0.51632005692E+03  0.53886858024E+03  0.12500209542E+03 0.  0.
          2    1    1    2  501    0  0.55718063985E+02  0.58061090632E+02 -0.28907772597E+04  0.28918970864E+04  0.00000000000E+00 0. -1.
          1    1    1    2  502    0 -0.67985513783E+02  0.31476227858E+02  0.37829561577E+02  0.83927699442E+02  0.00000000000E+00 0. -1.
         22    1    3    3    0    0 -0.47736524977E+02 -0.10420527052E+02 -0.10623025182E+03  0.11692830967E+03  0.00000000000E+00 0. -1.
         22    1    3    3    0    0  0.60003974775E+02 -0.79116791438E+02 -0.41008980510E+03  0.42194027056E+03  0.00000000000E+00 0. -1.
</event>
<event>
 7    1  0.6235964E-006  0.1620232E+03  0.7818608E-02  0.1245680E+00
          2   -1    0    0  502    0  0.00000000000E+00  0.00000000000E+00  0.74489661866E+03  0.74489661866E+03  0.00000000000E+00 0. -1.
          1   -1    0    0  501    0 -0.00000000000E+00 -0.00000000000E+00 -0.13067721354E+04  0.13067721354E+04  0.00000000000E+00 0. -1.
         25    2    1    2    0    0  0.66349556761E+02 -0.67580723513E+02  0.51190078783E+02  0.16496990103E+03  0.12500090483E+03 0.  0.
          2    1    1    2  501    0  0.81092914146E+02 -0.30365244790E+02 -0.12360376747E+04  0.12390670854E+04  0.00000000000E+00 0. -1.
          1    1    1    2  502    0 -0.14744247091E+03  0.97945968302E+02  0.62297207921E+03  0.64763176761E+03  0.00000000000E+00 0. -1.
         22    1    3    3    0    0  0.40052872431E+02 -0.41284918245E+02  0.92788865688E+02  0.10917165685E+03  0.00000000000E+00 0.  1.
         22    1    3    3    0    0  0.26296684330E+02 -0.26295805268E+02 -0.41598786904E+02  0.55798244178E+02  0.00000000000E+00 0.  1.
</event>
<event>
 7    1  0.6235964E-006  0.3586268E+02  0.7818608E-02  0.1607519E+00
          2   -1    0    0  502    0  0.00000000000E+00  0.00000000000E+00  0.60856734741E+02  0.60856734741E+02  0.00000000000E+00 0. -1.
          1   -1    0    0  501    0 -0.00000000000E+00 -0.00000000000E+00 -0.42806964473E+03  0.42806964473E+03  0.00000000000E+00 0. -1.
         25    2    1    2    0    0  0.51239108205E+02  0.27696757274E+02 -0.18359141267E+03  0.22961577954E+03  0.12500017134E+03 0.  0.
          2    1    1    2  501    0 -0.30293826155E+02 -0.16571959196E+02 -0.21624105962E+03  0.21898068774E+03  0.00000000000E+00 0. -1.
          1    1    1    2  502    0 -0.20945282049E+02 -0.11124798078E+02  0.32619562305E+02  0.40329912191E+02  0.00000000000E+00 0. -1.
         22    1    3    3    0    0  0.62472103946E+02  0.67263428551E+02 -0.15272740069E+03  0.17819312982E+03  0.00000000000E+00 0.  1.
         22    1    3    3    0    0 -0.11232995741E+02 -0.39566671277E+02 -0.30864011976E+02  0.51422649723E+02  0.00000000000E+00 0.  1.
</event>
<event>
 7    1  0.6235964E-006  0.9221995E+02  0.7818608E-02  0.1349515E+00
          2   -1    0    0  502    0  0.00000000000E+00  0.00000000000E+00  0.16308853449E+04  0.16308853449E+04  0.00000000000E+00 0. -1.
          1   -1    0    0  501    0 -0.00000000000E+00 -0.00000000000E+00 -0.57267620235E+02  0.57267620235E+02  0.00000000000E+00 0. -1.
         25    2    1    2    0    0 -0.13613037897E+02 -0.44557691869E+02  0.30696137344E+03  0.33469601396E+03  0.12500173708E+03 0.  0.
          2    1    1    2  501    0  0.21465694182E+02 -0.54004006739E+02 -0.21163256351E+02  0.61847329691E+02  0.00000000000E+00 0. -1.
          1    1    1    2  502    0 -0.78526562854E+01  0.98561698608E+02  0.12878196076E+04  0.12916096215E+04  0.00000000000E+00 0. -1.
         22    1    3    3    0    0 -0.23666819094E+02 -0.80007451996E+02  0.13399253704E+03  0.15784584468E+03  0.00000000000E+00 0. -1.
         22    1    3    3    0    0  0.10053781197E+02  0.35449760127E+02  0.17296883640E+03  0.17685016928E+03  0.00000000000E+00 0. -1.
</event>
<event>
 7    1  0.6235964E-006  0.1980216E+03  0.7818608E-02  0.1296347E+00
          2   -1    0    0  502    0  0.00000000000E+00  0.00000000000E+00  0.94837342414E+03  0.94837342414E+03  0.00000000000E+00 0. -1.
          1   -1    0    0  501    0 -0.00000000000E+00 -0.00000000000E+00 -0.14639669338E+03  0.14639669338E+03  0.00000000000E+00 0. -1.
         25    2    1    2    0    0 -0.16896521418E+03 -0.16327253328E+03  0.44656693619E+03  0.51985951744E+03  0.12499890261E+03 0.  0.
          2    1    1    2  501    0  0.13878765142E+03  0.13203438700E+03 -0.23969194089E+02  0.19305339625E+03  0.00000000000E+00 0. -1.
          1    1    1    2  502    0  0.30177562756E+02  0.31238146274E+02  0.37937898866E+03  0.38185720383E+03  0.00000000000E+00 0. -1.
         22    1    3    3    0    0 -0.49134384046E+02  0.14945153690E+02  0.89167250044E+02  0.10289967830E+03  0.00000000000E+00 0. -1.
         22    1    3    3    0    0 -0.11983083013E+03 -0.17821768697E+03  0.35739968615E+03  0.41695983914E+03  0.00000000000E+00 0. -1.
</event>
<event>
 7    1  0.6235964E-006  0.7180316E+02  0.7818608E-02  0.1461920E+00
          2   -1    0    0  502    0  0.00000000000E+00  0.00000000000E+00  0.16562519887E+03  0.16562519887E+03  0.00000000000E+00 0. -1.
          1   -1    0    0  501    0 -0.00000000000E+00 -0.00000000000E+00 -0.30977228264E+04  0.30977228264E+04  0.00000000000E+00 0. -1.
         25    2    1    2    0    0 -0.21022464779E+02 -0.57782384575E+02 -0.15420505708E+03  0.20780948639E+03  0.12499934004E+03 0.  0.
          2    1    1    2  501    0 -0.64501555446E+01  0.71780802423E+02 -0.29145525073E+04  0.29154434322E+04  0.00000000000E+00 0. -1.
          1    1    1    2  502    0  0.27472620324E+02 -0.13998417848E+02  0.13665993690E+03  0.14009510671E+03  0.00000000000E+00 0. -1.
         22    1    3    3    0    0 -0.64150224803E+02 -0.48836169118E+02 -0.13995355208E+03  0.16151538471E+03  0.00000000000E+00 0.  1.
         22    1    3    3    0    0  0.43127760024E+02 -0.89462154566E+01 -0.14251505001E+02  0.46294101681E+02  0.00000000000E+00 0.  1.
</event>
<event>
 7    1  0.6235964E-006  0.6434659E+02  0.7818608E-02  0.1384800E+00
          2   -1    0    0  502    0  0.00000000000E+00  0.00000000000E+00  0.91386329776E+03  0.91386329776E+03  0.00000000000E+00 0. -1.
          1   -1    0    0  501    0 -0.00000000000E+00 -0.00000000000E+00 -0.12798702062E+03  0.12798702062E+03  0.00000000000E+00 0. -1.
         25    2    1    2    0    0 -0.33117053920E+02  0.75310920611E+01  0.17232315462E+03  0.21557874568E+03  0.12500187743E+03 0.  0.
          2    1    1    2  501    0  0.31235337792E+02  0.56787975930E+02 -0.94890438640E+02  0.11491177434E+03  0.00000000000E+00 0. -1.
          1    1    1    2  502    0  0.18817161273E+01 -0.64319067991E+02  0.70844356116E+03  0.71135979835E+03  0.00000000000E+00 0. -1.
         22    1    3    3    0    0 -0.64364735021E+02  0.38463967280E+02  0.14653588556E+03  0.16460577648E+03  0.00000000000E+00 0. -1.
         22    1    3    3    0    0  0.31247681101E+02 -0.30932875219E+02  0.25787269059E+02  0.50972969200E+02  0.00000000000E+00 0. -1.
</event>
<event>
 7    1  0.6235964E-006  0.6290525E+02  0.7818608E-02  0.1498960E+00
          2   -1    0    0  502    0  0.00000000000E+00  0.00000000000E+00  0.10990777670E+03  0.10990777670E+03  0.00000000000E+00 0. -1.
          1   -1    0    0  501    0 -0.00000000000E+00 -0.00000000000E+00 -0.20688889306E+04  0.20688889306E+04  0.00000000000E+00 0. -1.
         25    2    1    2    0    0 -0.45912450607E+02  0.39324583254E+02 -0.12511583949E+03  0.18690341341E+03  0.12499814672E+03 0.  0.
          2    1    1    2  501    0  0.25825237978E+02 -0.57509805143E+02 -0.19100208603E+04  0.19110609638E+04  0.00000000000E+00 0. -1.
          1    1    1    2  502    0  0.20087212628E+02  0.18185221889E+02  0.76155545929E+02  0.80832330055E+02  0.00000000000E+00 0. -1.
         22    1    3    3    0    0  0.18545266232E+02 -0.24140367028E+02  0.24282262738E+01  0.30538181064E+02  0.00000000000E+00 0.  1.
         22    1    3    3    0    0 -0.64457716839E+02  0.63464950282E+02 -0.12754406576E+03  0.15636523234E+03  0.00000000000E+00 0.  1.
</event>
<event>
 7    1  0.6235964E-006  0.9535279E+02  0.7818608E-02  0.1313122E+00
          2   -1    0    0  502    0  0.00000000000E+00  0.00000000000E+00  0.96881083150E+03  0.96881083150E+03  0.00000000000E+00 0. -1.
          1   -1    0    0  501    0 -0.00000000000E+00 -0.00000000000E+00 -0.10631027223E+03  0.10631027223E+03  0.00000000000E+00 0. -1.
         25    2    1    2    0    0  0.12052691287E+03 -0.32320699343E+02  0.11763421563E+03  0.21221798216E+03  0.12500919539E+03 0.  0.
          2    1    1    2  501    0 -0.63698348256E+02 -0.43909158347E+02 -0.29442053500E+02  0.82778791194E+02  0.00000000000E+00 0. -1.
          1    1    1    2  502    0 -0.56828564616E+02  0.76229857689E+02  0.77430839714E+03  0.78012433037E+03  0.00000000000E+00 0. -1.
         22    1    3    3    0    0  0.15511351505E+01 -0.49293995889E+02  0.63514932523E+02  0.80414244412E+02  0.00000000000E+00 0. -1.
         22    1    3    3    0    0  0.11897577772E+03  0.16973296547E+02  0.54119283105E+02  0.13180373775E+03  0.00000000000E+00 0. -1.
</event>
<event>
 7    1  0.6235964E-006  0.4342496E+02  0.7818608E-02  0.1558988E+00
          2   -1    0    0  502    0  0.00000000000E+00  0.00000000000E+00  0.83701936479E+03  0.83701936479E+03  0.00000000000E+00 0. -1.
          1   -1    0    0  501    0 -0.00000000000E+00 -0.00000000000E+00 -0.16355357548E+04  0.16355357548E+04  0.00000000000E+00 0. -1.
         25    2    1    2    0    0  0.43342586928E+02 -0.36245105918E+02 -0.10944213963E+04  0.11029852552E+04  0.12500397183E+03 0.  0.
          2    1    1    2  501    0 -0.10575352342E+01  0.26376603035E+02 -0.53594132051E+03  0.53659103850E+03  0.00000000000E+00 0. -1.
          1    1    1    2  502    0 -0.42285051693E+02  0.98685028827E+01  0.83184632681E+03  0.83297882588E+03  0.00000000000E+00 0. -1.
         22    1    3    3    0    0 -0.30847782482E+02 -0.12696965634E+02 -0.97875542146E+02  0.10340416032E+03  0.00000000000E+00 0.  1.
         22    1    3    3    0    0  0.74190369409E+02 -0.23548140284E+02 -0.99654585420E+03  0.99958109493E+03  0.00000000000E+00 0.  1.
</event>
<event>
 7    1  0.6235964E-006  0.4854415E+02  0.7818608E-02  0.1485097E+00
          2   -1    0    0  502    0  0.00000000000E+00  0.00000000000E+00  0.40674271472E+03  0.40674271472E+03  0.00000000000E+00 0. -1.
          1   -1    0    0  501    0 -0.00000000000E+00 -0.00000000000E+00 -0.21702602538E+03  0.21702602538E+03  0.00000000000E+00 0. -1.
         25    2    1    2    0    0  0.52354197738E+02 -0.19013418377E+02  0.32665001482E+03  0.35415690560E+03  0.12499763800E+03 0.  0.
          2    1    1    2  501    0 -0.44785997054E+02 -0.18900222665E+02 -0.19438049969E+03  0.20036662050E+03  0.00000000000E+00 0. -1.
          1    1    1    2  502    0 -0.75682006847E+01  0.37913641042E+02  0.57447174202E+02  0.69245214004E+02  0.00000000000E+00 0. -1.
         22    1    3    3    0    0 -0.17345065056E+02 -0.48822127574E+02  0.19955556845E+03  0.20617195814E+03  0.00000000000E+00 0.  1.
         22    1    3    3    0    0  0.69699262795E+02  0.29808709197E+02  0.12709444637E+03  0.14798494747E+03  0.00000000000E+00 0.  1.
</event>
<event>
 7    1  0.6272517E-006  0.1371306E+03  0.7818608E-02  0.1376293E+00
          2   -1    0    0  502    0  0.00000000000E+00  0.00000000000E+00  0.20186811047E+04  0.20186811047E+04  0.00000000000E+00 0. -1.
          1   -1    0    0  501    0 -0.00000000000E+00 -0.00000000000E+00 -0.19914913576E+04  0.19914913576E+04  0.00000000000E+00 0. -1.
         25    2    1    2    0    0 -0.62570089247E+02 -0.10742953861E+03 -0.15237053707E+03  0.23302064373E+03  0.12500287199E+03 0.  0.
          2    1    1    2  501    0 -0.30552329319E+02  0.65021230098E+01 -0.17962767606E+04  0.17965483359E+04  0.00000000000E+00 0. -1.
          1    1    1    2  502    0  0.93122418566E+02  0.10092741560E+03  0.19758370448E+04  0.19806034827E+04  0.00000000000E+00 0. -1.
         22    1    3    3    0    0 -0.23160188366E+02 -0.54161704858E+02 -0.15590776082E+03  0.16666467677E+03  0.00000000000E+00 0. -1.
         22    1    3    3    0    0 -0.39409900882E+02 -0.53267833750E+02  0.35372237539E+01  0.66355966965E+02  0.00000000000E+00 0. -1.
</event>
<event>
 7    1  0.6235964E-006  0.9351269E+02  0.7818608E-02  0.1458484E+00
          2   -1    0    0  502    0  0.00000000000E+00  0.00000000000E+00  0.64281169335E+03  0.64281169335E+03  0.00000000000E+00 0. -1.
          1   -1    0    0  501    0 -0.00000000000E+00 -0.00000000000E+00 -0.51227505150E+03  0.51227505150E+03  0.00000000000E+00 0. -1.
         25    2    1    2    0    0  0.35298889343E+02 -0.67364415791E+02  0.29941028529E+03  0.33325077960E+03  0.12500234821E+03 0.  0.
          2    1    1    2  501    0 -0.58919124507E+02  0.72958196862E+02 -0.49045488362E+03  0.49933991888E+03  0.00000000000E+00 0. -1.
          1    1    1    2  502    0  0.23620235165E+02 -0.55937810713E+01  0.32158124017E+03  0.32249604637E+03  0.00000000000E+00 0. -1.
         22    1    3    3    0    0  0.79272721903E+02 -0.22958291101E+02  0.14811173561E+03  0.16955333613E+03  0.00000000000E+00 0. -1.
         22    1    3    3    0    0 -0.43973832561E+02 -0.44406124689E+02  0.15129854968E+03  0.16369744346E+03  0.00000000000E+00 0. -1.
</event>
<event>
 7    1  0.7768054E-006  0.5499178E+02  0.7818608E-02  0.1437130E+00
          2   -1    0    0  502    0  0.00000000000E+00  0.00000000000E+00  0.12981791642E+04  0.12981791642E+04  0.00000000000E+00 0. -1.
          1   -1    0    0  501    0 -0.00000000000E+00 -0.00000000000E+00 -0.20440496109E+04  0.20440496109E+04  0.00000000000E+00 0. -1.
         25    2    1    2    0    0 -0.35406552958E+02  0.19889332681E+02 -0.75833418059E+02  0.15173983247E+03  0.12500023967E+03 0.  0.
          2    1    1    2  501    0 -0.12873371959E+02 -0.46587206363E+02 -0.19293563786E+04  0.19299616906E+04  0.00000000000E+00 0. -1.
          1    1    1    2  502    0  0.48279924918E+02  0.26697873683E+02  0.12593193500E+04  0.12605272520E+04  0.00000000000E+00 0. -1.
         22    1    3    3    0    0 -0.24882789708E+02  0.57721183356E+02  0.37791212145E+01  0.62969595749E+02  0.00000000000E+00 0.  1.
         22    1    3    3    0    0 -0.10523763250E+02 -0.37831850675E+02 -0.79612539273E+02  0.88770236724E+02  0.00000000000E+00 0.  1.
</event>
<event>
 7    1  0.6235964E-006  0.9571414E+02  0.7818608E-02  0.1327928E+00
          2   -1    0    0  502    0  0.00000000000E+00  0.00000000000E+00  0.12067220774E+04  0.12067220774E+04  0.00000000000E+00 0. -1.
          1   -1    0    0  501    0 -0.00000000000E+00 -0.00000000000E+00 -0.10363951887E+03  0.10363951887E+03  0.00000000000E+00 0. -1.
         25    2    1    2    0    0  0.89129923116E+02 -0.60827268834E+02  0.53408149049E+03  0.55902924793E+03  0.12500624676E+03 0.  0.
          2    1    1    2  501    0 -0.95965520892E+02 -0.63573945521E+01 -0.63492619171E+02  0.11524369985E+03  0.00000000000E+00 0. -1.
          1    1    1    2  502    0  0.68355977760E+01  0.67184663386E+02  0.63249368721E+03  0.63608864850E+03  0.00000000000E+00 0. -1.
         22    1    3    3    0    0  0.23343239548E+02  0.36208675458E+02  0.90712878638E+02  0.10042311169E+03  0.00000000000E+00 0. -1.
         22    1    3    3    0    0  0.65786683568E+02 -0.97035944291E+02  0.44336861185E+03  0.45860613624E+03  0.00000000000E+00 0. -1.
</event>
<event>
 7    1  0.6235964E-006  0.5788281E+02  0.7818608E-02  0.1431145E+00
          2   -1    0    0  502    0  0.00000000000E+00  0.00000000000E+00  0.13252095889E+03  0.13252095889E+03  0.00000000000E+00 0. -1.
          1   -1    0    0  501    0 -0.00000000000E+00 -0.00000000000E+00 -0.16940301319E+04  0.16940301319E+04  0.00000000000E+00 0. -1.
         25    2    1    2    0    0  0.89025107409E+02  0.61514638764E+00 -0.19088175809E+03  0.24492302700E+03  0.12500238169E+03 0.  0.
          2    1    1    2  501    0 -0.38933522094E+02 -0.28138852961E+02 -0.14679648912E+04  0.14687506718E+04  0.00000000000E+00 0. -1.
          1    1    1    2  502    0 -0.50091585315E+02  0.27523706574E+02  0.97337476249E+02  0.11287739200E+03  0.00000000000E+00 0. -1.
         22    1    3    3    0    0  0.73361527268E+02  0.17039348768E+02 -0.27818275030E+02  0.80287667267E+02  0.00000000000E+00 0. -1.
         22    1    3    3    0    0  0.15663580141E+02 -0.16424202380E+02 -0.16306348306E+03  0.16463535973E+03  0.00000000000E+00 0. -1.
</event>
<event>
 7    1  0.6235964E-006  0.8556328E+02  0.7818608E-02  0.1358425E+00
          2   -1    0    0  502    0  0.00000000000E+00  0.00000000000E+00  0.26383998758E+04  0.26383998758E+04  0.00000000000E+00 0. -1.
          1   -1    0    0  501    0 -0.00000000000E+00 -0.00000000000E+00 -0.36029015087E+02  0.36029015087E+02  0.00000000000E+00 0. -1.
         25    2    1    2    0    0  0.26712463605E+02  0.21392314137E+02  0.30671543686E+03  0.33297107796E+03  0.12499677088E+03 0.  0.
          2    1    1    2  501    0  0.19817838737E+02  0.54590850240E+02  0.16243970538E+02  0.60305673373E+02  0.00000000000E+00 0. -1.
          1    1    1    2  502    0 -0.46530302343E+02 -0.75983164377E+02  0.22794114533E+04  0.22811521395E+04  0.00000000000E+00 0. -1.
         22    1    3    3    0    0  0.13602988141E+02  0.62606887329E+02  0.26587863871E+03  0.27348878250E+03  0.00000000000E+00 0.  1.
         22    1    3    3    0    0  0.13109475464E+02 -0.41214573192E+02  0.40836798150E+02  0.59482295462E+02  0.00000000000E+00 0.  1.
</event>
<event>
 7    1  0.6235964E-006  0.9363847E+02  0.7818608E-02  0.1391197E+00
          2   -1    0    0  502    0  0.00000000000E+00  0.00000000000E+00  0.11526699601E+04  0.11526699601E+04  0.00000000000E+00 0. -1.
          1   -1    0    0  501    0 -0.00000000000E+00 -0.00000000000E+00 -0.40813227731E+02  0.40813227731E+02  0.00000000000E+00 0. -1.
         25    2    1    2    0    0  0.63020350875E+02 -0.54317146236E+01  0.33330603290E+03  0.36155131575E+03  0.12500149681E+03 0.  0.
          2    1    1    2  501    0  0.33934723091E+02 -0.22173115220E+02 -0.59586678400E+01  0.40972163627E+02  0.00000000000E+00 0. -1.
          1    1    1    2  502    0 -0.96955073966E+02  0.27604829844E+02  0.78450936729E+03  0.79095970844E+03  0.00000000000E+00 0. -1.
         22    1    3    3    0    0  0.99349332128E+01  0.35597542625E+02  0.25824231536E+03  0.26087349690E+03  0.00000000000E+00 0.  1.
         22    1    3    3    0    0  0.53085417663E+02 -0.41029257249E+02  0.75063717534E+02  0.10067781885E+03  0.00000000000E+00 0.  1.
</event>
<event>
 7    1  0.6235964E-006  0.1309036E+03  0.7818608E-02  0.1354787E+00
          2   -1    0    0  502    0  0.00000000000E+00  0.00000000000E+00  0.15601232522E+04  0.15601232522E+04  0.00000000000E+00 0. -1.
          1   -1    0    0  501    0 -0.00000000000E+00 -0.00000000000E+00 -0.26449435909E+03  0.26449435909E+03  0.00000000000E+00 0. -1.
         25    2    1    2    0    0  0.12483403331E+03 -0.86602433063E+02  0.18821147272E+03  0.27227154843E+03  0.12499888135E+03 0.  0.
          2    1    1    2  501    0 -0.12036600976E+03  0.47712718225E+02 -0.20330781686E+03  0.24103640426E+03  0.00000000000E+00 0. -1.
          1    1    1    2  502    0 -0.44680235483E+01  0.38889714838E+02  0.13107252372E+04  0.13113096586E+04  0.00000000000E+00 0. -1.
         22    1    3    3    0    0 -0.13406916487E+02  0.12327503029E+02 -0.58292254825E+00  0.18222308835E+02  0.00000000000E+00 0. -1.
         22    1    3    3    0    0  0.13824094980E+03 -0.98929936092E+02  0.18879439527E+03  0.25404923960E+03  0.00000000000E+00 0. -1.
</event>
<event>
 7    1  0.6235964E-006  0.4173493E+02  0.7818608E-02  0.1501379E+00
          2   -1    0    0  502    0  0.00000000000E+00  0.00000000000E+00  0.26516981285E+03  0.26516981285E+03  0.00000000000E+00 0. -1.
          1   -1    0    0  501    0 -0.00000000000E+00 -0.00000000000E+00 -0.54584585492E+03  0.54584585492E+03  0.00000000000E+00 0. -1.
         25    2    1    2    0    0  0.61083887197E+02 -0.46539258987E+02 -0.16408399684E+03  0.22010399732E+03  0.12500027087E+03 0.  0.
          2    1    1    2  501    0 -0.38373092054E+02  0.11872182369E+02 -0.35078635519E+03  0.35307861716E+03  0.00000000000E+00 0. -1.
          1    1    1    2  502    0 -0.22710795142E+02  0.34667076618E+02  0.23419430996E+03  0.23783305328E+03  0.00000000000E+00 0. -1.
         22    1    3    3    0    0  0.59584487971E+02 -0.32360031583E+02 -0.18372253841E+03  0.19583527254E+03  0.00000000000E+00 0. -1.
         22    1    3    3    0    0  0.14993992256E+01 -0.14179227404E+02  0.19638541571E+02  0.24268724788E+02  0.00000000000E+00 0. -1.
</event>
<event>
 7    1  0.6235964E-006  0.7685413E+02  0.7818608E-02  0.1494437E+00
          2   -1    0    0  502    0  0.00000000000E+00  0.00000000000E+00  0.80356096324E+03  0.80356096324E+03  0.00000000000E+00 0. -1.
          1   -1    0    0  501    0 -0.00000000000E+00 -0.00000000000E+00 -0.98553803889E+03  0.98553803889E+03  0.00000000000E+00 0. -1.
         25    2    1    2    0    0  0.27130048726E+02 -0.84765928087E+02 -0.68200426584E+03  0.69905251854E+03  0.12499321161E+03 0.  0.
          2    1    1    2  501    0  0.12672192180E+02  0.19051970602E+02 -0.29270605145E+03  0.29359903712E+03  0.00000000000E+00 0. -1.
          1    1    1    2  502    0 -0.39802240907E+02  0.65713957485E+02  0.79273324164E+03  0.79644744647E+03  0.00000000000E+00 0. -1.
         22    1    3    3    0    0 -0.32063887026E+02 -0.62380867252E+02 -0.18179940305E+03  0.19486017653E+03  0.00000000000E+00 0.  1.
         22    1    3    3    0    0  0.59193935752E+02 -0.22385060836E+02 -0.50020486279E+03  0.50419234201E+03  0.00000000000E+00 0.  1.
</event>
<event>
 7    1  0.6235964E-006  0.3632302E+02  0.7818608E-02  0.1561233E+00
          2   -1    0    0  502    0  0.00000000000E+00  0.00000000000E+00  0.43728078301E+03  0.43728078301E+03  0.00000000000E+00 0. -1.
          1   -1    0    0  501    0 -0.00000000000E+00 -0.00000000000E+00 -0.82617223290E+03  0.82617223290E+03  0.00000000000E+00 0. -1.
         25    2    1    2    0    0 -0.45443606569E+01  0.45033868816E+02 -0.13006488071E+03  0.18598287528E+03  0.12499622453E+03 0.  0.
          2    1    1    2  501    0  0.26594284612E+02 -0.16148627112E+02 -0.66697844230E+03  0.66770373417E+03  0.00000000000E+00 0. -1.
          1    1    1    2  502    0 -0.22049923955E+02 -0.28885241705E+02  0.40815187313E+03  0.40976640647E+03  0.00000000000E+00 0. -1.
         22    1    3    3    0    0  0.42446763962E+02  0.56339092631E+02 -0.11579442136E+03  0.13558823381E+03  0.00000000000E+00 0. -1.
         22    1    3    3    0    0 -0.46991124619E+02 -0.11305223815E+02 -0.14270459355E+02  0.50394641467E+02  0.00000000000E+00 0. -1.
</event>
<event>
 7    1  0.6235964E-006  0.3960674E+02  0.7818608E-02  0.1542820E+00
          2   -1    0    0  502    0  0.00000000000E+00  0.00000000000E+00  0.25112306682E+04  0.25112306682E+04  0.00000000000E+00 0. -1.
          1   -1    0    0  501    0 -0.00000000000E+00 -0.00000000000E+00 -0.11860481170E+03  0.11860481170E+03  0.00000000000E+00 0. -1.
         25    2    1    2    0    0  0.31375982698E+02 -0.64185753713E+02  0.65609895261E+03  0.67170960045E+03  0.12499475372E+03 0.  0.
          2    1    1    2  501    0 -0.15608692704E+02  0.36218457512E+02 -0.10714578296E+03  0.11417366929E+03  0.00000000000E+00 0. -1.
          1    1    1    2  502    0 -0.15767289994E+02  0.27967296201E+02  0.18436726869E+04  0.18439522102E+04  0.00000000000E+00 0. -1.
         22    1    3    3    0    0  0.70583700139E+01 -0.11135963713E+02  0.16576450416E+00  0.13185512995E+02  0.00000000000E+00 0.  1.
         22    1    3    3    0    0  0.24317612684E+02 -0.53049790000E+02  0.65593318810E+03  0.65852408746E+03  0.00000000000E+00 0.  1.
</event>
<event>
 7    1  0.6235964E-006  0.1299457E+03  0.7818608E-02  0.1277373E+00
          2   -1    0    0  502    0  0.00000000000E+00  0.00000000000E+00  0.91130635784E+03  0.91130635784E+03  0.00000000000E+00 0. -1.
          1   -1    0    0  501    0 -0.00000000000E+00 -0.00000000000E+00 -0.22312302646E+04  0.22312302646E+04  0.00000000000E+00 0. -1.
         25    2    1    2    0    0  0.11763757034E+03  0.90655550737E+02  0.11881277269E+03  0.22759314847E+03  0.12500055776E+03 0.  0.
          2    1    1    2  501    0 -0.72610596588E+02  0.31452769710E+02 -0.21703764949E+04  0.21718185249E+04  0.00000000000E+00 0. -1.
          1    1    1    2  502    0 -0.45026973753E+02 -0.12210832045E+03  0.73163981548E+03  0.74312494904E+03  0.00000000000E+00 0. -1.
         22    1    3    3    0    0  0.99782335635E+02  0.87769927609E+02  0.14440997032E+03  0.19625064133E+03  0.00000000000E+00 0.  1.
         22    1    3    3    0    0  0.17855234707E+02  0.28856231282E+01 -0.25597197624E+02  0.31342507134E+02  0.00000000000E+00 0.  1.
</event>
<event>
 7    1  0.6235964E-006  0.9004736E+02  0.7818608E-02  0.1340115E+00
          2   -1    0    0  502    0  0.00000000000E+00  0.00000000000E+00  0.29149838958E+04  0.29149838958E+04  0.00000000000E+00 0. -1.
          1   -1    0    0  501    0 -0.00000000000E+00 -0.00000000000E+00 -0.21404248340E+03  0.21404248340E+03  0.00000000000E+00 0. -1.
         25    2    1    2    0    0 -0.60391129373E+02  0.32086817569E+02  0.12356860081E+03  0.18860206594E+03  0.12499955120E+03 0.  0.
          2    1    1    2  501    0  0.29007781341E+02 -0.88467481607E+02 -0.16918421195E+03  0.19310941006E+03  0.00000000000E+00 0. -1.
          1    1    1    2  502    0  0.31383348032E+02  0.56380664038E+02  0.27465570235E+04  0.27473149032E+04  0.00000000000E+00 0. -1.
         22    1    3    3    0    0 -0.79688163351E+02  0.18307066715E+02  0.13831782113E+03  0.16067722836E+03  0.00000000000E+00 0. -1.
         22    1    3    3    0    0  0.19297033977E+02  0.13779750854E+02 -0.14749220317E+02  0.27924837580E+02  0.00000000000E+00 0. -1.
</event>
<event>
 7    1  0.6235964E-006  0.9017663E+02  0.7818608E-02  0.1349942E+00
          2   -1    0    0  502    0  0.00000000000E+00  0.00000000000E+00  0.90668114841E+03  0.90668114841E+03  0.00000000000E+00 0. -1.
          1   -1    0    0  501    0 -0.00000000000E+00 -0.00000000000E+00 -0.25808780215E+03  0.25808780215E+03  0.00000000000E+00 0. -1.
         25    2    1    2    0    0  0.92039795527E+02 -0.62196815748E+02  0.56798276830E+03  0.59208770751E+03  0.12499464166E+03 0.  0.
          2    1    1    2  501    0 -0.67755169049E+01  0.58825451042E+02 -0.23675322670E+03  0.24404596221E+03  0.00000000000E+00 0. -1.
          1    1    1    2  502    0 -0.85264278622E+02  0.33713647060E+01  0.31736380465E+03  0.32863528084E+03  0.00000000000E+00 0. -1.
         22    1    3    3    0    0  0.65955363909E+02  0.27076173585E+00  0.10371412124E+03  0.12290973226E+03  0.00000000000E+00 0. -1.
         22    1    3    3    0    0  0.26084431618E+02 -0.62467577484E+02  0.46426864706E+03  0.46917797525E+03  0.00000000000E+00 0. -1.
</event>
<event>
 7    1  0.6235964E-006  0.2169610E+03  0.7818608E-02  0.1249672E+00
          2   -1    0    0  502    0  0.00000000000E+00  0.00000000000E+00  0.61646630837E+03  0.61646630837E+03  0.00000000000E+00 0. -1.
          1   -1    0    0  501    0 -0.00000000000E+00 -0.00000000000E+00 -0.11278722652E+04  0.11278722652E+04  0.00000000000E+00 0. -1.
         25    2    1    2    0    0 -0.13678928425E+03 -0.22845459970E+03  0.71696793084E+02  0.30276756912E+03  0.12499983346E+03 0.  0.
          2    1    1    2  501    0  0.82987692371E+02  0.19738622178E+03 -0.99867944858E+03  0.10213759928E+04  0.00000000000E+00 0. -1.
          1    1    1    2  502    0  0.53801591878E+02  0.31068377918E+02  0.41557669864E+03  0.42019501168E+03  0.00000000000E+00 0. -1.
         22    1    3    3    0    0 -0.13488214726E+02 -0.26593047878E+02  0.58737458505E+02  0.65872689057E+02  0.00000000000E+00 0. -1.
         22    1    3    3    0    0 -0.12330106952E+03 -0.20186155182E+03  0.12959334579E+02  0.23689488007E+03  0.00000000000E+00 0. -1.
</event>
<event>
 7    1  0.6235964E-006  0.4988605E+02  0.7818608E-02  0.1489630E+00
          2   -1    0    0  502    0  0.00000000000E+00  0.00000000000E+00  0.21322633730E+04  0.21322633730E+04  0.00000000000E+00 0. -1.
          1   -1    0    0  501    0 -0.00000000000E+00 -0.00000000000E+00 -0.25766546057E+03  0.25766546057E+03  0.00000000000E+00 0. -1.
         25    2    1    2    0    0  0.63637964638E+01 -0.27754859610E+02 -0.64656260335E+02  0.14358273488E+03  0.12499895847E+03 0.  0.
          2    1    1    2  501    0  0.36398640498E+02  0.18974900756E+01 -0.15108015651E+03  0.15541452695E+03  0.00000000000E+00 0. -1.
          1    1    1    2  502    0 -0.42762436962E+02  0.25857369535E+02  0.20903343293E+04  0.20909315718E+04  0.00000000000E+00 0. -1.
         22    1    3    3    0    0  0.47343205480E+02  0.29927759625E+02 -0.39289688501E+02  0.68415857254E+02  0.00000000000E+00 0.  1.
         22    1    3    3    0    0 -0.40979409016E+02 -0.57682619236E+02 -0.25366571834E+02  0.75166877625E+02  0.00000000000E+00 0.  1.
</event>
<event>
 7    1  0.6235964E-006  0.6783787E+02  0.7818608E-02  0.1423030E+00
          2   -1    0    0  502    0  0.00000000000E+00  0.00000000000E+00  0.29517252133E+02  0.29517252133E+02  0.00000000000E+00 0. -1.
          1   -1    0    0  501    0 -0.00000000000E+00 -0.00000000000E+00 -0.86329338221E+03  0.86329338221E+03  0.00000000000E+00 0. -1.
         25    2    1    2    0    0 -0.52616436858E+02  0.71598701011E+02 -0.43412424528E+03  0.46041688914E+03  0.12499995222E+03 0.  0.
          2    1    1    2  501    0  0.58570249234E+02 -0.28407300076E+02 -0.37827539106E+03  0.38383553806E+03  0.00000000000E+00 0. -1.
          1    1    1    2  502    0 -0.59538123754E+01 -0.43191400935E+02 -0.21376493735E+02  0.48558207143E+02  0.00000000000E+00 0. -1.
         22    1    3    3    0    0  0.21963707721E+02  0.67618501378E+02 -0.28368852475E+03  0.29246169879E+03  0.00000000000E+00 0.  1.
         22    1    3    3    0    0 -0.74580144579E+02  0.39801996331E+01 -0.15043572053E+03  0.16795519035E+03  0.00000000000E+00 0.  1.
</event>
<event>
 7    1  0.6235964E-006  0.1654775E+03  0.7818608E-02  0.1325934E+00
          2   -1    0    0  502    0  0.00000000000E+00  0.00000000000E+00  0.24022693681E+03  0.24022693681E+03  0.00000000000E+00 0. -1.
          1   -1    0    0  501    0 -0.00000000000E+00 -0.00000000000E+00 -0.15709761413E+04  0.15709761413E+04  0.00000000000E+00 0. -1.
         25    2    1    2    0    0 -0.18936540804E+03 -0.20937363649E+02 -0.53228598245E+03  0.57900874759E+03  0.12500052687E+03 0.  0.
          2    1    1    2  501    0  0.15418971643E+03  0.39462271887E+02 -0.10072038655E+04  0.10197016065E+04  0.00000000000E+00 0. -1.
          1    1    1    2  502    0  0.35175691608E+02 -0.18524908238E+02  0.20874064351E+03  0.21249272401E+03  0.00000000000E+00 0. -1.
         22    1    3    3    0    0 -0.15518508624E+03  0.28369662927E+02 -0.29821683917E+03  0.33737298636E+03  0.00000000000E+00 0. -1.
         22    1    3    3    0    0 -0.34180321802E+02 -0.49307026576E+02 -0.23406914328E+03  0.24163576122E+03  0.00000000000E+00 0. -1.
</event>
<event>
 7    1  0.6235964E-006  0.1007362E+03  0.7818608E-02  0.1407139E+00
          2   -1    0    0  502    0  0.00000000000E+00  0.00000000000E+00  0.24910783647E+03  0.24910783647E+03  0.00000000000E+00 0. -1.
          1   -1    0    0  501    0 -0.00000000000E+00 -0.00000000000E+00 -0.11431573189E+04  0.11431573189E+04  0.00000000000E+00 0. -1.
         25    2    1    2    0    0 -0.11772657637E+03 -0.43586381405E+02 -0.81704705575E+02  0.19509323999E+03  0.12500557567E+03 0.  0.
          2    1    1    2  501    0  0.32614795802E+02 -0.62433017094E+01 -0.99182403974E+03  0.99237978090E+03  0.00000000000E+00 0. -1.
          1    1    1    2  502    0  0.85111780571E+02  0.49829683115E+02  0.17947926292E+03  0.20479213444E+03  0.00000000000E+00 0. -1.
         22    1    3    3    0    0 -0.12179666583E+03 -0.40235530185E+01 -0.22735909438E+02  0.12396587581E+03  0.00000000000E+00 0.  1.
         22    1    3    3    0    0  0.40700894588E+01 -0.39562828387E+02 -0.58968796137E+02  0.71127364185E+02  0.00000000000E+00 0.  1.
</event>
<event>
 7    1  0.6235964E-006  0.6831351E+03  0.7818608E-02  0.1055425E+00
          2   -1    0    0  502    0  0.00000000000E+00  0.00000000000E+00  0.23564920051E+04  0.23564920051E+04  0.00000000000E+00 0. -1.
          1   -1    0    0  501    0 -0.00000000000E+00 -0.00000000000E+00 -0.10912933685E+04  0.10912933685E+04  0.00000000000E+00 0. -1.
         25    2    1    2    0    0 -0.17681522987E+03 -0.64974442214E+03  0.11672022222E+04  0.13532980087E+04  0.12499213238E+03 0.  0.
          2    1    1    2  501    0  0.18877172149E+03 -0.60855106781E+02 -0.87072202518E+03  0.89302572862E+03  0.00000000000E+00 0. -1.
          1    1    1    2  502    0 -0.11956491621E+02  0.71059952892E+03  0.96871843965E+03  0.12014616363E+04  0.00000000000E+00 0. -1.
         22    1    3    3    0    0 -0.11886525985E+03 -0.34859331366E+03  0.74951113943E+03  0.83511268488E+03  0.00000000000E+00 0.  1.
         22    1    3    3    0    0 -0.57949970025E+02 -0.30115110848E+03  0.41769108277E+03  0.51818532379E+03  0.00000000000E+00 0.  1.
</event>
<event>
 7    1  0.6235964E-006  0.2216997E+03  0.7818608E-02  0.1325311E+00
          2   -1    0    0  502    0  0.00000000000E+00  0.00000000000E+00  0.93471911149E+03  0.93471911149E+03  0.00000000000E+00 0. -1.
          1   -1    0    0  501    0 -0.00000000000E+00 -0.00000000000E+00 -0.16840312116E+03  0.16840312116E+03  0.00000000000E+00 0. -1.
         25    2    1    2    0    0  0.18975598680E+03 -0.15920181295E+03  0.61404900392E+03  0.67382115758E+03  0.12500488557E+03 0.  0.
          2    1    1    2  501    0 -0.16437827751E+03  0.14350883460E+03 -0.50808077498E+02  0.22404567495E+03  0.00000000000E+00 0. -1.
          1    1    1    2  502    0 -0.25377709298E+02  0.15692978345E+02  0.20307506391E+03  0.20525540012E+03  0.00000000000E+00 0. -1.
         22    1    3    3    0    0  0.19962719712E+02  0.13999100276E+02  0.13154540551E+03  0.13378594357E+03  0.00000000000E+00 0. -1.
         22    1    3    3    0    0  0.16979326709E+03 -0.17320091322E+03  0.48250359841E+03  0.54003521401E+03  0.00000000000E+00 0. -1.
</event>
<event>
 7    1  0.6235964E-006  0.3126998E+03  0.7818608E-02  0.1120830E+00
          2   -1    0    0  502    0  0.00000000000E+00  0.00000000000E+00  0.40624450623E+04  0.40624450623E+04  0.00000000000E+00 0. -1.
          1   -1    0    0  501    0 -0.00000000000E+00 -0.00000000000E+00 -0.24016671952E+03  0.24016671952E+03  0.00000000000E+00 0. -1.
         25    2    1    2    0    0  0.14035609366E+03  0.94843772222E+02  0.11551492584E+03  0.24013199519E+03  0.12499801145E+03 0.  0.
          2    1    1    2  501    0  0.50400185140E+02  0.17470629683E+03 -0.12234470201E+03  0.21915906306E+03  0.00000000000E+00 0. -1.
          1    1    1    2  502    0 -0.19075627880E+03 -0.26955006905E+03  0.38291081189E+04  0.38433207236E+04  0.00000000000E+00 0. -1.
         22    1    3    3    0    0  0.96870567971E+02  0.10276345094E+02  0.10693425373E+03  0.14465284245E+03  0.00000000000E+00 0. -1.
         22    1    3    3    0    0  0.43485525686E+02  0.84567427128E+02  0.85806721133E+01  0.95479152746E+02  0.00000000000E+00 0. -1.
</event>
<event>
 7    1  0.6235964E-006  0.1218901E+03  0.7818608E-02  0.1278563E+00
          2   -1    0    0  502    0  0.00000000000E+00  0.00000000000E+00  0.23696229038E+04  0.23696229038E+04  0.00000000000E+00 0. -1.
          1   -1    0    0  501    0 -0.00000000000E+00 -0.00000000000E+00 -0.26958102539E+03  0.26958102539E+03  0.00000000000E+00 0. -1.
         25    2    1    2    0    0  0.34302487680E+02  0.75915503627E+02  0.19493450858E+03  0.24609812907E+03  0.12500000859E+03 0.  0.
          2    1    1    2  501    0 -0.70254030711E+02  0.44955095345E+02 -0.23496083787E+03  0.24932545951E+03  0.00000000000E+00 0. -1.
          1    1    1    2  502    0  0.35951543030E+02 -0.12087059897E+03  0.21400682077E+04  0.21437803406E+04  0.00000000000E+00 0. -1.
         22    1    3    3    0    0  0.20353503839E+02  0.10676381673E+03  0.17720644974E+03  0.20788194609E+03  0.00000000000E+00 0. -1.
         22    1    3    3    0    0  0.13948983842E+02 -0.30848313104E+02  0.17728058839E+02  0.38216182982E+02  0.00000000000E+00 0. -1.
</event>
<event>
 7    1  0.6235964E-006  0.7973769E+02  0.7818608E-02  0.1396861E+00
          2   -1    0    0  502    0  0.00000000000E+00  0.00000000000E+00  0.31418856856E+03  0.31418856856E+03  0.00000000000E+00 0. -1.
          1   -1    0    0  501    0 -0.00000000000E+00 -0.00000000000E+00 -0.14892265375E+04  0.14892265375E+04  0.00000000000E+00 0. -1.
         25    2    1    2    0    0  0.19893710428E+02 -0.12142561801E+03  0.40506100347E+02  0.18001428928E+03  0.12499783902E+03 0.  0.
          2    1    1    2  501    0 -0.27974149412E+01  0.79262260494E+02 -0.14158110020E+04  0.14180307207E+04  0.00000000000E+00 0. -1.
          1    1    1    2  502    0 -0.17096295487E+02  0.42163357511E+02  0.20026693270E+03  0.20537009609E+03  0.00000000000E+00 0. -1.
         22    1    3    3    0    0 -0.32756224974E+02  0.95388453272E+01  0.10643796426E+02  0.35738638014E+02  0.00000000000E+00 0.  1.
         22    1    3    3    0    0  0.52649935402E+02 -0.13096446333E+03  0.29862303921E+02  0.14427565127E+03  0.00000000000E+00 0.  1.
</event>
<event>
 7    1  0.6235964E-006  0.8760518E+02  0.7818608E-02  0.1340627E+00
          2   -1    0    0  502    0  0.00000000000E+00  0.00000000000E+00  0.33211925441E+03  0.33211925441E+03  0.00000000000E+00 0. -1.
          1   -1    0    0  501    0 -0.00000000000E+00 -0.00000000000E+00 -0.13209570634E+04  0.13209570634E+04  0.00000000000E+00 0. -1.
         25    2    1    2    0    0  0.49543583088E+02 -0.33794461266E+02 -0.15560565825E+02  0.13951488746E+03  0.12500256148E+03 0.  0.
          2    1    1    2  501    0 -0.86280731866E+02 -0.21074904136E+02 -0.12377690204E+04  0.12409515156E+04  0.00000000000E+00 0. -1.
          1    1    1    2  502    0  0.36737148778E+02  0.54869365402E+02  0.26449177725E+03  0.27260991470E+03  0.00000000000E+00 0. -1.
         22    1    3    3    0    0  0.46159345428E+02 -0.39787925258E+02  0.46761387432E+02  0.76814006023E+02  0.00000000000E+00 0.  1.
         22    1    3    3    0    0  0.33842376602E+01  0.59934639923E+01 -0.62321953257E+02  0.62700881437E+02  0.00000000000E+00 0.  1.
</event>
<event>
 7    1  0.6235964E-006  0.8901889E+02  0.7818608E-02  0.1359910E+00
          2   -1    0    0  502    0  0.00000000000E+00  0.00000000000E+00  0.90492625347E+03  0.90492625347E+03  0.00000000000E+00 0. -1.
          1   -1    0    0  501    0 -0.00000000000E+00 -0.00000000000E+00 -0.12057892185E+04  0.12057892185E+04  0.00000000000E+00 0. -1.
         25    2    1    2    0    0 -0.38259890954E+02 -0.11856330345E+03  0.41673407065E+03  0.45256352790E+03  0.12500153983E+03 0.  0.
          2    1    1    2  501    0 -0.13260360214E+02  0.53510687988E+02 -0.11835671721E+04  0.11848504048E+04  0.00000000000E+00 0. -1.
          1    1    1    2  502    0  0.51520251168E+02  0.65052615466E+02  0.46597013641E+03  0.47330153928E+03  0.00000000000E+00 0. -1.
         22    1    3    3    0    0 -0.36865139609E+02 -0.12726831451E+03  0.42198780345E+03  0.44230076720E+03  0.00000000000E+00 0. -1.
         22    1    3    3    0    0 -0.13947513455E+01  0.87050110600E+01 -0.52537328020E+01  0.10262760702E+02  0.00000000000E+00 0. -1.
</event>
<event>
 7    1  0.6235964E-006  0.1159069E+03  0.7818608E-02  0.1421779E+00
          2   -1    0    0  502    0  0.00000000000E+00  0.00000000000E+00  0.17214170226E+04  0.17214170226E+04  0.00000000000E+00 0. -1.
          1   -1    0    0  501    0 -0.00000000000E+00 -0.00000000000E+00 -0.98021082973E+03  0.98021082973E+03  0.00000000000E+00 0. -1.
         25    2    1    2    0    0 -0.71036385443E+02  0.10300399304E+03  0.81189851396E+02  0.19460939031E+03  0.12500012876E+03 0.  0.
          2    1    1    2  501    0  0.25548263146E+02  0.33272386864E+01 -0.92120904027E+03  0.92156924870E+03  0.00000000000E+00 0. -1.
          1    1    1    2  502    0  0.45488122297E+02 -0.10633123172E+03  0.15812253818E+04  0.15854492133E+04  0.00000000000E+00 0. -1.
         22    1    3    3    0    0 -0.88318874394E+02  0.58874448362E+02  0.67431271319E+01  0.10635738812E+03  0.00000000000E+00 0.  1.
         22    1    3    3    0    0  0.17282488951E+02  0.44129544676E+02  0.74446724264E+02  0.88252002195E+02  0.00000000000E+00 0.  1.
</event>
<event>
 7    1  0.6235964E-006  0.1111347E+03  0.7818608E-02  0.1264922E+00
          2   -1    0    0  502    0  0.00000000000E+00  0.00000000000E+00  0.15275305544E+04  0.15275305544E+04  0.00000000000E+00 0. -1.
          1   -1    0    0  501    0 -0.00000000000E+00 -0.00000000000E+00 -0.57126202272E+03  0.57126202272E+03  0.00000000000E+00 0. -1.
         25    2    1    2    0    0 -0.61770378892E+02 -0.73212871186E+02  0.21530343518E+03  0.26675281262E+03  0.12500315845E+03 0.  0.
          2    1    1    2  501    0 -0.54212381612E+02  0.89149145458E+02 -0.53785001270E+03  0.54787698311E+03  0.00000000000E+00 0. -1.
          1    1    1    2  502    0  0.11598276050E+03 -0.15936274272E+02  0.12788151092E+04  0.12841627814E+04  0.00000000000E+00 0. -1.
         22    1    3    3    0    0 -0.11690549484E+02  0.93288843796E+01  0.14872729168E+03  0.14947743750E+03  0.00000000000E+00 0.  1.
         22    1    3    3    0    0 -0.50079829408E+02 -0.82541755565E+02  0.66576143496E+02  0.11727537511E+03  0.00000000000E+00 0.  1.
</event>
<event>
 7    1  0.6235964E-006  0.3515623E+02  0.7818608E-02  0.1599371E+00
          2   -1    0    0  502    0  0.00000000000E+00  0.00000000000E+00  0.12883427528E+04  0.12883427528E+04  0.00000000000E+00 0. -1.
          1   -1    0    0  501    0 -0.00000000000E+00 -0.00000000000E+00 -0.19927364827E+03  0.19927364827E+03  0.00000000000E+00 0. -1.
         25    2    1    2    0    0  0.51707405299E+02  0.24195412987E+01  0.78172147042E+03  0.79334189886E+03  0.12499360477E+03 0.  0.
          2    1    1    2  501    0 -0.32257522812E+02  0.13920874537E+02 -0.19154254917E+03  0.19473799493E+03  0.00000000000E+00 0. -1.
          1    1    1    2  502    0 -0.19449882488E+02 -0.16340415836E+02  0.49889018329E+03  0.49953650728E+03  0.00000000000E+00 0. -1.
         22    1    3    3    0    0 -0.74064063866E+01 -0.40585031729E+02  0.10709590055E+03  0.11476729312E+03  0.00000000000E+00 0. -1.
         22    1    3    3    0    0  0.59113811686E+02  0.43004573028E+02  0.67462556987E+03  0.67857460574E+03  0.00000000000E+00 0. -1.
</event>
<event>
 7    1  0.6235964E-006  0.5684217E+02  0.7818608E-02  0.1420185E+00
          2   -1    0    0  502    0  0.00000000000E+00  0.00000000000E+00  0.68222907993E+02  0.68222907993E+02  0.00000000000E+00 0. -1.
          1   -1    0    0  501    0 -0.00000000000E+00 -0.00000000000E+00 -0.41934967756E+03  0.41934967756E+03  0.00000000000E+00 0. -1.
         25    2    1    2    0    0 -0.35722746084E+02 -0.34175786007E+02 -0.16609315679E+03  0.21367068940E+03  0.12499651132E+03 0.  0.
          2    1    1    2  501    0 -0.10157983546E+02  0.61070114561E+02 -0.20722523884E+03  0.21627538726E+03  0.00000000000E+00 0. -1.
          1    1    1    2  502    0  0.45880729630E+02 -0.26894328553E+02  0.22191626059E+02  0.57626508890E+02  0.00000000000E+00 0. -1.
         22    1    3    3    0    0  0.11568993784E+02 -0.47218838324E+02 -0.94500970965E+01  0.49525393941E+02  0.00000000000E+00 0. -1.
         22    1    3    3    0    0 -0.47291739868E+02  0.13043052317E+02 -0.15664305969E+03  0.16414529546E+03  0.00000000000E+00 0. -1.
</event>
<event>
 7    1  0.6235964E-006  0.1618026E+03  0.7818608E-02  0.1211851E+00
          2   -1    0    0  502    0  0.00000000000E+00  0.00000000000E+00  0.20381818332E+03  0.20381818332E+03  0.00000000000E+00 0. -1.
          1   -1    0    0  501    0 -0.00000000000E+00 -0.00000000000E+00 -0.72701626036E+03  0.72701626036E+03  0.00000000000E+00 0. -1.
         25    2    1    2    0    0  0.24353805559E+02 -0.99973306750E+01 -0.97421160716E+02  0.16065144888E+03  0.12499980402E+03 0.  0.
          2    1    1    2  501    0  0.63927490363E+01  0.16885180194E+03 -0.54409908316E+03  0.56973292915E+03  0.00000000000E+00 0. -1.
          1    1    1    2  502    0 -0.30746554595E+02 -0.15885447126E+03  0.11832216683E+03  0.20045006566E+03  0.00000000000E+00 0. -1.
         22    1    3    3    0    0  0.25997854039E+02 -0.26966066938E+02 -0.12374464826E+03  0.12928957868E+03  0.00000000000E+00 0. -1.
         22    1    3    3    0    0 -0.16440484801E+01  0.16968736263E+02  0.26323487547E+02  0.31361870199E+02  0.00000000000E+00 0. -1.
</event>
<event>
 7    1  0.6235964E-006  0.4702560E+02  0.7818608E-02  0.1501910E+00
          2   -1    0    0  502    0  0.00000000000E+00  0.00000000000E+00  0.53993432274E+02  0.53993432274E+02  0.00000000000E+00 0. -1.
          1   -1    0    0  501    0 -0.00000000000E+00 -0.00000000000E+00 -0.33331298054E+04  0.33331298054E+04  0.00000000000E+00 0. -1.
         25    2    1    2    0    0  0.30952737334E+02 -0.17022134269E+02 -0.12417938563E+04  0.12485693429E+04  0.12500238962E+03 0.  0.
          2    1    1    2  501    0 -0.20462411566E+02 -0.29032371364E+02 -0.20767413650E+04  0.20770450852E+04  0.00000000000E+00 0. -1.
          1    1    1    2  502    0 -0.10490325768E+02  0.46054505633E+02  0.39398848157E+02  0.61508809612E+02  0.00000000000E+00 0. -1.
         22    1    3    3    0    0 -0.86265488397E+01 -0.58664907213E+02 -0.90250472450E+03  0.90445053288E+03  0.00000000000E+00 0. -1.
         22    1    3    3    0    0  0.39579286174E+02  0.41642772944E+02 -0.33928913182E+03  0.34411881002E+03  0.00000000000E+00 0. -1.
</event>
<event>
 7    1  0.6235964E-006  0.6862599E+02  0.7818608E-02  0.1373431E+00
          2   -1    0    0  502    0  0.00000000000E+00  0.00000000000E+00  0.24579859557E+03  0.24579859557E+03  0.00000000000E+00 0. -1.
          1   -1    0    0  501    0 -0.00000000000E+00 -0.00000000000E+00 -0.11720703268E+03  0.11720703268E+03  0.00000000000E+00 0. -1.
         25    2    1    2    0    0  0.63337725132E+02  0.48883501229E+02  0.11350794161E+03  0.18684409257E+03  0.12500159200E+03 0.  0.
          2    1    1    2  501    0  0.73844707774E+01 -0.63474865353E+02 -0.48280360921E+02  0.80091086838E+02  0.00000000000E+00 0. -1.
          1    1    1    2  502    0 -0.70722195909E+02  0.14591364124E+02  0.63363982201E+02  0.96070448847E+02  0.00000000000E+00 0. -1.
         22    1    3    3    0    0  0.85396068119E+02  0.66405737495E+02  0.11593863766E+03  0.15856852817E+03  0.00000000000E+00 0. -1.
         22    1    3    3    0    0 -0.22058342987E+02 -0.17522236267E+02 -0.24306960481E+01  0.28275564405E+02  0.00000000000E+00 0. -1.
</event>
<event>
 7    1  0.6235964E-006  0.9662537E+02  0.7818608E-02  0.1306202E+00
          2   -1    0    0  502    0  0.00000000000E+00  0.00000000000E+00  0.35610741880E+04  0.35610741880E+04  0.00000000000E+00 0. -1.
          1   -1    0    0  501    0 -0.00000000000E+00 -0.00000000000E+00 -0.10799797550E+02  0.10799797550E+02  0.00000000000E+00 0. -1.
         25    2    1    2    0    0 -0.12047907155E+02  0.69636971367E+02  0.90361225051E+03  0.91495030463E+03  0.12499800332E+03 0.  0.
          2    1    1    2  501    0 -0.80065715649E+02 -0.14099783819E+02  0.42781419967E+03  0.43547021961E+03  0.00000000000E+00 0. -1.
          1    1    1    2  502    0  0.92113622805E+02 -0.55537187548E+02  0.22188479402E+04  0.22214534613E+04  0.00000000000E+00 0. -1.
         22    1    3    3    0    0  0.19152371695E+02 -0.12791059576E+02  0.55131365613E+03  0.55179450158E+03  0.00000000000E+00 0.  1.
         22    1    3    3    0    0 -0.31200278851E+02  0.82428030943E+02  0.35229859438E+03  0.36315580305E+03  0.00000000000E+00 0.  1.
</event>
<event>
 7    1  0.6235964E-006  0.1124013E+03  0.7818608E-02  0.1396151E+00
          2   -1    0    0  502    0  0.00000000000E+00  0.00000000000E+00  0.18014400225E+04  0.18014400225E+04  0.00000000000E+00 0. -1.
          1   -1    0    0  501    0 -0.00000000000E+00 -0.00000000000E+00 -0.63470540224E+02  0.63470540224E+02  0.00000000000E+00 0. -1.
         25    2    1    2    0    0 -0.13504340583E+03  0.44260530320E+02  0.17206104696E+03  0.25578508286E+03  0.12500115492E+03 0.  0.
          2    1    1    2  501    0  0.32401957577E+02 -0.19260925072E+01 -0.62466024959E+01  0.33054753514E+02  0.00000000000E+00 0. -1.
          1    1    1    2  502    0  0.10264144825E+03 -0.42334437812E+02  0.15721550378E+04  0.15760707264E+04  0.00000000000E+00 0. -1.
         22    1    3    3    0    0 -0.97878529901E+02 -0.27608004860E+02  0.61728716035E+02  0.11896572166E+03  0.00000000000E+00 0.  1.
         22    1    3    3    0    0 -0.37164875930E+02  0.71868535179E+02  0.11033233092E+03  0.13681936120E+03  0.00000000000E+00 0.  1.
</event>
<event>
 7    1  0.6235964E-006  0.9488901E+02  0.7818608E-02  0.1336999E+00
          2   -1    0    0  502    0  0.00000000000E+00  0.00000000000E+00  0.10390394926E+04  0.10390394926E+04  0.00000000000E+00 0. -1.
          1   -1    0    0  501    0 -0.00000000000E+00 -0.00000000000E+00 -0.10781238117E+04  0.10781238117E+04  0.00000000000E+00 0. -1.
         25    2    1    2    0    0 -0.79527408678E+02 -0.70923386200E+01  0.76362758485E+01  0.14852011738E+03  0.12500001023E+03 0.  0.
          2    1    1    2  501    0  0.12471204608E+02 -0.61664971973E+02 -0.10042953953E+04  0.10062640512E+04  0.00000000000E+00 0. -1.
          1    1    1    2  502    0  0.67056204070E+02  0.68757310593E+02  0.95757480039E+03  0.96237913559E+03  0.00000000000E+00 0. -1.
         22    1    3    3    0    0  0.93972112930E+00 -0.46535474907E+02  0.30983644173E+02  0.55914396240E+02  0.00000000000E+00 0.  1.
         22    1    3    3    0    0 -0.80467129808E+02  0.39443136287E+02 -0.23347368324E+02  0.92605721137E+02  0.00000000000E+00 0.  1.
</event>
<event>
 7    1  0.6235964E-006  0.7796053E+02  0.7818608E-02  0.1351038E+00
          2   -1    0    0  502    0  0.00000000000E+00  0.00000000000E+00  0.15133462814E+04  0.15133462814E+04  0.00000000000E+00 0. -1.
          1   -1    0    0  501    0 -0.00000000000E+00 -0.00000000000E+00 -0.88914137431E+03  0.88914137431E+03  0.00000000000E+00 0. -1.
         25    2    1    2    0    0  0.11061543787E+03  0.87632048328E+02  0.49132430839E+03  0.52625093259E+03  0.12500126821E+03 0.  0.
          2    1    1    2  501    0 -0.48195503531E+02 -0.61020282451E+02 -0.86879381423E+03  0.87226657226E+03  0.00000000000E+00 0. -1.
          1    1    1    2  502    0 -0.62419934340E+02 -0.26611765877E+02  0.10016744129E+04  0.10039701508E+04  0.00000000000E+00 0. -1.
         22    1    3    3    0    0  0.10297250812E+03  0.11581197669E+03  0.44765125075E+03  0.47371657525E+03  0.00000000000E+00 0. -1.
         22    1    3    3    0    0  0.76429297516E+01 -0.28179928361E+02  0.43673057641E+02  0.52534357342E+02  0.00000000000E+00 0. -1.
</event>
<event>
 7    1  0.6235964E-006  0.5504317E+02  0.7818608E-02  0.1477683E+00
          2   -1    0    0  502    0  0.00000000000E+00  0.00000000000E+00  0.13161744145E+04  0.13161744145E+04  0.00000000000E+00 0. -1.
          1   -1    0    0  501    0 -0.00000000000E+00 -0.00000000000E+00 -0.40139565912E+02  0.40139565912E+02  0.00000000000E+00 0. -1.
         25    2    1    2    0    0  0.17806566846E+02  0.78319135857E+02  0.96584842056E+03  0.97720980129E+03  0.12499945348E+03 0.  0.
          2    1    1    2  501    0  0.40875629920E+01 -0.35693287010E+02 -0.22889555076E+02  0.42598716417E+02  0.00000000000E+00 0. -1.
          1    1    1    2  502    0 -0.21894129838E+02 -0.42625848847E+02  0.33307598313E+03  0.33650546273E+03  0.00000000000E+00 0. -1.
         22    1    3    3    0    0  0.82091864376E+01  0.11259428392E+03  0.74875264789E+03  0.75721555137E+03  0.00000000000E+00 0. -1.
         22    1    3    3    0    0  0.95973804083E+01 -0.34275148065E+02  0.21709577267E+03  0.21999424992E+03  0.00000000000E+00 0. -1.
</event>
<event>
 7    1  0.6235964E-006  0.7859379E+02  0.7818608E-02  0.1499760E+00
          2   -1    0    0  502    0  0.00000000000E+00  0.00000000000E+00  0.12131415740E+03  0.12131415740E+03  0.00000000000E+00 0. -1.
          1   -1    0    0  501    0 -0.00000000000E+00 -0.00000000000E+00 -0.20221128057E+04  0.20221128057E+04  0.00000000000E+00 0. -1.
         25    2    1    2    0    0 -0.51144009870E+02 -0.85393617785E+02 -0.39823080387E+02  0.16467961946E+03  0.12500287849E+03 0.  0.
          2    1    1    2  501    0  0.43180014614E+02  0.65349536347E+02 -0.19170595692E+04  0.19186590284E+04  0.00000000000E+00 0. -1.
          1    1    1    2  502    0  0.79639952553E+01  0.20044081438E+02  0.56084001296E+02  0.60088315191E+02  0.00000000000E+00 0. -1.
         22    1    3    3    0    0 -0.40016232815E+02  0.23792138732E+02  0.35015987224E+01  0.46686464289E+02  0.00000000000E+00 0.  1.
         22    1    3    3    0    0 -0.11127777055E+02 -0.10918575652E+03 -0.43324679109E+02  0.11799315518E+03  0.00000000000E+00 0.  1.
</event>
<event>
 7    1  0.1090375E-005  0.4828346E+02  0.7818608E-02  0.1513864E+00
          2   -1    0    0  502    0  0.00000000000E+00  0.00000000000E+00  0.25097519297E+04  0.25097519297E+04  0.00000000000E+00 0. -1.
          1   -1    0    0  501    0 -0.00000000000E+00 -0.00000000000E+00 -0.17180610110E+04  0.17180610110E+04  0.00000000000E+00 0. -1.
         25    2    1    2    0    0  0.61049038785E+02  0.50239658886E+02 -0.24139641005E+03  0.28310449175E+03  0.12499967202E+03 0.  0.
          2    1    1    2  501    0 -0.28209763362E+02 -0.14880300137E+02 -0.14554019249E+04  0.14557513445E+04  0.00000000000E+00 0. -1.
          1    1    1    2  502    0 -0.32839275423E+02 -0.35359358749E+02  0.24884892536E+04  0.24889571044E+04  0.00000000000E+00 0. -1.
         22    1    3    3    0    0  0.53041585111E+02  0.21274510207E+02 -0.24613417605E+03  0.25268171116E+03  0.00000000000E+00 0. -1.
         22    1    3    3    0    0  0.80074536741E+01  0.28965148679E+02  0.47377659982E+01  0.30422780593E+02  0.00000000000E+00 0. -1.
</event>
<event>
 7    1  0.6235964E-006  0.9475062E+02  0.7818608E-02  0.1324195E+00
          2   -1    0    0  502    0  0.00000000000E+00  0.00000000000E+00  0.20577509320E+04  0.20577509320E+04  0.00000000000E+00 0. -1.
          1   -1    0    0  501    0 -0.00000000000E+00 -0.00000000000E+00 -0.27126351930E+04  0.27126351930E+04  0.00000000000E+00 0. -1.
         25    2    1    2    0    0 -0.15184554504E+03  0.64609296418E+02  0.11394136935E+04  0.11580668161E+04  0.12499501917E+03 0.  0.
          2    1    1    2  501    0  0.88599292883E+02 -0.33440234162E+02 -0.27011102902E+04  0.27027698540E+04  0.00000000000E+00 0. -1.
          1    1    1    2  502    0  0.63246252155E+02 -0.31169062256E+02  0.90681233566E+03  0.90954945493E+03  0.00000000000E+00 0. -1.
         22    1    3    3    0    0 -0.94751715399E+02  0.91371852515E+02  0.93291637511E+03  0.94215692215E+03  0.00000000000E+00 0.  1.
         22    1    3    3    0    0 -0.57093829640E+02 -0.26762556097E+02  0.20649731840E+03  0.21590989394E+03  0.00000000000E+00 0.  1.
</event>
<event>
 7    1  0.6235964E-006  0.6933732E+02  0.7818608E-02  0.1444575E+00
          2   -1    0    0  502    0  0.00000000000E+00  0.00000000000E+00  0.20538281532E+04  0.20538281532E+04  0.00000000000E+00 0. -1.
          1   -1    0    0  501    0 -0.00000000000E+00 -0.00000000000E+00 -0.28559117305E+03  0.28559117305E+03  0.00000000000E+00 0. -1.
         25    2    1    2    0    0  0.83612551771E+02  0.43623840733E+02  0.32349799769E+02  0.15989127534E+03  0.12499844836E+03 0.  0.
          2    1    1    2  501    0 -0.15309032921E+02 -0.32871235729E+02 -0.21972341958E+03  0.22269545514E+03  0.00000000000E+00 0. -1.
          1    1    1    2  502    0 -0.68303518850E+02 -0.10752605005E+02  0.19556105999E+04  0.19568325958E+04  0.00000000000E+00 0. -1.
         22    1    3    3    0    0  0.24457893156E+02  0.57119128662E+02 -0.33301105941E+02  0.70496432914E+02  0.00000000000E+00 0. -1.
         22    1    3    3    0    0  0.59154658615E+02 -0.13495287928E+02  0.65650905710E+02  0.89394842428E+02  0.00000000000E+00 0. -1.
</event>
<event>
 7    1  0.6235964E-006  0.4399875E+02  0.7818608E-02  0.1540149E+00
          2   -1    0    0  502    0  0.00000000000E+00  0.00000000000E+00  0.16411032859E+03  0.16411032859E+03  0.00000000000E+00 0. -1.
          1   -1    0    0  501    0 -0.00000000000E+00 -0.00000000000E+00 -0.15282982641E+04  0.15282982641E+04  0.00000000000E+00 0. -1.
         25    2    1    2    0    0  0.25524146900E+02  0.15683661794E+02 -0.88434480928E+03  0.89363694982E+03  0.12499518814E+03 0.  0.
          2    1    1    2  501    0  0.17876950457E+02 -0.23349016047E+02 -0.63591587968E+03  0.63659545077E+03  0.00000000000E+00 0. -1.
          1    1    1    2  502    0 -0.43401097357E+02  0.76653542527E+01  0.15607275346E+03  0.16217619209E+03  0.00000000000E+00 0. -1.
         22    1    3    3    0    0 -0.43620372473E+01  0.56219824868E+02 -0.21079230286E+03  0.21820424153E+03  0.00000000000E+00 0. -1.
         22    1    3    3    0    0  0.29886184147E+02 -0.40536163073E+02 -0.67355250643E+03  0.67543270829E+03  0.00000000000E+00 0. -1.
</event>
<event>
 7    1  0.6235964E-006  0.1121503E+03  0.7818608E-02  0.1256736E+00
          2   -1    0    0  502    0  0.00000000000E+00  0.00000000000E+00  0.41855529259E+03  0.41855529259E+03  0.00000000000E+00 0. -1.
          1   -1    0    0  501    0 -0.00000000000E+00 -0.00000000000E+00 -0.50005960175E+03  0.50005960175E+03  0.00000000000E+00 0. -1.
         25    2    1    2    0    0  0.27222762188E+02 -0.10035848420E+03 -0.92963791861E+02  0.18729416329E+03  0.12499573142E+03 0.  0.
          2    1    1    2  501    0  0.84402035515E+02  0.90683858190E+02 -0.34029992305E+03  0.36214817874E+03  0.00000000000E+00 0. -1.
          1    1    1    2  502    0 -0.11162479770E+03  0.96746260107E+01  0.35175940575E+03  0.36917255232E+03  0.00000000000E+00 0. -1.
         22    1    3    3    0    0  0.11016408791E+02 -0.12004867869E+03 -0.37504087070E+02  0.12625214084E+03  0.00000000000E+00 0.  1.
         22    1    3    3    0    0  0.16206353397E+02  0.19690194492E+02 -0.55459704791E+02  0.61042022453E+02  0.00000000000E+00 0.  1.
</event>
<event>
 7    1  0.6235964E-006  0.7144035E+02  0.7818608E-02  0.1404998E+00
          2   -1    0    0  502    0  0.00000000000E+00  0.00000000000E+00  0.45698346410E+03  0.45698346410E+03  0.00000000000E+00 0. -1.
          1   -1    0    0  501    0 -0.00000000000E+00 -0.00000000000E+00 -0.52976542366E+02  0.52976542366E+02  0.00000000000E+00 0. -1.
         25    2    1    2    0    0  0.32900795057E+02 -0.92481242524E+01  0.31310964632E+03  0.33886550247E+03  0.12499675206E+03 0.  0.
          2    1    1    2  501    0 -0.76063103369E+02 -0.10862556761E+02  0.10355475027E+02  0.77529521452E+02  0.00000000000E+00 0. -1.
          1    1    1    2  502    0  0.43162308312E+02  0.20110681013E+02  0.80541800385E+02  0.93564982546E+02  0.00000000000E+00 0. -1.
         22    1    3    3    0    0 -0.12035264959E+02 -0.60110753453E+02  0.13517362871E+03  0.14842526800E+03  0.00000000000E+00 0. -1.
         22    1    3    3    0    0  0.44936060016E+02  0.50862629201E+02  0.17793601761E+03  0.19044023446E+03  0.00000000000E+00 0. -1.
</event>
<event>
 7    1  0.6235964E-006  0.1245751E+03  0.7818608E-02  0.1348761E+00
          2   -1    0    0  502    0  0.00000000000E+00  0.00000000000E+00  0.36714220894E+03  0.36714220894E+03  0.00000000000E+00 0. -1.
          1   -1    0    0  501    0 -0.00000000000E+00 -0.00000000000E+00 -0.32358410499E+04  0.32358410499E+04  0.00000000000E+00 0. -1.
         25    2    1    2    0    0 -0.91773987107E+02 -0.13631350672E+03 -0.63338125989E+03  0.66618279655E+03  0.12499544472E+03 0.  0.
          2    1    1    2  501    0  0.34167377205E+02  0.26595912508E+02 -0.25749256105E+04  0.25752896249E+04  0.00000000000E+00 0. -1.
          1    1    1    2  502    0  0.57606609902E+02  0.10971759422E+03  0.33960802940E+03  0.36151083748E+03  0.00000000000E+00 0. -1.
         22    1    3    3    0    0 -0.24966172396E+02 -0.11847556162E+03 -0.26475513897E+03  0.29112720944E+03  0.00000000000E+00 0. -1.
         22    1    3    3    0    0 -0.66807814711E+02 -0.17837945109E+02 -0.36862612093E+03  0.37505558711E+03  0.00000000000E+00 0. -1.
</event>
<event>
 7    1  0.6235964E-006  0.1024911E+03  0.7818608E-02  0.1315536E+00
          2   -1    0    0  502    0  0.00000000000E+00  0.00000000000E+00  0.12286644271E+04  0.12286644271E+04  0.00000000000E+00 0. -1.
          1   -1    0    0  501    0 -0.00000000000E+00 -0.00000000000E+00 -0.48428656410E+03  0.48428656410E+03  0.00000000000E+00 0. -1.
         25    2    1    2    0    0  0.55787942566E+02 -0.57440277545E+02 -0.15017991488E+03  0.21116326094E+03  0.12499694364E+03 0.  0.
          2    1    1    2  501    0 -0.14357919009E+02  0.11439359517E+03 -0.29158786399E+03  0.31355306868E+03  0.00000000000E+00 0. -1.
          1    1    1    2  502    0 -0.41430023556E+02 -0.56953317624E+02  0.11861456419E+04  0.11882346616E+04  0.00000000000E+00 0. -1.
         22    1    3    3    0    0 -0.36730361223E+02  0.33122039602E+01 -0.47960068125E+02  0.60500068307E+02  0.00000000000E+00 0.  1.
         22    1    3    3    0    0  0.92518303788E+02 -0.60752481505E+02 -0.10221984675E+03  0.15066319263E+03  0.00000000000E+00 0.  1.
</event>
<event>
 7    1  0.6235964E-006  0.1448766E+03  0.7818608E-02  0.1324320E+00
          2   -1    0    0  502    0  0.00000000000E+00  0.00000000000E+00  0.18529288102E+04  0.18529288102E+04  0.00000000000E+00 0. -1.
          1   -1    0    0  501    0 -0.00000000000E+00 -0.00000000000E+00 -0.66488549254E+02  0.66488549254E+02  0.00000000000E+00 0. -1.
         25    2    1    2    0    0  0.10419979363E+03 -0.97603272198E+02  0.13019412831E+04  0.13156992497E+04  0.12501766009E+03 0.  0.
          2    1    1    2  501    0  0.33339458674E+02  0.31784576645E+02 -0.37819146426E+02  0.59599216888E+02  0.00000000000E+00 0. -1.
          1    1    1    2  502    0 -0.13753925230E+03  0.65818695553E+02  0.52231812424E+03  0.54411889282E+03  0.00000000000E+00 0. -1.
         22    1    3    3    0    0  0.21417658322E+02 -0.10138533777E+03  0.84199470812E+03  0.84834709365E+03  0.00000000000E+00 0. -1.
         22    1    3    3    0    0  0.82782135308E+02  0.37820655722E+01  0.45994657498E+03  0.46735215607E+03  0.00000000000E+00 0. -1.
</event>
<event>
 7    1  0.6235964E-006  0.9760891E+02  0.7818608E-02  0.1307327E+00
          2   -1    0    0  502    0  0.00000000000E+00  0.00000000000E+00  0.77566171269E+02  0.77566171269E+02  0.00000000000E+00 0. -1.
          1   -1    0    0  501    0 -0.00000000000E+00 -0.00000000000E+00 -0.20118513664E+04  0.20118513664E+04  0.00000000000E+00 0. -1.
         25    2    1    2    0    0  0.28092129784E+02  0.78788477482E+02 -0.70852910217E+03  0.72431755719E+03  0.12500257233E+03 0.  0.
          2    1    1    2  501    0  0.49668756270E+02 -0.96065203526E+02 -0.12695840185E+04  0.12741817330E+04  0.00000000000E+00 0. -1.
          1    1    1    2  502    0 -0.77760886054E+02  0.17276726044E+02  0.43827925560E+02  0.90918247462E+02  0.00000000000E+00 0. -1.
         22    1    3    3    0    0 -0.35889961520E+02  0.36088422596E+02 -0.49017887585E+03  0.49281415758E+03  0.00000000000E+00 0.  1.
         22    1    3    3    0    0  0.63982091304E+02  0.42700054887E+02 -0.21835022632E+03  0.23150339960E+03  0.00000000000E+00 0.  1.
</event>
<event>
 7    1  0.6235964E-006  0.4171816E+02  0.7818608E-02  0.1508730E+00
          2   -1    0    0  502    0  0.00000000000E+00  0.00000000000E+00  0.24974566926E+03  0.24974566926E+03  0.00000000000E+00 0. -1.
          1   -1    0    0  501    0 -0.00000000000E+00 -0.00000000000E+00 -0.16876608230E+04  0.16876608230E+04  0.00000000000E+00 0. -1.
         25    2    1    2    0    0 -0.82444652788E+01 -0.91952770868E+01 -0.96044398865E+03  0.96862282932E+03  0.12500002326E+03 0.  0.
          2    1    1    2  501    0  0.46392547989E+02  0.11501745779E+02 -0.72084473602E+03  0.72242763798E+03  0.00000000000E+00 0. -1.
          1    1    1    2  502    0 -0.38148082711E+02 -0.23064686925E+01  0.24337357092E+03  0.24635602496E+03  0.00000000000E+00 0. -1.
         22    1    3    3    0    0 -0.34579275900E+02  0.14208673578E+01 -0.91060942306E+03  0.91126684706E+03  0.00000000000E+00 0. -1.
         22    1    3    3    0    0  0.26334810621E+02 -0.10616144445E+02 -0.49834565593E+02  0.57355982261E+02  0.00000000000E+00 0. -1.
</event>
<event>
 7    1  0.6235964E-006  0.1904432E+03  0.7818608E-02  0.1221221E+00
          2   -1    0    0  502    0  0.00000000000E+00  0.00000000000E+00  0.28159293259E+04  0.28159293259E+04  0.00000000000E+00 0. -1.
          1   -1    0    0  501    0 -0.00000000000E+00 -0.00000000000E+00 -0.40898128296E+03  0.40898128296E+03  0.00000000000E+00 0. -1.
         25    2    1    2    0    0 -0.12466982600E+03  0.33753816229E+02  0.71913151490E+03  0.74125359980E+03  0.12499951152E+03 0.  0.
          2    1    1    2  501    0 -0.92364795801E+02  0.20891624872E+02 -0.38617916817E+03  0.39762050428E+03  0.00000000000E+00 0. -1.
          1    1    1    2  502    0  0.21703462180E+03 -0.54645441101E+02  0.20739956963E+04  0.20860365048E+04  0.00000000000E+00 0. -1.
         22    1    3    3    0    0 -0.62647357711E+02  0.17983520160E+01  0.59946888326E+03  0.60273615081E+03  0.00000000000E+00 0. -1.
         22    1    3    3    0    0 -0.62022468285E+02  0.31955464213E+02  0.11966263164E+03  0.13851744900E+03  0.00000000000E+00 0. -1.
</event>
<event>
 7    1  0.6235964E-006  0.2920660E+03  0.7818608E-02  0.1282261E+00
          2   -1    0    0  502    0  0.00000000000E+00  0.00000000000E+00  0.73034418188E+03  0.73034418188E+03  0.00000000000E+00 0. -1.
          1   -1    0    0  501    0 -0.00000000000E+00 -0.00000000000E+00 -0.65911864039E+03  0.65911864039E+03  0.00000000000E+00 0. -1.
         25    2    1    2    0    0  0.12684010091E+02  0.26419486772E+03 -0.98610663253E+02  0.30871904054E+03  0.12499428325E+03 0.  0.
          2    1    1    2  501    0 -0.80401154101E+01  0.32629807733E+02 -0.41950971145E+03  0.42085359189E+03  0.00000000000E+00 0. -1.
          1    1    1    2  502    0 -0.46438946812E+01 -0.29682467545E+03  0.58934591620E+03  0.65989018984E+03  0.00000000000E+00 0. -1.
         22    1    3    3    0    0 -0.50265135914E+02  0.58498312410E+02 -0.19851734745E+02  0.79641244438E+02  0.00000000000E+00 0. -1.
         22    1    3    3    0    0  0.62949146006E+02  0.20569655531E+03 -0.78758928508E+02  0.22907779610E+03  0.00000000000E+00 0. -1.
</event>
<event>
 7    1  0.6235964E-006  0.1133427E+03  0.7818608E-02  0.1283213E+00
          2   -1    0    0  502    0  0.00000000000E+00  0.00000000000E+00  0.44170322965E+03  0.44170322965E+03  0.00000000000E+00 0. -1.
          1   -1    0    0  501    0 -0.00000000000E+00 -0.00000000000E+00 -0.69800479483E+03  0.69800479483E+03  0.00000000000E+00 0. -1.
         25    2    1    2    0    0  0.17393218981E+03 -0.13573957516E+02 -0.13771404581E+02  0.21506227417E+03  0.12500188483E+03 0.  0.
          2    1    1    2  501    0 -0.77083683808E+02 -0.37723446963E+02 -0.57149637400E+03  0.57790402167E+03  0.00000000000E+00 0. -1.
          1    1    1    2  502    0 -0.96848506000E+02  0.51297404479E+02  0.32896621340E+03  0.34674172864E+03  0.00000000000E+00 0. -1.
         22    1    3    3    0    0  0.16478285639E+03 -0.30635424733E+02 -0.49209232876E+02  0.17468104536E+03  0.00000000000E+00 0. -1.
         22    1    3    3    0    0  0.91493334210E+01  0.17061467217E+02  0.35437828296E+02  0.40381228807E+02  0.00000000000E+00 0. -1.
</event>
<event>
 7    1  0.6235964E-006  0.4462944E+02  0.7818608E-02  0.1529932E+00
          2   -1    0    0  502    0  0.00000000000E+00  0.00000000000E+00  0.24104560227E+03  0.24104560227E+03  0.00000000000E+00 0. -1.
          1   -1    0    0  501    0 -0.00000000000E+00 -0.00000000000E+00 -0.54016085528E+03  0.54016085528E+03  0.00000000000E+00 0. -1.
         25    2    1    2    0    0  0.43136497427E+02 -0.16574168820E+02 -0.29459539677E+03  0.32333712424E+03  0.12499995050E+03 0.  0.
          2    1    1    2  501    0 -0.22654803364E+02  0.39842339962E+02 -0.22784194295E+03  0.23240611682E+03  0.00000000000E+00 0. -1.
          1    1    1    2  502    0 -0.20481694063E+02 -0.23268171142E+02  0.22332208671E+03  0.22546321650E+03  0.00000000000E+00 0. -1.
         22    1    3    3    0    0 -0.26043449876E+02  0.53715660740E+01 -0.21084270500E+03  0.21251296726E+03  0.00000000000E+00 0. -1.
         22    1    3    3    0    0  0.69179947303E+02 -0.21945734894E+02 -0.83752691773E+02  0.11082415697E+03  0.00000000000E+00 0. -1.
</event>
<event>
 7    1  0.6235964E-006  0.7049691E+02  0.7818608E-02  0.1492525E+00
          2   -1    0    0  502    0  0.00000000000E+00  0.00000000000E+00  0.37284328620E+03  0.37284328620E+03  0.00000000000E+00 0. -1.
          1   -1    0    0  501    0 -0.00000000000E+00 -0.00000000000E+00 -0.46186165405E+02  0.46186165405E+02  0.00000000000E+00 0. -1.
         25    2    1    2    0    0  0.28400156915E+01 -0.75622834563E+02  0.13848733803E+03  0.20131930639E+03  0.12499536605E+03 0.  0.
          2    1    1    2  501    0  0.23029635793E+02  0.10421241065E+02  0.11787049672E+02  0.27890875391E+02  0.00000000000E+00 0. -1.
          1    1    1    2  502    0 -0.25869651485E+02  0.65201593498E+02  0.17638273309E+03  0.18981926982E+03  0.00000000000E+00 0. -1.
         22    1    3    3    0    0  0.20563943283E+02 -0.31085437054E+02  0.14785293285E+03  0.15247842441E+03  0.00000000000E+00 0. -1.
         22    1    3    3    0    0 -0.17723927592E+02 -0.44537397510E+02 -0.93655948152E+01  0.48840881979E+02  0.00000000000E+00 0. -1.
</event>
<event>
 7    1  0.6235964E-006  0.6026148E+02  0.7818608E-02  0.1450985E+00
          2   -1    0    0  502    0  0.00000000000E+00  0.00000000000E+00  0.12694797606E+03  0.12694797606E+03  0.00000000000E+00 0. -1.
          1   -1    0    0  501    0 -0.00000000000E+00 -0.00000000000E+00 -0.14134751894E+04  0.14134751894E+04  0.00000000000E+00 0. -1.
         25    2    1    2    0    0 -0.17527721504E+02 -0.11175657823E+02  0.46845007265E+02  0.13509768180E+03  0.12499925029E+03 0.  0.
          2    1    1    2  501    0  0.52314095846E+02  0.30497232845E+02 -0.13574604115E+04  0.13588103674E+04  0.00000000000E+00 0. -1.
          1    1    1    2  502    0 -0.34786374342E+02 -0.19321575022E+02  0.24088190874E+02  0.46515116261E+02  0.00000000000E+00 0. -1.
         22    1    3    3    0    0 -0.31644593397E+02 -0.43555801864E+02  0.73313264321E+02  0.90957808310E+02  0.00000000000E+00 0. -1.
         22    1    3    3    0    0  0.14116871893E+02  0.32380144041E+02 -0.26468257056E+02  0.44139873490E+02  0.00000000000E+00 0. -1.
</event>
<event>
 7    1  0.6235964E-006  0.1767284E+03  0.7818608E-02  0.1333658E+00
          2   -1    0    0  502    0  0.00000000000E+00  0.00000000000E+00  0.84182289698E+03  0.84182289698E+03  0.00000000000E+00 0. -1.
          1   -1    0    0  501    0 -0.00000000000E+00 -0.00000000000E+00 -0.24115583492E+03  0.24115583492E+03  0.00000000000E+00 0. -1.
         25    2    1    2    0    0 -0.18492295202E+03 -0.71886242053E+01  0.12808362205E+03  0.25744624805E+03  0.12499992758E+03 0.  0.
          2    1    1    2  501    0  0.17353280080E+03 -0.25672035020E+02 -0.13225756993E+03  0.21969240119E+03  0.00000000000E+00 0. -1.
          1    1    1    2  502    0  0.11390151219E+02  0.32860659225E+02  0.60484100993E+03  0.60584008266E+03  0.00000000000E+00 0. -1.
         22    1    3    3    0    0 -0.19147420406E+03  0.31354977348E+01  0.79497638286E+02  0.20734530778E+03  0.00000000000E+00 0.  1.
         22    1    3    3    0    0  0.65512520409E+01 -0.10324121940E+02  0.48585983768E+02  0.50100940270E+02  0.00000000000E+00 0.  1.
</event>
<event>
 7    1  0.6235964E-006  0.4778632E+02  0.7818608E-02  0.1557653E+00
          2   -1    0    0  502    0  0.00000000000E+00  0.00000000000E+00  0.19564777412E+04  0.19564777412E+04  0.00000000000E+00 0. -1.
          1   -1    0    0  501    0 -0.00000000000E+00 -0.00000000000E+00 -0.77783852376E+02  0.77783852376E+02  0.00000000000E+00 0. -1.
         25    2    1    2    0    0  0.13577969203E+02  0.54923752778E+02  0.76410402260E+03  0.77632626778E+03  0.12500614714E+03 0.  0.
          2    1    1    2  501    0 -0.22713170001E+02 -0.83306350944E+01 -0.69141630909E+02  0.73251980843E+02  0.00000000000E+00 0. -1.
          1    1    1    2  502    0  0.91352007976E+01 -0.46593117684E+02  0.11837314972E+04  0.11846833450E+04  0.00000000000E+00 0. -1.
         22    1    3    3    0    0 -0.34933777737E+02 -0.23155848029E+02  0.32595598695E+03  0.32863941874E+03  0.00000000000E+00 0.  1.
         22    1    3    3    0    0  0.48511746940E+02  0.78079600807E+02  0.43814803566E+03  0.44768684904E+03  0.00000000000E+00 0.  1.
</event>
<event>
 7    1  0.6235964E-006  0.5346678E+02  0.7818608E-02  0.1430807E+00
          2   -1    0    0  502    0  0.00000000000E+00  0.00000000000E+00  0.97415971214E+03  0.97415971214E+03  0.00000000000E+00 0. -1.
          1   -1    0    0  501    0 -0.00000000000E+00 -0.00000000000E+00 -0.10702238866E+04  0.10702238866E+04  0.00000000000E+00 0. -1.
         25    2    1    2    0    0 -0.45881071667E+02 -0.62862050743E+02 -0.29286853731E+02  0.15013380624E+03  0.12500291922E+03 0.  0.
          2    1    1    2  501    0 -0.53429469220E+01  0.53141157967E+02 -0.97904134777E+03  0.98049706292E+03  0.00000000000E+00 0. -1.
          1    1    1    2  502    0  0.51224018589E+02  0.97208927750E+01  0.91226402703E+03  0.91375272960E+03  0.00000000000E+00 0. -1.
         22    1    3    3    0    0 -0.67582872349E+02  0.10779711826E+02 -0.13953010985E+01  0.68451396532E+02  0.00000000000E+00 0.  1.
         22    1    3    3    0    0  0.21701800682E+02 -0.73641762569E+02 -0.27891552632E+02  0.81682409706E+02  0.00000000000E+00 0.  1.
</event>
<event>
 7    1  0.6235964E-006  0.1472248E+03  0.7818608E-02  0.1290979E+00
          2   -1    0    0  502    0  0.00000000000E+00  0.00000000000E+00  0.56777007272E+03  0.56777007272E+03  0.00000000000E+00 0. -1.
          1   -1    0    0  501    0 -0.00000000000E+00 -0.00000000000E+00 -0.32138841814E+03  0.32138841814E+03  0.00000000000E+00 0. -1.
         25    2    1    2    0    0  0.24025036006E+02  0.14422169699E+03  0.33336288867E+03  0.38488071239E+03  0.12500098797E+03 0.  0.
          2    1    1    2  501    0 -0.81753493210E+02 -0.12326761226E+03 -0.27184455091E+03  0.30948020574E+03  0.00000000000E+00 0. -1.
          1    1    1    2  502    0  0.57728457204E+02 -0.20954084732E+02  0.18486331682E+03  0.19479757273E+03  0.00000000000E+00 0. -1.
         22    1    3    3    0    0 -0.21951352998E+02  0.13987495869E+03  0.28367025174E+03  0.31704207558E+03  0.00000000000E+00 0. -1.
         22    1    3    3    0    0  0.45976389004E+02  0.43467383027E+01  0.49692636935E+02  0.67838636817E+02  0.00000000000E+00 0. -1.
</event>
<event>
 7    1  0.6235964E-006  0.3452367E+02  0.7818608E-02  0.1625810E+00
          2   -1    0    0  502    0  0.00000000000E+00  0.00000000000E+00  0.99563024971E+02  0.99563024971E+02  0.00000000000E+00 0. -1.
          1   -1    0    0  501    0 -0.00000000000E+00 -0.00000000000E+00 -0.54802386447E+03  0.54802386447E+03  0.00000000000E+00 0. -1.
         25    2    1    2    0    0  0.26030550585E+02  0.13026705667E+02 -0.13725264390E+03  0.18791210739E+03  0.12500154888E+03 0.  0.
          2    1    1    2  501    0 -0.34058676824E+02  0.75852648715E+01 -0.38298270754E+03  0.38456895868E+03  0.00000000000E+00 0. -1.
          1    1    1    2  502    0  0.80281262386E+01 -0.20611970539E+02  0.71774511937E+02  0.75105823371E+02  0.00000000000E+00 0. -1.
         22    1    3    3    0    0  0.21798748816E+02  0.17347651316E+02  0.17592570723E+02  0.32948823966E+02  0.00000000000E+00 0.  1.
         22    1    3    3    0    0  0.42318017696E+01 -0.43209456482E+01 -0.15484521462E+03  0.15496328342E+03  0.00000000000E+00 0.  1.
</event>
<event>
 7    1  0.6235964E-006  0.9924174E+02  0.7818608E-02  0.1346480E+00
          2   -1    0    0  502    0  0.00000000000E+00  0.00000000000E+00  0.95029603668E+03  0.95029603668E+03  0.00000000000E+00 0. -1.
          1   -1    0    0  501    0 -0.00000000000E+00 -0.00000000000E+00 -0.29435418548E+03  0.29435418548E+03  0.00000000000E+00 0. -1.
         25    2    1    2    0    0  0.13499226763E+03  0.30870471419E+02 -0.15400566807E+03  0.24190744752E+03  0.12500227615E+03 0.  0.
          2    1    1    2  501    0 -0.80553720277E+02 -0.20469466047E+02 -0.77455852800E+02  0.11361034294E+03  0.00000000000E+00 0. -1.
          1    1    1    2  502    0 -0.54438547352E+02 -0.10401005372E+02  0.88740337206E+03  0.88913243170E+03  0.00000000000E+00 0. -1.
         22    1    3    3    0    0  0.55472374910E+02  0.57916122598E+02 -0.13303206020E+03  0.15533509158E+03  0.00000000000E+00 0. -1.
         22    1    3    3    0    0  0.79519892719E+02 -0.27045651179E+02 -0.20973607864E+02  0.86572355938E+02  0.00000000000E+00 0. -1.
</event>
<event>
 7    1  0.6235964E-006  0.8593130E+02  0.7818608E-02  0.1354575E+00
          2   -1    0    0  502    0  0.00000000000E+00  0.00000000000E+00  0.58189740300E+03  0.58189740300E+03  0.00000000000E+00 0. -1.
          1   -1    0    0  501    0 -0.00000000000E+00 -0.00000000000E+00 -0.19205331750E+03  0.19205331750E+03  0.00000000000E+00 0. -1.
         25    2    1    2    0    0  0.27093364378E+02 -0.12540828118E+03 -0.59947797136E+02  0.18888998367E+03  0.12499760065E+03 0.  0.
          2    1    1    2  501    0  0.20434319996E+01  0.73255911916E+02 -0.45446534592E+02  0.86232196722E+02  0.00000000000E+00 0. -1.
          1    1    1    2  502    0 -0.29136796378E+02  0.52152369266E+02  0.49523841722E+03  0.49882854010E+03  0.00000000000E+00 0. -1.
         22    1    3    3    0    0 -0.94998082994E+01 -0.88158236553E+02  0.22333749089E+02  0.91438052135E+02  0.00000000000E+00 0. -1.
         22    1    3    3    0    0  0.36593172678E+02 -0.37250044629E+02 -0.82281546225E+02  0.97451931539E+02  0.00000000000E+00 0. -1.
</event>
<event>
 7    1  0.6235964E-006  0.4555898E+02  0.7818608E-02  0.1547679E+00
          2   -1    0    0  502    0  0.00000000000E+00  0.00000000000E+00  0.34296348701E+03  0.34296348701E+03  0.00000000000E+00 0. -1.
          1   -1    0    0  501    0 -0.00000000000E+00 -0.00000000000E+00 -0.53930881787E+03  0.53930881787E+03  0.00000000000E+00 0. -1.
         25    2    1    2    0    0 -0.43873794757E+02 -0.57478992172E+02  0.43820502533E+02  0.15091221384E+03  0.12500206173E+03 0.  0.
          2    1    1    2  501    0  0.27079339553E+02  0.36276371399E+02 -0.48395873509E+03  0.48607131475E+03  0.00000000000E+00 0. -1.
          1    1    1    2  502    0  0.16794455205E+02  0.21202620773E+02  0.24379290169E+03  0.24528877628E+03  0.00000000000E+00 0. -1.
         22    1    3    3    0    0  0.16097970474E+02  0.86581435547E-01  0.63480741946E+02  0.65490127101E+02  0.00000000000E+00 0.  1.
         22    1    3    3    0    0 -0.59971765231E+02 -0.57565573608E+02 -0.19660239412E+02  0.85422086743E+02  0.00000000000E+00 0.  1.
</event>
<event>
 7    1  0.6235964E-006  0.4771380E+02  0.7818608E-02  0.1475514E+00
          2   -1    0    0  502    0  0.00000000000E+00  0.00000000000E+00  0.31536171656E+03  0.31536171656E+03  0.00000000000E+00 0. -1.
          1   -1    0    0  501    0 -0.00000000000E+00 -0.00000000000E+00 -0.15739730819E+04  0.15739730819E+04  0.00000000000E+00 0. -1.
         25    2    1    2    0    0 -0.73598393587E+02  0.14073128150E+02 -0.49638411158E+03  0.51733775979E+03  0.12500557987E+03 0.  0.
          2    1    1    2  501    0  0.28901455651E+02 -0.30595917529E+02 -0.10648318481E+04  0.10656633001E+04  0.00000000000E+00 0. -1.
          1    1    1    2  502    0  0.44696937936E+02  0.16522789378E+02  0.30260459441E+03  0.30633373857E+03  0.00000000000E+00 0. -1.
         22    1    3    3    0    0  0.33286700469E+02 -0.69804824191E+01 -0.16627419317E+03  0.16971693751E+03  0.00000000000E+00 0.  1.
         22    1    3    3    0    0 -0.10688509406E+03  0.21053610570E+02 -0.33010991841E+03  0.34762082228E+03  0.00000000000E+00 0.  1.
</event>
<event>
 7    1  0.6235964E-006  0.1468502E+03  0.7818608E-02  0.1329739E+00
          2   -1    0    0  502    0  0.00000000000E+00  0.00000000000E+00  0.13905164360E+04  0.13905164360E+04  0.00000000000E+00 0. -1.
          1   -1    0    0  501    0 -0.00000000000E+00 -0.00000000000E+00 -0.34383206214E+03  0.34383206214E+03  0.00000000000E+00 0. -1.
         25    2    1    2    0    0  0.15265939344E+03 -0.10465245782E+03  0.28173977677E+03  0.35952687254E+03  0.12500097173E+03 0.  0.
          2    1    1    2  501    0 -0.32384022604E+02  0.28771143070E+02 -0.29864313842E+03  0.30176850021E+03  0.00000000000E+00 0. -1.
          1    1    1    2  502    0 -0.12027537084E+03  0.75881314751E+02  0.10635877356E+04  0.10730531254E+04  0.00000000000E+00 0. -1.
         22    1    3    3    0    0  0.98525371835E+02 -0.10097427115E+01  0.82494657114E+02  0.12850539649E+03  0.00000000000E+00 0.  1.
         22    1    3    3    0    0  0.54134021609E+02 -0.10364271511E+03  0.19924511965E+03  0.23102147605E+03  0.00000000000E+00 0.  1.
</event>
<event>
 7    1  0.6235964E-006  0.5858151E+02  0.7818608E-02  0.1419901E+00
          2   -1    0    0  502    0  0.00000000000E+00  0.00000000000E+00  0.80065568567E+03  0.80065568567E+03  0.00000000000E+00 0. -1.
          1   -1    0    0  501    0 -0.00000000000E+00 -0.00000000000E+00 -0.64796216961E+03  0.64796216961E+03  0.00000000000E+00 0. -1.
         25    2    1    2    0    0  0.61553209302E+02  0.40485418700E+02  0.21077034892E+02  0.14661812033E+03  0.12499906043E+03 0.  0.
          2    1    1    2  501    0 -0.48904656819E+02  0.16819445884E+02 -0.58284365162E+03  0.58513355865E+03  0.00000000000E+00 0. -1.
          1    1    1    2  502    0 -0.12648552483E+02 -0.57304864584E+02  0.71446013279E+03  0.71686617631E+03  0.00000000000E+00 0. -1.
         22    1    3    3    0    0  0.11960486500E+02  0.19762352760E+01 -0.50192248411E+02  0.51635458202E+02  0.00000000000E+00 0.  1.
         22    1    3    3    0    0  0.49592722802E+02  0.38509183424E+02  0.71269283303E+02  0.94982662131E+02  0.00000000000E+00 0.  1.
</event>
<event>
 7    1  0.6235964E-006  0.2355834E+03  0.7818608E-02  0.1242941E+00
          2   -1    0    0  502    0  0.00000000000E+00  0.00000000000E+00  0.25824326541E+04  0.25824326541E+04  0.00000000000E+00 0. -1.
          1   -1    0    0  501    0 -0.00000000000E+00 -0.00000000000E+00 -0.32125463671E+04  0.32125463671E+04  0.00000000000E+00 0. -1.
         25    2    1    2    0    0  0.17818132153E+03 -0.47608662243E+02 -0.11520540854E+03  0.25082795341E+03  0.12500883166E+03 0.  0.
          2    1    1    2  501    0 -0.22119727669E+03  0.91170962493E+02 -0.30244322405E+04  0.30338804784E+04  0.00000000000E+00 0. -1.
          1    1    1    2  502    0  0.43015955161E+02 -0.43562300250E+02  0.25095239361E+04  0.25102705894E+04  0.00000000000E+00 0. -1.
         22    1    3    3    0    0  0.19513164071E+03 -0.49721631990E+02 -0.11818688597E+03  0.23348819651E+03  0.00000000000E+00 0.  1.
         22    1    3    3    0    0 -0.16950319182E+02  0.21129697471E+01  0.29814774365E+01  0.17339756896E+02  0.00000000000E+00 0.  1.
</event>
<event>
 7    1  0.6235964E-006  0.6771335E+02  0.7818608E-02  0.1473675E+00
          2   -1    0    0  502    0  0.00000000000E+00  0.00000000000E+00  0.20561271938E+04  0.20561271938E+04  0.00000000000E+00 0. -1.
          1   -1    0    0  501    0 -0.00000000000E+00 -0.00000000000E+00 -0.60351276701E+02  0.60351276701E+02  0.00000000000E+00 0. -1.
         25    2    1    2    0    0  0.66611344414E+02  0.29926498148E+00  0.13282050562E+03  0.19417405943E+03  0.12500047151E+03 0.  0.
          2    1    1    2  501    0 -0.53794129775E+01 -0.29562258047E+02 -0.21297341806E+02  0.36829905686E+02  0.00000000000E+00 0. -1.
          1    1    1    2  502    0 -0.61231931437E+02  0.29262993065E+02  0.18842527533E+04  0.18854745054E+04  0.00000000000E+00 0. -1.
         22    1    3    3    0    0  0.12294535326E+02  0.59484170036E+02  0.65866946365E+02  0.89598977155E+02  0.00000000000E+00 0.  1.
         22    1    3    3    0    0  0.54316809088E+02 -0.59184905054E+02  0.66953559252E+02  0.10457508227E+03  0.00000000000E+00 0.  1.
</event>
<event>
 7    1  0.6235964E-006  0.9215087E+02  0.7818608E-02  0.1432072E+00
          2   -1    0    0  502    0  0.00000000000E+00  0.00000000000E+00  0.41362781131E+03  0.41362781131E+03  0.00000000000E+00 0. -1.
          1   -1    0    0  501    0 -0.00000000000E+00 -0.00000000000E+00 -0.34675015439E+03  0.34675015439E+03  0.00000000000E+00 0. -1.
         25    2    1    2    0    0 -0.11890294051E+02  0.89719772715E+02  0.68685754638E+02  0.16891924184E+03  0.12499984266E+03 0.  0.
          2    1    1    2  501    0 -0.18054909598E+02 -0.90750497078E+02 -0.28861827867E+03  0.30308768246E+03  0.00000000000E+00 0. -1.
          1    1    1    2  502    0  0.29945203649E+02  0.10307243625E+01  0.28681018095E+03  0.28837104139E+03  0.00000000000E+00 0. -1.
         22    1    3    3    0    0 -0.37672368479E+02 -0.16529684239E+02  0.36369020938E+02  0.54910322271E+02  0.00000000000E+00 0. -1.
         22    1    3    3    0    0  0.25782074429E+02  0.10624945695E+03  0.32316733700E+02  0.11400891957E+03  0.00000000000E+00 0. -1.
</event>
<event>
 7    1  0.6235964E-006  0.5737322E+02  0.7818608E-02  0.1530930E+00
          2   -1    0    0  502    0  0.00000000000E+00  0.00000000000E+00  0.15712954679E+04  0.15712954679E+04  0.00000000000E+00 0. -1.
          1   -1    0    0  501    0 -0.00000000000E+00 -0.00000000000E+00 -0.13666611680E+03  0.13666611680E+03  0.00000000000E+00 0. -1.
         25    2    1    2    0    0 -0.43938158493E+02 -0.22752390142E+02  0.22795534812E+03  0.26464375171E+03  0.12499776620E+03 0.  0.
          2    1    1    2  501    0  0.80651757737E+01 -0.22556447291E+02 -0.11647223555E+03  0.11891014266E+03  0.00000000000E+00 0. -1.
          1    1    1    2  502    0  0.35872982719E+02  0.45308837432E+02  0.13231462385E+04  0.13244076903E+04  0.00000000000E+00 0. -1.
         22    1    3    3    0    0  0.15801554796E+02 -0.61284591118E+02  0.10351197337E+03  0.12132690911E+03  0.00000000000E+00 0. -1.
         22    1    3    3    0    0 -0.59739713288E+02  0.38532200976E+02  0.12444337474E+03  0.14331684260E+03  0.00000000000E+00 0. -1.
</event>
<event>
 7    1  0.6235964E-006  0.2024204E+03  0.7818608E-02  0.1270175E+00
          2   -1    0    0  502    0  0.00000000000E+00  0.00000000000E+00  0.95933227831E+03  0.95933227831E+03  0.00000000000E+00 0. -1.
          1   -1    0    0  501    0 -0.00000000000E+00 -0.00000000000E+00 -0.64234926418E+03  0.64234926418E+03  0.00000000000E+00 0. -1.
         25    2    1    2    0    0  0.16218529464E+03 -0.79167544910E+02  0.22375819417E+03  0.31347254057E+03  0.12500293705E+03 0.  0.
          2    1    1    2  501    0 -0.15486635182E+03  0.13311019583E+03 -0.57891074372E+03  0.61387259293E+03  0.00000000000E+00 0. -1.
          1    1    1    2  502    0 -0.73189428163E+01 -0.53942650916E+02  0.67213556368E+03  0.67433640898E+03  0.00000000000E+00 0. -1.
         22    1    3    3    0    0  0.25881215376E+02  0.67184206113E+01 -0.10864765732E+02  0.28862044613E+02  0.00000000000E+00 0. -1.
         22    1    3    3    0    0  0.13630407926E+03 -0.85885965521E+02  0.23462295990E+03  0.28461049596E+03  0.00000000000E+00 0. -1.
</event>
<event>
 7    1  0.6235964E-006  0.4562463E+02  0.7818608E-02  0.1524389E+00
          2   -1    0    0  502    0  0.00000000000E+00  0.00000000000E+00  0.38360172693E+03  0.38360172693E+03  0.00000000000E+00 0. -1.
          1   -1    0    0  501    0 -0.00000000000E+00 -0.00000000000E+00 -0.85023421683E+02  0.85023421683E+02  0.00000000000E+00 0. -1.
         25    2    1    2    0    0  0.20178833336E+02  0.14774273078E+02  0.24976056881E+03  0.28040691956E+03  0.12498893690E+03 0.  0.
          2    1    1    2  501    0  0.31161172151E+02  0.42969440056E+01 -0.59240124195E+02  0.67073651252E+02  0.00000000000E+00 0. -1.
          1    1    1    2  502    0 -0.51340005487E+02 -0.19071217084E+02  0.10805786063E+03  0.12114457779E+03  0.00000000000E+00 0. -1.
         22    1    3    3    0    0  0.47798312397E+02  0.40789353336E+02  0.59970856906E+02  0.86861692890E+02  0.00000000000E+00 0. -1.
         22    1    3    3    0    0 -0.27619479062E+02 -0.26015080258E+02  0.18978971190E+03  0.19354522667E+03  0.00000000000E+00 0. -1.
</event>
<event>
 7    1  0.6235964E-006  0.6049385E+02  0.7818608E-02  0.1422087E+00
          2   -1    0    0  502    0  0.00000000000E+00  0.00000000000E+00  0.12970103490E+04  0.12970103490E+04  0.00000000000E+00 0. -1.
          1   -1    0    0  501    0 -0.00000000000E+00 -0.00000000000E+00 -0.92062194625E+03  0.92062194625E+03  0.00000000000E+00 0. -1.
         25    2    1    2    0    0 -0.54107477878E+02 -0.83519978147E+02  0.61117129315E+02  0.17106581009E+03  0.12500000789E+03 0.  0.
          2    1    1    2  501    0  0.49744071027E+01  0.48995629637E+02 -0.86418271337E+03  0.86558481880E+03  0.00000000000E+00 0. -1.
          1    1    1    2  502    0  0.49133070776E+02  0.34524348509E+02  0.11794539868E+04  0.11809816664E+04  0.00000000000E+00 0. -1.
         22    1    3    3    0    0 -0.89743783297E+01  0.31287537146E+02  0.28997657974E+02  0.43592586698E+02  0.00000000000E+00 0. -1.
         22    1    3    3    0    0 -0.45133099549E+02 -0.11480751529E+03  0.32119471341E+02  0.12747322339E+03  0.00000000000E+00 0. -1.
</event>
<event>
 7    1  0.6235964E-006  0.1393471E+03  0.7818608E-02  0.1374146E+00
          2   -1    0    0  502    0  0.00000000000E+00  0.00000000000E+00  0.75942562543E+03  0.75942562543E+03  0.00000000000E+00 0. -1.
          1   -1    0    0  501    0 -0.00000000000E+00 -0.00000000000E+00 -0.17489143328E+04  0.17489143328E+04  0.00000000000E+00 0. -1.
         25    2    1    2    0    0 -0.54744123239E+00 -0.12862909799E+03 -0.17992028990E+03  0.25405321831E+03  0.12500392984E+03 0.  0.
          2    1    1    2  501    0  0.30655804106E+02  0.13713446439E+03 -0.15283642223E+04  0.15348103582E+04  0.00000000000E+00 0. -1.
          1    1    1    2  502    0 -0.30108362874E+02 -0.85053664064E+01  0.71879580484E+03  0.71947638170E+03  0.00000000000E+00 0. -1.
         22    1    3    3    0    0  0.70784852757E+01  0.17757151904E+02 -0.65110769295E+02  0.67858924805E+02  0.00000000000E+00 0.  1.
         22    1    3    3    0    0 -0.76259265081E+01 -0.14638624989E+03 -0.11480952060E+03  0.18619429350E+03  0.00000000000E+00 0.  1.
</event>
<event>
 7    1  0.6235964E-006  0.4171190E+02  0.7818608E-02  0.1573488E+00
          2   -1    0    0  502    0  0.00000000000E+00  0.00000000000E+00  0.56273087197E+03  0.56273087197E+03  0.00000000000E+00 0. -1.
          1   -1    0    0  501    0 -0.00000000000E+00 -0.00000000000E+00 -0.28163961810E+03  0.28163961810E+03  0.00000000000E+00 0. -1.
         25    2    1    2    0    0  0.48921163811E+02  0.28492775071E+02  0.66047677995E+00  0.13721554228E+03  0.12499020087E+03 0.  0.
          2    1    1    2  501    0 -0.75925400476E+01 -0.23911042273E+02 -0.21174487614E+03  0.21322588300E+03  0.00000000000E+00 0. -1.
          1    1    1    2  502    0 -0.41328623763E+02 -0.45817327979E+01  0.49217565323E+03  0.49392906479E+03  0.00000000000E+00 0. -1.
         22    1    3    3    0    0  0.33562448306E+02  0.32839389592E+01 -0.60522658375E+02  0.69283579354E+02  0.00000000000E+00 0.  1.
         22    1    3    3    0    0  0.15358715505E+02  0.25208836112E+02  0.61183135154E+02  0.67931962929E+02  0.00000000000E+00 0.  1.
</event>
<event>
 7    1  0.6235964E-006  0.5781456E+02  0.7818608E-02  0.1433172E+00
          2   -1    0    0  502    0  0.00000000000E+00  0.00000000000E+00  0.19309091629E+04  0.19309091629E+04  0.00000000000E+00 0. -1.
          1   -1    0    0  501    0 -0.00000000000E+00 -0.00000000000E+00 -0.62229050883E+02  0.62229050883E+02  0.00000000000E+00 0. -1.
         25    2    1    2    0    0 -0.71121828052E+02  0.38355617841E+02  0.16385181203E+04  0.16452646469E+04  0.12499864048E+03 0.  0.
          2    1    1    2  501    0  0.25681696304E+02 -0.51714257886E+02 -0.42140686871E+02  0.71482525723E+02  0.00000000000E+00 0. -1.
          1    1    1    2  502    0  0.45440131748E+02  0.13358640045E+02  0.27230267867E+03  0.27639104119E+03  0.00000000000E+00 0. -1.
         22    1    3    3    0    0 -0.58371333024E+02 -0.35283683342E+02  0.10138645574E+04  0.10161562338E+04  0.00000000000E+00 0. -1.
         22    1    3    3    0    0 -0.12750495028E+02  0.73639301183E+02  0.62465356285E+03  0.62910841306E+03  0.00000000000E+00 0. -1.
</event>
<event>
 7    1  0.6235964E-006  0.8183325E+02  0.7818608E-02  0.1360791E+00
          2   -1    0    0  502    0  0.00000000000E+00  0.00000000000E+00  0.10565206939E+04  0.10565206939E+04  0.00000000000E+00 0. -1.
          1   -1    0    0  501    0 -0.00000000000E+00 -0.00000000000E+00 -0.75977550633E+03  0.75977550633E+03  0.00000000000E+00 0. -1.
         25    2    1    2    0    0  0.58880863112E+01 -0.78087560035E+02 -0.92936896070E+02  0.17434256147E+03  0.12500290195E+03 0.  0.
          2    1    1    2  501    0 -0.57760771194E+02  0.14397074291E+02 -0.62305427887E+03  0.62589153762E+03  0.00000000000E+00 0. -1.
          1    1    1    2  502    0  0.51872684883E+02  0.63690485744E+02  0.10127363626E+04  0.10160621012E+04  0.00000000000E+00 0. -1.
         22    1    3    3    0    0  0.54597875239E+02 -0.52737396652E+02 -0.12472130760E+02  0.76926686084E+02  0.00000000000E+00 0. -1.
         22    1    3    3    0    0 -0.48709788928E+02 -0.25350163383E+02 -0.80464765311E+02  0.97415875387E+02  0.00000000000E+00 0. -1.
</event>
<event>
 7    1  0.6235964E-006  0.1129311E+03  0.7818608E-02  0.1425191E+00
          2   -1    0    0  502    0  0.00000000000E+00  0.00000000000E+00  0.15532329554E+04  0.15532329554E+04  0.00000000000E+00 0. -1.
          1   -1    0    0  501    0 -0.00000000000E+00 -0.00000000000E+00 -0.83956717015E+03  0.83956717015E+03  0.00000000000E+00 0. -1.
         25    2    1    2    0    0  0.91719950368E+02 -0.90144605305E+02 -0.29708345959E+02  0.18178220801E+03  0.12499434455E+03 0.  0.
          2    1    1    2  501    0 -0.91816790933E+02  0.64383337232E+02 -0.72942433175E+03  0.73799416865E+03  0.00000000000E+00 0. -1.
          1    1    1    2  502    0  0.96840565026E-01  0.25761268074E+02  0.14727984629E+04  0.14730237489E+04  0.00000000000E+00 0. -1.
         22    1    3    3    0    0  0.31705935155E+02 -0.10198622720E+03 -0.49188983048E+02  0.11758406744E+03  0.00000000000E+00 0. -1.
         22    1    3    3    0    0  0.60014015214E+02  0.11841621899E+02  0.19480637089E+02  0.64198140570E+02  0.00000000000E+00 0. -1.
</event>
<event>
 7    1  0.6235964E-006  0.1637445E+03  0.7818608E-02  0.1327795E+00
          2   -1    0    0  502    0  0.00000000000E+00  0.00000000000E+00  0.30548244100E+03  0.30548244100E+03  0.00000000000E+00 0. -1.
          1   -1    0    0  501    0 -0.00000000000E+00 -0.00000000000E+00 -0.25969372719E+03  0.25969372719E+03  0.00000000000E+00 0. -1.
         25    2    1    2    0    0  0.23219376839E+01 -0.18073190039E+03 -0.12652113008E+03  0.25357998005E+03  0.12500319482E+03 0.  0.
          2    1    1    2  501    0 -0.32869508107E+02  0.21942529884E+02 -0.32132977017E+02  0.50935325589E+02  0.00000000000E+00 0. -1.
          1    1    1    2  502    0  0.30547570423E+02  0.15878937050E+03  0.20444282091E+03  0.26066086255E+03  0.00000000000E+00 0. -1.
         22    1    3    3    0    0 -0.38383856769E+02 -0.47135751621E+01 -0.16445574579E+02  0.42023745365E+02  0.00000000000E+00 0. -1.
         22    1    3    3    0    0  0.40705794453E+02 -0.17601832522E+03 -0.11007555550E+03  0.21155623469E+03  0.00000000000E+00 0. -1.
</event>
<event>
 7    1  0.6235964E-006  0.6120133E+02  0.7818608E-02  0.1488013E+00
          2   -1    0    0  502    0  0.00000000000E+00  0.00000000000E+00  0.93748570785E+03  0.93748570785E+03  0.00000000000E+00 0. -1.
          1   -1    0    0  501    0 -0.00000000000E+00 -0.00000000000E+00 -0.12669104317E+03  0.12669104317E+03  0.00000000000E+00 0. -1.
         25    2    1    2    0    0  0.13780667662E+02 -0.46821795253E+02  0.23603135673E+03  0.27151399837E+03  0.12500745035E+03 0.  0.
          2    1    1    2  501    0  0.12997190502E+02  0.60450050777E+02 -0.99815599576E+02  0.11741503106E+03  0.00000000000E+00 0. -1.
          1    1    1    2  502    0 -0.26777858164E+02 -0.13628255523E+02  0.67457890753E+03  0.67524772159E+03  0.00000000000E+00 0. -1.
         22    1    3    3    0    0 -0.13806096936E+02 -0.49380036794E+02  0.22163165996E+02  0.55858770783E+02  0.00000000000E+00 0.  1.
         22    1    3    3    0    0  0.27586764598E+02  0.25582415412E+01  0.21386819073E+03  0.21565522759E+03  0.00000000000E+00 0.  1.
</event>
<event>
 7    1  0.6235964E-006  0.2030081E+03  0.7818608E-02  0.1158751E+00
          2   -1    0    0  502    0  0.00000000000E+00  0.00000000000E+00  0.13780020751E+04  0.13780020751E+04  0.00000000000E+00 0. -1.
          1   -1    0    0  501    0 -0.00000000000E+00 -0.00000000000E+00 -0.42004141451E+03  0.42004141451E+03  0.00000000000E+00 0. -1.
         25    2    1    2    0    0  0.67987085010E+02  0.27541189674E+03  0.84167605605E+02  0.32122022489E+03  0.12499716178E+03 0.  0.
          2    1    1    2  501    0  0.90954613637E+02 -0.15210454531E+03 -0.26588028466E+03  0.31953225224E+03  0.00000000000E+00 0. -1.
          1    1    1    2  502    0 -0.15894169865E+03 -0.12330735142E+03  0.11396733397E+04  0.11572910125E+04  0.00000000000E+00 0. -1.
         22    1    3    3    0    0  0.93288356118E+02  0.11877573114E+03  0.48105949869E+02  0.15850733140E+03  0.00000000000E+00 0. -1.
         22    1    3    3    0    0 -0.25301271109E+02  0.15663616560E+03  0.36061655736E+02  0.16271289349E+03  0.00000000000E+00 0. -1.
</event>
<event>
 7    1  0.6235964E-006  0.3953104E+02  0.7818608E-02  0.1582343E+00
          2   -1    0    0  502    0  0.00000000000E+00  0.00000000000E+00  0.15627124595E+04  0.15627124595E+04  0.00000000000E+00 0. -1.
          1   -1    0    0  501    0 -0.00000000000E+00 -0.00000000000E+00 -0.15669813040E+02  0.15669813040E+02  0.00000000000E+00 0. -1.
         25    2    1    2    0    0 -0.12014642658E+02 -0.14256807314E+02  0.76897753966E+03  0.77929301465E+03  0.12499415183E+03 0.  0.
          2    1    1    2  501    0 -0.23981001501E+02 -0.72721054027E+01  0.58463662593E+01  0.25732313312E+02  0.00000000000E+00 0. -1.
          1    1    1    2  502    0  0.35995644159E+02  0.21528912716E+02  0.77221874059E+03  0.77335694463E+03  0.00000000000E+00 0. -1.
         22    1    3    3    0    0  0.36495043232E+02 -0.46356729180E+02  0.53284750651E+03  0.53610381431E+03  0.00000000000E+00 0.  1.
         22    1    3    3    0    0 -0.48509685890E+02  0.32099921866E+02  0.23613003315E+03  0.24318920034E+03  0.00000000000E+00 0.  1.
</event>
<event>
 7    1  0.6235964E-006  0.6990922E+02  0.7818608E-02  0.1510632E+00
          2   -1    0    0  502    0  0.00000000000E+00  0.00000000000E+00  0.64207394218E+02  0.64207394218E+02  0.00000000000E+00 0. -1.
          1   -1    0    0  501    0 -0.00000000000E+00 -0.00000000000E+00 -0.29299285522E+03  0.29299285522E+03  0.00000000000E+00 0. -1.
         25    2    1    2    0    0  0.81435628429E+02 -0.21983418874E+02 -0.14426587138E+03  0.20869192306E+03  0.12499857927E+03 0.  0.
          2    1    1    2  501    0 -0.59668997147E+02  0.27736705494E+02 -0.10104441422E+03  0.12058062737E+03  0.00000000000E+00 0. -1.
          1    1    1    2  502    0 -0.21766631282E+02 -0.57532866197E+01  0.16524824596E+02  0.27927699014E+02  0.00000000000E+00 0. -1.
         22    1    3    3    0    0  0.58463939399E+02  0.10642075478E+02 -0.15613622671E+03  0.16706228561E+03  0.00000000000E+00 0. -1.
         22    1    3    3    0    0  0.22971689030E+02 -0.32625494353E+02  0.11870355329E+02  0.41629637451E+02  0.00000000000E+00 0. -1.
</event>
<event>
 7    1  0.6235964E-006  0.1919604E+03  0.7818608E-02  0.1264597E+00
          2   -1    0    0  502    0  0.00000000000E+00  0.00000000000E+00  0.43591987414E+03  0.43591987414E+03  0.00000000000E+00 0. -1.
          1   -1    0    0  501    0 -0.00000000000E+00 -0.00000000000E+00 -0.26265459893E+04  0.26265459893E+04  0.00000000000E+00 0. -1.
         25    2    1    2    0    0 -0.20315027308E+03  0.51358266184E+02 -0.17015960331E+03  0.29746871247E+03  0.12500255733E+03 0.  0.
          2    1    1    2  501    0  0.16442312814E+03 -0.97966434079E+02 -0.23864086723E+04  0.23940715818E+04  0.00000000000E+00 0. -1.
          1    1    1    2  502    0  0.38727144939E+02  0.46608167896E+02  0.36594216048E+03  0.37092556920E+03  0.00000000000E+00 0. -1.
         22    1    3    3    0    0 -0.11646701027E+03  0.58395160918E+02 -0.31906473262E+02  0.13413643180E+03  0.00000000000E+00 0. -1.
         22    1    3    3    0    0 -0.86683262809E+02 -0.70368947348E+01 -0.13825313005E+03  0.16333228067E+03  0.00000000000E+00 0. -1.
</event>
<event>
 7    1  0.6235964E-006  0.4879670E+02  0.7818608E-02  0.1552986E+00
          2   -1    0    0  502    0  0.00000000000E+00  0.00000000000E+00  0.14477794523E+04  0.14477794523E+04  0.00000000000E+00 0. -1.
          1   -1    0    0  501    0 -0.00000000000E+00 -0.00000000000E+00 -0.17453996235E+02  0.17453996235E+02  0.00000000000E+00 0. -1.
         25    2    1    2    0    0 -0.29133739333E+02 -0.12454939055E+02  0.49549727102E+03  0.51200139438E+03  0.12499592786E+03 0.  0.
          2    1    1    2  501    0  0.37499152192E+02  0.35384301029E+02  0.64556928426E+02  0.82618594651E+02  0.00000000000E+00 0. -1.
          1    1    1    2  502    0 -0.83654128589E+01 -0.22929361974E+02  0.87027125663E+03  0.87061345952E+03  0.00000000000E+00 0. -1.
         22    1    3    3    0    0  0.27565817310E+02  0.26728873662E+02  0.61047607823E+02  0.72118772814E+02  0.00000000000E+00 0. -1.
         22    1    3    3    0    0 -0.56699556643E+02 -0.39183812717E+02  0.43444966320E+03  0.43988262157E+03  0.00000000000E+00 0. -1.
</event>
<event>
 7    1  0.6235964E-006  0.1871900E+03  0.7818608E-02  0.1222861E+00
          2   -1    0    0  502    0  0.00000000000E+00  0.00000000000E+00  0.12090906227E+04  0.12090906227E+04  0.00000000000E+00 0. -1.
          1   -1    0    0  501    0 -0.00000000000E+00 -0.00000000000E+00 -0.41691899749E+03  0.41691899749E+03  0.00000000000E+00 0. -1.
         25    2    1    2    0    0  0.59327308819E+01 -0.27014598749E+03  0.52816370693E+03  0.60629738551E+03  0.12500226601E+03 0.  0.
          2    1    1    2  501    0  0.28305536061E+02  0.18184669775E+03 -0.35160513685E+03  0.39685714950E+03  0.00000000000E+00 0. -1.
          1    1    1    2  502    0 -0.34238266943E+02  0.88299289734E+02  0.61561305513E+03  0.62285508518E+03  0.00000000000E+00 0. -1.
         22    1    3    3    0    0  0.43181974959E+02 -0.19645887463E+03  0.44860608490E+03  0.49163827332E+03  0.00000000000E+00 0. -1.
         22    1    3    3    0    0 -0.37249244077E+02 -0.73687112856E+02  0.79557622031E+02  0.11465911219E+03  0.00000000000E+00 0. -1.
</event>
<event>
 7    1  0.6235964E-006  0.8369601E+02  0.7818608E-02  0.1361881E+00
          2   -1    0    0  502    0  0.00000000000E+00  0.00000000000E+00  0.53044106874E+03  0.53044106874E+03  0.00000000000E+00 0. -1.
          1   -1    0    0  501    0 -0.00000000000E+00 -0.00000000000E+00 -0.34843517998E+03  0.34843517998E+03  0.00000000000E+00 0. -1.
         25    2    1    2    0    0 -0.12515604357E+03 -0.50739114847E+02  0.12575673533E+03  0.22288079382E+03  0.12499039465E+03 0.  0.
          2    1    1    2  501    0  0.56544501493E+02  0.11355924753E+02 -0.29262998569E+03  0.29825919299E+03  0.00000000000E+00 0. -1.
          1    1    1    2  502    0  0.68611542079E+02  0.39383190094E+02  0.34887913912E+03  0.35773626191E+03  0.00000000000E+00 0. -1.
         22    1    3    3    0    0 -0.81343079554E+02  0.32397197252E+02  0.78945612063E+02  0.11789268275E+03  0.00000000000E+00 0. -1.
         22    1    3    3    0    0 -0.43812964018E+02 -0.83136312100E+02  0.46811123262E+02  0.10498811107E+03  0.00000000000E+00 0. -1.
</event>
<event>
 7    1  0.6235964E-006  0.5693610E+02  0.7818608E-02  0.1439039E+00
          2   -1    0    0  502    0  0.00000000000E+00  0.00000000000E+00  0.85037933755E+03  0.85037933755E+03  0.00000000000E+00 0. -1.
          1   -1    0    0  501    0 -0.00000000000E+00 -0.00000000000E+00 -0.53654822667E+02  0.53654822667E+02  0.00000000000E+00 0. -1.
         25    2    1    2    0    0  0.18281277153E+02  0.39800148321E+01  0.10211633967E+03  0.16249642744E+03  0.12500918562E+03 0.  0.
          2    1    1    2  501    0  0.33556260192E+02 -0.31492686472E+02  0.15983098074E+01  0.46047437426E+02  0.00000000000E+00 0. -1.
          1    1    1    2  502    0 -0.51837537346E+02  0.27512671639E+02  0.69300986541E+03  0.69549029535E+03  0.00000000000E+00 0. -1.
         22    1    3    3    0    0 -0.20412011153E+02 -0.31802983922E+02 -0.95846600243E+01  0.38986480906E+02  0.00000000000E+00 0. -1.
         22    1    3    3    0    0  0.38693288306E+02  0.35782998754E+02  0.11170099970E+03  0.12350994653E+03  0.00000000000E+00 0. -1.
</event>
<event>
 7    1  0.6235964E-006  0.2464653E+02  0.7818608E-02  0.1668409E+00
          2   -1    0    0  502    0  0.00000000000E+00  0.00000000000E+00  0.21041660409E+04  0.21041660409E+04  0.00000000000E+00 0. -1.
          1   -1    0    0  501    0 -0.00000000000E+00 -0.00000000000E+00 -0.12951223512E+03  0.12951223512E+03  0.00000000000E+00 0. -1.
         25    2    1    2    0    0  0.39347461615E+02  0.28961564019E+02  0.42225203776E+03  0.44306793963E+03  0.12500168323E+03 0.  0.
          2    1    1    2  501    0 -0.20469610382E+02 -0.13600016127E+02 -0.11774695326E+03  0.12028428988E+03  0.00000000000E+00 0. -1.
          1    1    1    2  502    0 -0.18877851233E+02 -0.15361547892E+02  0.16701487213E+04  0.16703260465E+04  0.00000000000E+00 0. -1.
         22    1    3    3    0    0 -0.99197542799E+00 -0.30617227840E+02  0.25538619940E+02  0.39882574695E+02  0.00000000000E+00 0. -1.
         22    1    3    3    0    0  0.40339437043E+02  0.59578791859E+02  0.39671341782E+03  0.40318536494E+03  0.00000000000E+00 0. -1.
</event>
<event>
 7    1  0.6235964E-006  0.4163733E+02  0.7818608E-02  0.1556345E+00
          2   -1    0    0  502    0  0.00000000000E+00  0.00000000000E+00  0.37036756399E+02  0.37036756399E+02  0.00000000000E+00 0. -1.
          1   -1    0    0  501    0 -0.00000000000E+00 -0.00000000000E+00 -0.27615111915E+04  0.27615111915E+04  0.00000000000E+00 0. -1.
         25    2    1    2    0    0 -0.18256572875E+02 -0.95457172768E+01 -0.19054136960E+04  0.19096203781E+04  0.12499684961E+03 0.  0.
          2    1    1    2  501    0  0.42981785883E+02  0.22680989289E+02 -0.84757426625E+03  0.84896642925E+03  0.00000000000E+00 0. -1.
          1    1    1    2  502    0 -0.24725213008E+02 -0.13135272012E+02  0.28513527100E+02  0.39961140585E+02  0.00000000000E+00 0. -1.
         22    1    3    3    0    0 -0.35856580240E+01  0.23496649676E+02 -0.71437673900E+02  0.75288051785E+02  0.00000000000E+00 0.  1.
         22    1    3    3    0    0 -0.14670914851E+02 -0.33042366953E+02 -0.18339760221E+04  0.18343323263E+04  0.00000000000E+00 0.  1.
</event>
<event>
 7    1  0.6235964E-006  0.4559633E+03  0.7818608E-02  0.1240618E+00
          2   -1    0    0  502    0  0.00000000000E+00  0.00000000000E+00  0.12857271173E+04  0.12857271173E+04  0.00000000000E+00 0. -1.
          1   -1    0    0  501    0 -0.00000000000E+00 -0.00000000000E+00 -0.12291749693E+04  0.12291749693E+04  0.00000000000E+00 0. -1.
         25    2    1    2    0    0 -0.46621333478E+03 -0.11774509752E+03 -0.64813148163E+01  0.49687602280E+03  0.12499997231E+03 0.  0.
          2    1    1    2  501    0  0.43966185917E+03  0.99204633048E+02 -0.92526177177E+03  0.10292003964E+04  0.00000000000E+00 0. -1.
          1    1    1    2  502    0  0.26551475606E+02  0.18540464474E+02  0.98829523459E+03  0.98882566734E+03  0.00000000000E+00 0. -1.
         22    1    3    3    0    0 -0.36360013697E+02  0.42336118192E+01  0.31698347125E+02  0.48422714459E+02  0.00000000000E+00 0. -1.
         22    1    3    3    0    0 -0.42985332108E+03 -0.12197870934E+03 -0.38179661941E+02  0.44845330834E+03  0.00000000000E+00 0. -1.
</event>
<event>
 7    1  0.6235964E-006  0.1939192E+03  0.7818608E-02  0.1347028E+00
          2   -1    0    0  502    0  0.00000000000E+00  0.00000000000E+00  0.21623731824E+04  0.21623731824E+04  0.00000000000E+00 0. -1.
          1   -1    0    0  501    0 -0.00000000000E+00 -0.00000000000E+00 -0.18228555042E+03  0.18228555042E+03  0.00000000000E+00 0. -1.
         25    2    1    2    0    0 -0.98645291120E+02 -0.13838174673E+03  0.10936128560E+04  0.11137752244E+04  0.12500308188E+03 0.  0.
          2    1    1    2  501    0  0.10189749212E+03  0.16642451162E+03 -0.11665849327E+03  0.22735307568E+03  0.00000000000E+00 0. -1.
          1    1    1    2  502    0 -0.32522009995E+01 -0.28042764898E+02  0.10031332693E+04  0.10035304327E+04  0.00000000000E+00 0. -1.
         22    1    3    3    0    0  0.20367516843E+02 -0.15689134191E+01  0.42725555608E+02  0.47357896212E+02  0.00000000000E+00 0. -1.
         22    1    3    3    0    0 -0.11901280796E+03 -0.13681283331E+03  0.10508873004E+04  0.10664173282E+04  0.00000000000E+00 0. -1.
</event>
<event>
 7    1  0.6235964E-006  0.7495931E+02  0.7818608E-02  0.1394861E+00
          2   -1    0    0  502    0  0.00000000000E+00  0.00000000000E+00  0.79294455031E+03  0.79294455031E+03  0.00000000000E+00 0. -1.
          1   -1    0    0  501    0 -0.00000000000E+00 -0.00000000000E+00 -0.15880004029E+03  0.15880004029E+03  0.00000000000E+00 0. -1.
         25    2    1    2    0    0 -0.74964178021E+02  0.73317462552E+02  0.21163822250E+02  0.16452381423E+03  0.12500039909E+03 0.  0.
          2    1    1    2  501    0  0.26282511343E+02 -0.66367908324E+02 -0.71466365805E+02  0.10100946044E+03  0.00000000000E+00 0. -1.
          1    1    1    2  502    0  0.48681666678E+02 -0.69495542276E+01  0.68444705357E+03  0.68621131594E+03  0.00000000000E+00 0. -1.
         22    1    3    3    0    0 -0.80148892458E+02  0.42372611025E+02  0.64325888499E+02  0.11116250743E+03  0.00000000000E+00 0.  1.
         22    1    3    3    0    0  0.51847144372E+01  0.30944851527E+02 -0.43162066249E+02  0.53361306794E+02  0.00000000000E+00 0.  1.
</event>
<event>
 7    1  0.6235964E-006  0.3692470E+03  0.7818608E-02  0.1122585E+00
          2   -1    0    0  502    0  0.00000000000E+00  0.00000000000E+00  0.35989948395E+04  0.35989948395E+04  0.00000000000E+00 0. -1.
          1   -1    0    0  501    0 -0.00000000000E+00 -0.00000000000E+00 -0.17808539033E+04  0.17808539033E+04  0.00000000000E+00 0. -1.
         25    2    1    2    0    0 -0.12516324912E+03 -0.33519827670E+03  0.13461476705E+04  0.13984859822E+04  0.12500307152E+03 0.  0.
          2    1    1    2  501    0  0.25829811463E+03  0.26469222368E+03 -0.17325976173E+04  0.17716304335E+04  0.00000000000E+00 0. -1.
          1    1    1    2  502    0 -0.13313486551E+03  0.70506053019E+02  0.22045908830E+04  0.22097323271E+04  0.00000000000E+00 0. -1.
         22    1    3    3    0    0 -0.12848828650E+03 -0.28880527296E+03  0.12741271399E+04  0.13127519545E+04  0.00000000000E+00 0.  1.
         22    1    3    3    0    0  0.33250373846E+01 -0.46393003743E+02  0.72020530634E+02  0.85734027683E+02  0.00000000000E+00 0.  1.
</event>
<event>
 7    1  0.6235964E-006  0.7696030E+02  0.7818608E-02  0.1416463E+00
          2   -1    0    0  502    0  0.00000000000E+00  0.00000000000E+00  0.94161733956E+03  0.94161733956E+03  0.00000000000E+00 0. -1.
          1   -1    0    0  501    0 -0.00000000000E+00 -0.00000000000E+00 -0.24902042166E+04  0.24902042166E+04  0.00000000000E+00 0. -1.
         25    2    1    2    0    0  0.34691699209E+02  0.11091134665E+03  0.60183199854E+02  0.18097541405E+03  0.12500096854E+03 0.  0.
          2    1    1    2  501    0 -0.13375531383E+02 -0.38146375358E+02 -0.24278889395E+04  0.24282254330E+04  0.00000000000E+00 0. -1.
          1    1    1    2  502    0 -0.21316167826E+02 -0.72764971288E+02  0.81911886260E+03  0.82262070915E+03  0.00000000000E+00 0. -1.
         22    1    3    3    0    0  0.15684309616E+02  0.13637182072E+03  0.58326193866E+02  0.14914830186E+03  0.00000000000E+00 0.  1.
         22    1    3    3    0    0  0.19007389593E+02 -0.25460474078E+02  0.18570059876E+01  0.31827112194E+02  0.00000000000E+00 0.  1.
</event>
<event>
 7    1  0.6235964E-006  0.8756145E+02  0.7818608E-02  0.1312756E+00
          2   -1    0    0  502    0  0.00000000000E+00  0.00000000000E+00  0.37320449269E+03  0.37320449269E+03  0.00000000000E+00 0. -1.
          1   -1    0    0  501    0 -0.00000000000E+00 -0.00000000000E+00 -0.13270651222E+03  0.13270651222E+03  0.00000000000E+00 0. -1.
         25    2    1    2    0    0  0.45851470626E+01  0.30208077802E+01 -0.16488440928E+02  0.12620268822E+03  0.12500040390E+03 0.  0.
          2    1    1    2  501    0  0.66334546123E+02  0.57155369112E+02 -0.18022491666E+02  0.89396971053E+02  0.00000000000E+00 0. -1.
          1    1    1    2  502    0 -0.70919693185E+02 -0.60176176892E+02  0.27500891306E+03  0.29031134565E+03  0.00000000000E+00 0. -1.
         22    1    3    3    0    0  0.20183375924E+02  0.41303674489E+02 -0.53624985275E+02  0.70632862293E+02  0.00000000000E+00 0.  1.
         22    1    3    3    0    0 -0.15598228861E+02 -0.38282866709E+02  0.37136544347E+02  0.55569825923E+02  0.00000000000E+00 0.  1.
</event>
<event>
 7    1  0.6235964E-006  0.6964114E+02  0.7818608E-02  0.1389746E+00
          2   -1    0    0  502    0  0.00000000000E+00  0.00000000000E+00  0.33667136098E+03  0.33667136098E+03  0.00000000000E+00 0. -1.
          1   -1    0    0  501    0 -0.00000000000E+00 -0.00000000000E+00 -0.27209940698E+03  0.27209940698E+03  0.00000000000E+00 0. -1.
         25    2    1    2    0    0  0.96512936015E+02 -0.21339102473E+02 -0.48732100425E+02  0.16664001418E+03  0.12499589034E+03 0.  0.
          2    1    1    2  501    0 -0.47758511854E+02 -0.27567564025E+02 -0.15529578070E+03  0.16479570851E+03  0.00000000000E+00 0. -1.
          1    1    1    2  502    0 -0.48754424160E+02  0.48906666498E+02  0.26859983513E+03  0.27733504527E+03  0.00000000000E+00 0. -1.
         22    1    3    3    0    0  0.10255102796E+03 -0.52385163128E+02 -0.85068639074E+01  0.11546984622E+03  0.00000000000E+00 0. -1.
         22    1    3    3    0    0 -0.60380919463E+01  0.31046060654E+02 -0.40225236518E+02  0.51170167964E+02  0.00000000000E+00 0. -1.
</event>
<event>
 7    1  0.6235964E-006  0.6455151E+02  0.7818608E-02  0.1386923E+00
          2   -1    0    0  502    0  0.00000000000E+00  0.00000000000E+00  0.48240082907E+03  0.48240082907E+03  0.00000000000E+00 0. -1.
          1   -1    0    0  501    0 -0.00000000000E+00 -0.00000000000E+00 -0.85721476615E+02  0.85721476615E+02  0.00000000000E+00 0. -1.
         25    2    1    2    0    0  0.90996686048E+02 -0.11136045843E+02  0.12403052383E+03  0.19852609979E+03  0.12499853227E+03 0.  0.
          2    1    1    2  501    0 -0.42171415587E+02  0.47468145188E+02 -0.23163264943E+02  0.67588386155E+02  0.00000000000E+00 0. -1.
          1    1    1    2  502    0 -0.48825270461E+02 -0.36332099345E+02  0.29581209357E+03  0.30200781973E+03  0.00000000000E+00 0. -1.
         22    1    3    3    0    0  0.70722953110E+02 -0.38338246779E+02  0.11833160866E+02  0.81311628681E+02  0.00000000000E+00 0. -1.
         22    1    3    3    0    0  0.20273732938E+02  0.27202200936E+02  0.11219736296E+03  0.11721447111E+03  0.00000000000E+00 0. -1.
</event>
<event>
 7    1  0.6235964E-006  0.4193461E+02  0.7818608E-02  0.1604596E+00
          2   -1    0    0  502    0  0.00000000000E+00  0.00000000000E+00  0.13181626266E+04  0.13181626266E+04  0.00000000000E+00 0. -1.
          1   -1    0    0  501    0 -0.00000000000E+00 -0.00000000000E+00 -0.78430543785E+03  0.78430543785E+03  0.00000000000E+00 0. -1.
         25    2    1    2    0    0  0.26656471392E+02 -0.29472269319E+02  0.59884219626E+03  0.61303839467E+03  0.12499966079E+03 0.  0.
          2    1    1    2  501    0 -0.94456041334E+01  0.40863885612E+02 -0.77649175235E+03  0.77762363522E+03  0.00000000000E+00 0. -1.
          1    1    1    2  502    0 -0.17210867259E+02 -0.11391616293E+02  0.71150674480E+03  0.71180603452E+03  0.00000000000E+00 0. -1.
         22    1    3    3    0    0  0.26962858198E+01 -0.41331892773E+02  0.57708446084E+03  0.57856898488E+03  0.00000000000E+00 0.  1.
         22    1    3    3    0    0  0.23960185572E+02  0.11859623454E+02  0.21757735417E+02  0.34469409795E+02  0.00000000000E+00 0.  1.
</event>
<event>
 7    1  0.6235964E-006  0.1594203E+03  0.7818608E-02  0.1203838E+00
          2   -1    0    0  502    0  0.00000000000E+00  0.00000000000E+00  0.88976637778E+03  0.88976637778E+03  0.00000000000E+00 0. -1.
          1   -1    0    0  501    0 -0.00000000000E+00 -0.00000000000E+00 -0.15273577523E+03  0.15273577523E+03  0.00000000000E+00 0. -1.
         25    2    1    2    0    0 -0.24019009614E+02  0.10626934563E+03  0.21993769132E+03  0.27543885350E+03  0.12499554916E+03 0.  0.
          2    1    1    2  501    0  0.11390076192E+03  0.74480309221E+02 -0.65105231686E+02  0.15086215967E+03  0.00000000000E+00 0. -1.
          1    1    1    2  502    0 -0.89881752309E+02 -0.18074965485E+03  0.58219814292E+03  0.61620113985E+03  0.00000000000E+00 0. -1.
         22    1    3    3    0    0  0.21783513830E+02  0.21792065170E+02 -0.46452496472E+01  0.31160775398E+02  0.00000000000E+00 0. -1.
         22    1    3    3    0    0 -0.45802523443E+02  0.84477280461E+02  0.22458294096E+03  0.24427807810E+03  0.00000000000E+00 0. -1.
</event>
<event>
 7    1  0.6235964E-006  0.9449581E+02  0.7818608E-02  0.1357216E+00
          2   -1    0    0  502    0  0.00000000000E+00  0.00000000000E+00  0.11369841677E+04  0.11369841677E+04  0.00000000000E+00 0. -1.
          1   -1    0    0  501    0 -0.00000000000E+00 -0.00000000000E+00 -0.24952235057E+02  0.24952235057E+02  0.00000000000E+00 0. -1.
         25    2    1    2    0    0 -0.54977292512E+02 -0.67752469022E+02  0.37193730887E+03  0.40196666373E+03  0.12500774884E+03 0.  0.
          2    1    1    2  501    0 -0.39060990750E+02  0.36007901534E+02  0.11058693262E+03  0.12268577602E+03  0.00000000000E+00 0. -1.
          1    1    1    2  502    0  0.94038283262E+02  0.31744567488E+02  0.62950769111E+03  0.63728396296E+03  0.00000000000E+00 0. -1.
         22    1    3    3    0    0 -0.88292232966E+02 -0.44649523324E+02  0.32607023870E+03  0.34075049362E+03  0.00000000000E+00 0.  1.
         22    1    3    3    0    0  0.33314940454E+02 -0.23102945697E+02  0.45867070177E+02  0.61216170118E+02  0.00000000000E+00 0.  1.
</event>
<event>
 7    1  0.6235964E-006  0.7422604E+02  0.7818608E-02  0.1355889E+00
          2   -1    0    0  502    0  0.00000000000E+00  0.00000000000E+00  0.23713544741E+04  0.23713544741E+04  0.00000000000E+00 0. -1.
          1   -1    0    0  501    0 -0.00000000000E+00 -0.00000000000E+00 -0.14871756990E+02  0.14871756990E+02  0.00000000000E+00 0. -1.
         25    2    1    2    0    0 -0.43563892777E+02  0.64197444597E+02  0.12596656790E+04  0.12682277889E+04  0.12499990880E+03 0.  0.
          2    1    1    2  501    0 -0.31379680735E+02 -0.67266789506E+02  0.14190698711E+03  0.16014711463E+03  0.00000000000E+00 0. -1.
          1    1    1    2  502    0  0.74943573512E+02  0.30693449084E+01  0.95491005102E+03  0.95785132752E+03  0.00000000000E+00 0. -1.
         22    1    3    3    0    0 -0.21052489451E+02 -0.13222018125E+02  0.86768660811E+03  0.86804267117E+03  0.00000000000E+00 0. -1.
         22    1    3    3    0    0 -0.22511403327E+02  0.77419462723E+02  0.39197907085E+03  0.40018511775E+03  0.00000000000E+00 0. -1.
</event>
<event>
 7    1  0.6235964E-006  0.6706874E+02  0.7818608E-02  0.1385593E+00
          2   -1    0    0  502    0  0.00000000000E+00  0.00000000000E+00  0.11997807489E+04  0.11997807489E+04  0.00000000000E+00 0. -1.
          1   -1    0    0  501    0 -0.00000000000E+00 -0.00000000000E+00 -0.44096156528E+03  0.44096156528E+03  0.00000000000E+00 0. -1.
         25    2    1    2    0    0  0.25186722455E+02  0.91116349718E+02 -0.13365735199E+03  0.20597713036E+03  0.12500292122E+03 0.  0.
          2    1    1    2  501    0  0.25670040722E+02 -0.60797057074E+02 -0.26636169859E+03  0.27441535601E+03  0.00000000000E+00 0. -1.
          1    1    1    2  502    0 -0.50856763177E+02 -0.30319292643E+02  0.11588382342E+04  0.11603498278E+04  0.00000000000E+00 0. -1.
         22    1    3    3    0    0 -0.47130745495E+02  0.29424866033E+02 -0.23096499137E+02  0.60171240508E+02  0.00000000000E+00 0. -1.
         22    1    3    3    0    0  0.72317467950E+02  0.61691483685E+02 -0.11056085286E+03  0.14580588985E+03  0.00000000000E+00 0. -1.
</event>
<event>
 7    1  0.6235964E-006  0.5536117E+02  0.7818608E-02  0.1439944E+00
          2   -1    0    0  502    0  0.00000000000E+00  0.00000000000E+00  0.25333867833E+03  0.25333867833E+03  0.00000000000E+00 0. -1.
          1   -1    0    0  501    0 -0.00000000000E+00 -0.00000000000E+00 -0.88480790144E+03  0.88480790144E+03  0.00000000000E+00 0. -1.
         25    2    1    2    0    0 -0.49848194461E+02  0.56264250230E+02 -0.10462981424E+03  0.17950893483E+03  0.12500220523E+03 0.  0.
          2    1    1    2  501    0  0.46997157801E+02 -0.10736837133E+01 -0.73844231927E+03  0.73993712201E+03  0.00000000000E+00 0. -1.
          1    1    1    2  502    0  0.28510366608E+01 -0.55190566517E+02  0.21160291039E+03  0.21870052293E+03  0.00000000000E+00 0. -1.
         22    1    3    3    0    0 -0.28765004368E+02  0.79918108320E+02 -0.11777221657E+03  0.14520545620E+03  0.00000000000E+00 0.  1.
         22    1    3    3    0    0 -0.21083190093E+02 -0.23653858090E+02  0.13142402336E+02  0.34303478631E+02  0.00000000000E+00 0.  1.
</event>
<event>
 7    1  0.6235964E-006  0.2144013E+03  0.7818608E-02  0.1276879E+00
          2   -1    0    0  502    0  0.00000000000E+00  0.00000000000E+00  0.37305740961E+03  0.37305740961E+03  0.00000000000E+00 0. -1.
          1   -1    0    0  501    0 -0.00000000000E+00 -0.00000000000E+00 -0.21137207801E+04  0.21137207801E+04  0.00000000000E+00 0. -1.
         25    2    1    2    0    0 -0.11678272691E+03 -0.14398997664E+03 -0.14071636325E+03  0.26419066870E+03  0.12499718343E+03 0.  0.
          2    1    1    2  501    0  0.77462716827E+01 -0.47559571379E+02 -0.18719069066E+04  0.18725270050E+04  0.00000000000E+00 0. -1.
          1    1    1    2  502    0  0.10903645523E+03  0.19154954802E+03  0.27195989942E+03  0.35006051593E+03  0.00000000000E+00 0. -1.
         22    1    3    3    0    0 -0.92211996493E+02 -0.16713252952E+02 -0.52834814788E+02  0.10758207460E+03  0.00000000000E+00 0.  1.
         22    1    3    3    0    0 -0.24570730420E+02 -0.12727672369E+03 -0.87881548461E+02  0.15660859410E+03  0.00000000000E+00 0.  1.
</event>
<event>
 7    1  0.6235964E-006  0.3195626E+03  0.7818608E-02  0.1275844E+00
          2   -1    0    0  502    0  0.00000000000E+00  0.00000000000E+00  0.26035981669E+03  0.26035981669E+03  0.00000000000E+00 0. -1.
          1   -1    0    0  501    0 -0.00000000000E+00 -0.00000000000E+00 -0.88975837491E+03  0.88975837491E+03  0.00000000000E+00 0. -1.
         25    2    1    2    0    0 -0.16714719112E+03 -0.29156447198E+03 -0.65598406868E+03  0.74759142961E+03  0.12501928831E+03 0.  0.
          2    1    1    2  501    0  0.32301361209E+02  0.47669017989E+01 -0.64916096474E+02  0.72664990677E+02  0.00000000000E+00 0. -1.
          1    1    1    2  502    0  0.13484582991E+03  0.28679757018E+03  0.91501606927E+02  0.32986177131E+03  0.00000000000E+00 0. -1.
         22    1    3    3    0    0 -0.29959787021E+02 -0.17581891831E+03 -0.35082735774E+03  0.39356030772E+03  0.00000000000E+00 0. -1.
         22    1    3    3    0    0 -0.13718740410E+03 -0.11574555367E+03 -0.30515671093E+03  0.35403112189E+03  0.00000000000E+00 0. -1.
</event>
<event>
 7    1  0.6235964E-006  0.8539848E+02  0.7818608E-02  0.1404755E+00
          2   -1    0    0  502    0  0.00000000000E+00  0.00000000000E+00  0.10602632831E+04  0.10602632831E+04  0.00000000000E+00 0. -1.
          1   -1    0    0  501    0 -0.00000000000E+00 -0.00000000000E+00 -0.74210540013E+03  0.74210540013E+03  0.00000000000E+00 0. -1.
         25    2    1    2    0    0  0.72721061825E+02  0.86730731035E+02  0.68631924097E+03  0.70673199158E+03  0.12500173943E+03 0.  0.
          2    1    1    2  501    0 -0.32252106806E+02 -0.23509081983E+02 -0.72747341715E+03  0.72856739427E+03  0.00000000000E+00 0. -1.
          1    1    1    2  502    0 -0.40468955019E+02 -0.63221649052E+02  0.35931205920E+03  0.36706929743E+03  0.00000000000E+00 0. -1.
         22    1    3    3    0    0  0.10551704729E+03  0.82201471859E+02  0.58675571743E+03  0.60180827610E+03  0.00000000000E+00 0.  1.
         22    1    3    3    0    0 -0.32795985462E+02  0.45292591754E+01  0.99563523541E+02  0.10492371548E+03  0.00000000000E+00 0.  1.
</event>
<event>
 7    1  0.6235964E-006  0.1014400E+03  0.7818608E-02  0.1326751E+00
          2   -1    0    0  502    0  0.00000000000E+00  0.00000000000E+00  0.10618132634E+04  0.10618132634E+04  0.00000000000E+00 0. -1.
          1   -1    0    0  501    0 -0.00000000000E+00 -0.00000000000E+00 -0.92015846429E+03  0.92015846429E+03  0.00000000000E+00 0. -1.
         25    2    1    2    0    0  0.22636460744E+02 -0.95057905953E+02 -0.31301956344E+02  0.16171862511E+03  0.12499874558E+03 0.  0.
          2    1    1    2  501    0 -0.79483626101E+02  0.64826992885E+02 -0.81940770203E+03  0.82580213609E+03  0.00000000000E+00 0. -1.
          1    1    1    2  502    0  0.56847165357E+02  0.30230913068E+02  0.99236445747E+03  0.99445096649E+03  0.00000000000E+00 0. -1.
         22    1    3    3    0    0 -0.42597824743E+02 -0.80293815637E+02 -0.95880423749E+01  0.91398041877E+02  0.00000000000E+00 0.  1.
         22    1    3    3    0    0  0.65234285487E+02 -0.14764090317E+02 -0.21713913969E+02  0.70320583229E+02  0.00000000000E+00 0.  1.
</event>
<event>
 7    1  0.6235964E-006  0.3133496E+02  0.7818608E-02  0.1636347E+00
          2   -1    0    0  502    0  0.00000000000E+00  0.00000000000E+00  0.12008932275E+04  0.12008932275E+04  0.00000000000E+00 0. -1.
          1   -1    0    0  501    0 -0.00000000000E+00 -0.00000000000E+00 -0.83212035453E+01  0.83212035453E+01  0.00000000000E+00 0. -1.
         25    2    1    2    0    0  0.10717068375E+02 -0.18776252605E+00  0.67455154000E+03  0.68611945839E+03  0.12500096102E+03 0.  0.
          2    1    1    2  501    0  0.22592927502E+02 -0.39209967343E+01  0.66764283113E+02  0.70592379817E+02  0.00000000000E+00 0. -1.
          1    1    1    2  502    0 -0.33309995877E+02  0.41087592604E+01  0.45125620081E+03  0.45250259281E+03  0.00000000000E+00 0. -1.
         22    1    3    3    0    0 -0.36781826892E+02  0.37808013321E+02  0.46306251052E+03  0.46605711808E+03  0.00000000000E+00 0.  1.
         22    1    3    3    0    0  0.47498895267E+02 -0.37995775847E+02  0.21148902947E+03  0.22006234031E+03  0.00000000000E+00 0.  1.
</event>
<event>
 7    1  0.6235964E-006  0.3384040E+02  0.7818608E-02  0.1639227E+00
          2   -1    0    0  502    0  0.00000000000E+00  0.00000000000E+00  0.45743281322E+03  0.45743281322E+03  0.00000000000E+00 0. -1.
          1   -1    0    0  501    0 -0.00000000000E+00 -0.00000000000E+00 -0.23008935759E+03  0.23008935759E+03  0.00000000000E+00 0. -1.
         25    2    1    2    0    0  0.18785522105E+02 -0.30363266444E+02 -0.10145620664E+03  0.16489952411E+03  0.12499466947E+03 0.  0.
          2    1    1    2  501    0 -0.31360025262E+02  0.13687832683E+02 -0.93625140351E+02  0.99681868230E+02  0.00000000000E+00 0. -1.
          1    1    1    2  502    0  0.12574503158E+02  0.16675433761E+02  0.42242480262E+03  0.42294077846E+03  0.00000000000E+00 0. -1.
         22    1    3    3    0    0  0.57558141665E+01 -0.43733136224E+02 -0.12632406692E+03  0.13380391057E+03  0.00000000000E+00 0.  1.
         22    1    3    3    0    0  0.13029707938E+02  0.13369869780E+02  0.24867860278E+02  0.31095613544E+02  0.00000000000E+00 0.  1.
</event>
<event>
 7    1  0.6235964E-006  0.1248262E+03  0.7818608E-02  0.1403641E+00
          2   -1    0    0  502    0  0.00000000000E+00  0.00000000000E+00  0.18378120717E+04  0.18378120717E+04  0.00000000000E+00 0. -1.
          1   -1    0    0  501    0 -0.00000000000E+00 -0.00000000000E+00 -0.11431739201E+04  0.11431739201E+04  0.00000000000E+00 0. -1.
         25    2    1    2    0    0  0.12490629829E+03 -0.13664793319E+02  0.64078819660E+02  0.18846569185E+03  0.12499964777E+03 0.  0.
          2    1    1    2  501    0 -0.77541330113E+00  0.27534052968E+02 -0.10785256360E+04  0.10788773206E+04  0.00000000000E+00 0. -1.
          1    1    1    2  502    0 -0.12413088499E+03 -0.13869259649E+02  0.17090849679E+04  0.17136429793E+04  0.00000000000E+00 0. -1.
         22    1    3    3    0    0  0.46703587689E+02  0.38642078087E+02 -0.18399817518E+02  0.63348153774E+02  0.00000000000E+00 0. -1.
         22    1    3    3    0    0  0.78202710606E+02 -0.52306871406E+02  0.82478637178E+02  0.12511753807E+03  0.00000000000E+00 0. -1.
</event>
<event>
 7    1  0.6235964E-006  0.1640032E+03  0.7818608E-02  0.1293345E+00
          2   -1    0    0  502    0  0.00000000000E+00  0.00000000000E+00  0.16087962860E+04  0.16087962860E+04  0.00000000000E+00 0. -1.
          1   -1    0    0  501    0 -0.00000000000E+00 -0.00000000000E+00 -0.76523551485E+03  0.76523551485E+03  0.00000000000E+00 0. -1.
         25    2    1    2    0    0 -0.48278064373E+02 -0.20302287451E+03  0.25574972163E+03  0.35296324445E+03  0.12500429092E+03 0.  0.
          2    1    1    2  501    0  0.13049246230E+02  0.16219352872E+03 -0.70682352783E+03  0.72531132838E+03  0.00000000000E+00 0. -1.
          1    1    1    2  502    0  0.35228818143E+02  0.40829345792E+02  0.12946345774E+04  0.12957572280E+04  0.00000000000E+00 0. -1.
         22    1    3    3    0    0 -0.84843819818E+02 -0.93361413428E+02  0.15299373677E+03  0.19829753092E+03  0.00000000000E+00 0.  1.
         22    1    3    3    0    0  0.36565755445E+02 -0.10966146108E+03  0.10275598486E+03  0.15466571353E+03  0.00000000000E+00 0.  1.
</event>
<event>
 7    1  0.6235964E-006  0.1072598E+03  0.7818608E-02  0.1300790E+00
          2   -1    0    0  502    0  0.00000000000E+00  0.00000000000E+00  0.61706347416E+03  0.61706347416E+03  0.00000000000E+00 0. -1.
          1   -1    0    0  501    0 -0.00000000000E+00 -0.00000000000E+00 -0.22957441791E+03  0.22957441791E+03  0.00000000000E+00 0. -1.
         25    2    1    2    0    0 -0.38874548198E+01  0.16378939460E+03  0.75227749873E+02  0.21937666058E+03  0.12499930708E+03 0.  0.
          2    1    1    2  501    0 -0.33060247715E+02 -0.96276099621E+02 -0.13743448746E+03  0.17102720743E+03  0.00000000000E+00 0. -1.
          1    1    1    2  502    0  0.36947702535E+02 -0.67513294979E+02  0.44969579383E+03  0.45623402406E+03  0.00000000000E+00 0. -1.
         22    1    3    3    0    0  0.45706066353E+02  0.14061276194E+03  0.72225605940E+02  0.16455251889E+03  0.00000000000E+00 0.  1.
         22    1    3    3    0    0 -0.49593521172E+02  0.23176632662E+02  0.30021439326E+01  0.54824141690E+02  0.00000000000E+00 0.  1.
</event>
<event>
 7    1  0.6235964E-006  0.1001852E+03  0.7818608E-02  0.1297465E+00
          2   -1    0    0  502    0  0.00000000000E+00  0.00000000000E+00  0.99213311791E+03  0.99213311791E+03  0.00000000000E+00 0. -1.
          1   -1    0    0  501    0 -0.00000000000E+00 -0.00000000000E+00 -0.35481443935E+03  0.35481443935E+03  0.00000000000E+00 0. -1.
         25    2    1    2    0    0  0.13091209437E+03  0.10269673671E+03  0.20258657120E+03  0.29043458201E+03  0.12500532554E+03 0.  0.
          2    1    1    2  501    0 -0.38542312324E+02 -0.75720354107E+02 -0.30189687324E+03  0.31362526037E+03  0.00000000000E+00 0. -1.
          1    1    1    2  502    0 -0.92369782048E+02 -0.26976382599E+02  0.73662898060E+03  0.74288771488E+03  0.00000000000E+00 0. -1.
         22    1    3    3    0    0  0.87870638460E+02 -0.12932018079E+00  0.13173604562E+03  0.15835293348E+03  0.00000000000E+00 0. -1.
         22    1    3    3    0    0  0.43041455913E+02  0.10282605689E+03  0.70850525581E+02  0.13208164852E+03  0.00000000000E+00 0. -1.
</event>
<event>
 7    1  0.6235964E-006  0.7390727E+02  0.7818608E-02  0.1360844E+00
          2   -1    0    0  502    0  0.00000000000E+00  0.00000000000E+00  0.73845128612E+03  0.73845128612E+03  0.00000000000E+00 0. -1.
          1   -1    0    0  501    0 -0.00000000000E+00 -0.00000000000E+00 -0.11593876869E+03  0.11593876869E+03  0.00000000000E+00 0. -1.
         25    2    1    2    0    0  0.10852123184E+03 -0.19332392623E+02  0.13099655520E+02  0.16717501329E+03  0.12500113971E+03 0.  0.
          2    1    1    2  501    0 -0.60662944050E+02 -0.25945675498E+02 -0.78520533803E+01  0.66444153995E+02  0.00000000000E+00 0. -1.
          1    1    1    2  502    0 -0.47858287787E+02  0.45278068122E+02  0.61726491528E+03  0.62077088753E+03  0.00000000000E+00 0. -1.
         22    1    3    3    0    0  0.12504158399E+03 -0.27512760495E+02  0.40380539857E+02  0.13424953525E+03  0.00000000000E+00 0. -1.
         22    1    3    3    0    0 -0.16520352151E+02  0.81803678716E+01 -0.27280884337E+02  0.32925478036E+02  0.00000000000E+00 0. -1.
</event>
<event>
 7    1  0.6235964E-006  0.4814318E+02  0.7818608E-02  0.1509232E+00
          2   -1    0    0  502    0  0.00000000000E+00  0.00000000000E+00  0.28036038182E+03  0.28036038182E+03  0.00000000000E+00 0. -1.
          1   -1    0    0  501    0 -0.00000000000E+00 -0.00000000000E+00 -0.32172987153E+03  0.32172987153E+03  0.00000000000E+00 0. -1.
         25    2    1    2    0    0  0.36289735788E+02  0.34680169799E+02 -0.19789084055E+03  0.23939314120E+03  0.12501452789E+03 0.  0.
          2    1    1    2  501    0 -0.49857041225E+02 -0.45930236140E+01 -0.95870111072E+02  0.10815682421E+03  0.00000000000E+00 0. -1.
          1    1    1    2  502    0  0.13567305436E+02 -0.30087146185E+02  0.25239146190E+03  0.25454028794E+03  0.00000000000E+00 0. -1.
         22    1    3    3    0    0  0.25076111604E+02  0.75507491158E+02 -0.17265115279E+03  0.19010158640E+03  0.00000000000E+00 0.  1.
         22    1    3    3    0    0  0.11213624184E+02 -0.40827321359E+02 -0.25239687760E+02  0.49291554803E+02  0.00000000000E+00 0.  1.
</event>
<event>
 7    1  0.6235964E-006  0.8958623E+02  0.7818608E-02  0.1355821E+00
          2   -1    0    0  502    0  0.00000000000E+00  0.00000000000E+00  0.10493335519E+04  0.10493335519E+04  0.00000000000E+00 0. -1.
          1   -1    0    0  501    0 -0.00000000000E+00 -0.00000000000E+00 -0.12103025155E+04  0.12103025155E+04  0.00000000000E+00 0. -1.
         25    2    1    2    0    0 -0.67780862976E+02 -0.24383720016E+02  0.44859032739E+03  0.47121854811E+03  0.12499930828E+03 0.  0.
          2    1    1    2  501    0 -0.29012885276E+02  0.48716335224E+02 -0.11940859460E+04  0.11954314181E+04  0.00000000000E+00 0. -1.
          1    1    1    2  502    0  0.96793748251E+02 -0.24332615208E+02  0.58452665502E+03  0.59298610127E+03  0.00000000000E+00 0. -1.
         22    1    3    3    0    0  0.24663579748E+02  0.25923976036E+02  0.75201074374E+02  0.83279927272E+02  0.00000000000E+00 0. -1.
         22    1    3    3    0    0 -0.92444442723E+02 -0.50307696052E+02  0.37338925301E+03  0.38793862084E+03  0.00000000000E+00 0. -1.
</event>
<event>
 7    1  0.6235964E-006  0.8672649E+02  0.7818608E-02  0.1391541E+00
          2   -1    0    0  502    0  0.00000000000E+00  0.00000000000E+00  0.78584009872E+03  0.78584009872E+03  0.00000000000E+00 0. -1.
          1   -1    0    0  501    0 -0.00000000000E+00 -0.00000000000E+00 -0.76647057615E+02  0.76647057615E+02  0.00000000000E+00 0. -1.
         25    2    1    2    0    0 -0.75044154204E+02 -0.54598038614E+02  0.17556056618E+03  0.23464146932E+03  0.12499014291E+03 0.  0.
          2    1    1    2  501    0  0.36692661799E+02 -0.23636556372E+02 -0.32896764638E+02  0.54655606764E+02  0.00000000000E+00 0. -1.
          1    1    1    2  502    0  0.38351492405E+02  0.78234594986E+02  0.56652923956E+03  0.57319008025E+03  0.00000000000E+00 0. -1.
         22    1    3    3    0    0 -0.85383821192E+02  0.13647160707E+02  0.91927344992E+02  0.12620332275E+03  0.00000000000E+00 0. -1.
         22    1    3    3    0    0  0.10339666987E+02 -0.68245199321E+02  0.83633221189E+02  0.10843814656E+03  0.00000000000E+00 0. -1.
</event>
<event>
 7    1  0.6235964E-006  0.6841207E+02  0.7818608E-02  0.1382654E+00
          2   -1    0    0  502    0  0.00000000000E+00  0.00000000000E+00  0.17382825450E+03  0.17382825450E+03  0.00000000000E+00 0. -1.
          1   -1    0    0  501    0 -0.00000000000E+00 -0.00000000000E+00 -0.11255333579E+03  0.11255333579E+03  0.00000000000E+00 0. -1.
         25    2    1    2    0    0  0.17514643600E+02 -0.66858525246E+02  0.45861692351E+02  0.15001706984E+03  0.12500000511E+03 0.  0.
          2    1    1    2  501    0  0.41818773563E+02  0.63216101697E+02  0.12738037506E+02  0.76859241056E+02  0.00000000000E+00 0. -1.
          1    1    1    2  502    0 -0.59333417164E+02  0.36424235489E+01  0.26751888557E+01  0.59505279405E+02  0.00000000000E+00 0. -1.
         22    1    3    3    0    0  0.27907142777E+02 -0.23123901186E+01 -0.35773226601E+02  0.45429940651E+02  0.00000000000E+00 0. -1.
         22    1    3    3    0    0 -0.10392499177E+02 -0.64546135128E+02  0.81634918952E+02  0.10458712919E+03  0.00000000000E+00 0. -1.
</event>
<event>
 7    1  0.6235964E-006  0.2524956E+03  0.7818608E-02  0.1120165E+00
          2   -1    0    0  502    0  0.00000000000E+00  0.00000000000E+00  0.10804684379E+04  0.10804684379E+04  0.00000000000E+00 0. -1.
          1   -1    0    0  501    0 -0.00000000000E+00 -0.00000000000E+00 -0.89085774628E+03  0.89085774628E+03  0.00000000000E+00 0. -1.
         25    2    1    2    0    0 -0.79956877865E+01 -0.54019650095E+02 -0.10644365618E+03  0.17302631355E+03  0.12500319844E+03 0.  0.
          2    1    1    2  501    0  0.36308365255E+02 -0.22414322939E+03 -0.71453465996E+03  0.74974546677E+03  0.00000000000E+00 0. -1.
          1    1    1    2  502    0 -0.28312677468E+02  0.27816287949E+03  0.10105890077E+04  0.10485544038E+04  0.00000000000E+00 0. -1.
         22    1    3    3    0    0  0.35240696424E+02  0.78346830786E+01  0.70000992109E+01  0.36773500409E+02  0.00000000000E+00 0.  1.
         22    1    3    3    0    0 -0.43236384211E+02 -0.61854333174E+02 -0.11344375539E+03  0.13625281314E+03  0.00000000000E+00 0.  1.
</event>
<event>
 7    1  0.6235964E-006  0.8445867E+02  0.7818608E-02  0.1374872E+00
          2   -1    0    0  502    0  0.00000000000E+00  0.00000000000E+00  0.59805137121E+03  0.59805137121E+03  0.00000000000E+00 0. -1.
          1   -1    0    0  501    0 -0.00000000000E+00 -0.00000000000E+00 -0.32497282926E+03  0.32497282926E+03  0.00000000000E+00 0. -1.
         25    2    1    2    0    0  0.71717133129E+01  0.64808034040E+02  0.26503482165E+03  0.30019971735E+03  0.12499959545E+03 0.  0.
          2    1    1    2  501    0  0.43446918290E+02 -0.73214195529E+02 -0.29932781076E+03  0.31119943996E+03  0.00000000000E+00 0. -1.
          1    1    1    2  502    0 -0.50618631603E+02  0.84061614886E+01  0.30737153106E+03  0.31162504316E+03  0.00000000000E+00 0. -1.
         22    1    3    3    0    0  0.30263908394E+01 -0.27944054025E+01 -0.13206337765E+02  0.13833838955E+02  0.00000000000E+00 0. -1.
         22    1    3    3    0    0  0.41453224735E+01  0.67602439443E+02  0.27824115941E+03  0.28636587839E+03  0.00000000000E+00 0. -1.
</event>
<event>
 7    1  0.6235964E-006  0.4282770E+02  0.7818608E-02  0.1489560E+00
          2   -1    0    0  502    0  0.00000000000E+00  0.00000000000E+00  0.11156265429E+04  0.11156265429E+04  0.00000000000E+00 0. -1.
          1   -1    0    0  501    0 -0.00000000000E+00 -0.00000000000E+00 -0.23209357976E+02  0.23209357976E+02  0.00000000000E+00 0. -1.
         25    2    1    2    0    0  0.19884126651E+01  0.27819883623E+02  0.30931450941E+03  0.33476550749E+03  0.12495831128E+03 0.  0.
          2    1    1    2  501    0  0.40720224502E+02 -0.24628655428E+02  0.47554971149E+02  0.67276910101E+02  0.00000000000E+00 0. -1.
          1    1    1    2  502    0 -0.42708637168E+02 -0.31912281948E+01  0.73554770439E+03  0.73679348332E+03  0.00000000000E+00 0. -1.
         22    1    3    3    0    0  0.27138075607E+02 -0.17733797328E+02  0.14708095544E+02  0.35599027934E+02  0.00000000000E+00 0.  1.
         22    1    3    3    0    0 -0.25149662942E+02  0.45553680951E+02  0.29460641387E+03  0.29916647955E+03  0.00000000000E+00 0.  1.
</event>
<event>
 7    1  0.6235964E-006  0.5542950E+02  0.7818608E-02  0.1521262E+00
          2   -1    0    0  502    0  0.00000000000E+00  0.00000000000E+00  0.19985306118E+04  0.19985306118E+04  0.00000000000E+00 0. -1.
          1   -1    0    0  501    0 -0.00000000000E+00 -0.00000000000E+00 -0.14938010310E+03  0.14938010310E+03  0.00000000000E+00 0. -1.
         25    2    1    2    0    0 -0.13807618876E+02  0.26831342925E+02  0.71466314549E+03  0.72614036144E+03  0.12500336672E+03 0.  0.
          2    1    1    2  501    0  0.16439954920E+02 -0.53136816197E+02 -0.13811448535E+03  0.14889393680E+03  0.00000000000E+00 0. -1.
          1    1    1    2  502    0 -0.26323360432E+01  0.26305473272E+02  0.12726018486E+04  0.12728764167E+04  0.00000000000E+00 0. -1.
         22    1    3    3    0    0  0.37061684931E+02 -0.84241812486E+01  0.81132244537E+02  0.89593394975E+02  0.00000000000E+00 0.  1.
         22    1    3    3    0    0 -0.50869303807E+02  0.35255524174E+02  0.63353090095E+03  0.63654696647E+03  0.00000000000E+00 0.  1.
</event>
<event>
 7    1  0.6235964E-006  0.2070498E+03  0.7818608E-02  0.1276100E+00
          2   -1    0    0  502    0  0.00000000000E+00  0.00000000000E+00  0.49233830803E+03  0.49233830803E+03  0.00000000000E+00 0. -1.
          1   -1    0    0  501    0 -0.00000000000E+00 -0.00000000000E+00 -0.18566376517E+04  0.18566376517E+04  0.00000000000E+00 0. -1.
         25    2    1    2    0    0  0.49281736977E+02 -0.17719200445E+03  0.25975068192E+03  0.34194582978E+03  0.12502334863E+03 0.  0.
          2    1    1    2  501    0 -0.99290492571E+02  0.18231496566E+03 -0.18061894110E+04  0.18180807290E+04  0.00000000000E+00 0. -1.
          1    1    1    2  502    0  0.50008755594E+02 -0.51229612057E+01  0.18213938547E+03  0.18894940092E+03  0.00000000000E+00 0. -1.
         22    1    3    3    0    0  0.79613994266E+02 -0.15102237385E+03  0.24630797978E+03  0.29968944992E+03  0.00000000000E+00 0. -1.
         22    1    3    3    0    0 -0.30332257289E+02 -0.26169630599E+02  0.13442702138E+02  0.42256379859E+02  0.00000000000E+00 0. -1.
</event>
<event>
 7    1  0.6235964E-006  0.5018073E+02  0.7818608E-02  0.1538556E+00
          2   -1    0    0  502    0  0.00000000000E+00  0.00000000000E+00  0.30947135223E+04  0.30947135223E+04  0.00000000000E+00 0. -1.
          1   -1    0    0  501    0 -0.00000000000E+00 -0.00000000000E+00 -0.95965425008E+03  0.95965425008E+03  0.00000000000E+00 0. -1.
         25    2    1    2    0    0  0.26219862845E+02 -0.62628147550E+02  0.25118795196E+03  0.28867008185E+03  0.12500105149E+03 0.  0.
          2    1    1    2  501    0 -0.22727219063E+02  0.12737035122E+02 -0.94051141008E+03  0.94087218635E+03  0.00000000000E+00 0. -1.
          1    1    1    2  502    0 -0.34926437824E+01  0.49891112428E+02  0.28243827303E+04  0.28248255042E+04  0.00000000000E+00 0. -1.
         22    1    3    3    0    0  0.43354494446E+01 -0.57962022906E+02  0.28274225200E+02  0.64636089237E+02  0.00000000000E+00 0. -1.
         22    1    3    3    0    0  0.21884413401E+02 -0.46661246442E+01  0.22291372676E+03  0.22403399261E+03  0.00000000000E+00 0. -1.
</event>
<event>
 7    1  0.6235964E-006  0.5229875E+02  0.7818608E-02  0.1534420E+00
          2   -1    0    0  502    0  0.00000000000E+00  0.00000000000E+00  0.32501689444E+03  0.32501689444E+03  0.00000000000E+00 0. -1.
          1   -1    0    0  501    0 -0.00000000000E+00 -0.00000000000E+00 -0.26242262868E+03  0.26242262868E+03  0.00000000000E+00 0. -1.
         25    2    1    2    0    0  0.69068934253E+02  0.78590450989E+01  0.24623748808E+03  0.28476328363E+03  0.12499977959E+03 0.  0.
          2    1    1    2  501    0 -0.25533435411E+02  0.27705859639E+01 -0.23392003469E+03  0.23532576378E+03  0.00000000000E+00 0. -1.
          1    1    1    2  502    0 -0.43535498842E+02 -0.10629631063E+02  0.50276812375E+02  0.67350475711E+02  0.00000000000E+00 0. -1.
         22    1    3    3    0    0 -0.16349043825E+02  0.34972608463E+02  0.24816285055E+02  0.45893600651E+02  0.00000000000E+00 0.  1.
         22    1    3    3    0    0  0.85417978078E+02 -0.27113563364E+02  0.22142120302E+03  0.23886968297E+03  0.00000000000E+00 0.  1.
</event>
<event>
 7    1  0.6235964E-006  0.1101312E+03  0.7818608E-02  0.1348366E+00
          2   -1    0    0  502    0  0.00000000000E+00  0.00000000000E+00  0.63329233210E+02  0.63329233210E+02  0.00000000000E+00 0. -1.
          1   -1    0    0  501    0 -0.00000000000E+00 -0.00000000000E+00 -0.25495280836E+04  0.25495280836E+04  0.00000000000E+00 0. -1.
         25    2    1    2    0    0 -0.86206024256E+02  0.56108192342E+02 -0.13831157198E+04  0.13925579828E+04  0.12501613174E+03 0.  0.
          2    1    1    2  501    0  0.29665016262E+02  0.39178780208E+02 -0.11082887995E+04  0.11093777774E+04  0.00000000000E+00 0. -1.
          1    1    1    2  502    0  0.56541007993E+02 -0.95286972550E+02  0.52056689145E+01  0.11092155657E+03  0.00000000000E+00 0. -1.
         22    1    3    3    0    0  0.10689480469E+02 -0.26129250032E+02 -0.44188498613E+03  0.44278588920E+03  0.00000000000E+00 0. -1.
         22    1    3    3    0    0 -0.96895504724E+02  0.82237442374E+02 -0.94123073367E+03  0.94977209359E+03  0.00000000000E+00 0. -1.
</event>
<event>
 7    1  0.6235964E-006  0.1344728E+03  0.7818608E-02  0.1236463E+00
          2   -1    0    0  502    0  0.00000000000E+00  0.00000000000E+00  0.19489284505E+04  0.19489284505E+04  0.00000000000E+00 0. -1.
          1   -1    0    0  501    0 -0.00000000000E+00 -0.00000000000E+00 -0.11740098377E+03  0.11740098377E+03  0.00000000000E+00 0. -1.
         25    2    1    2    0    0 -0.39692922201E+01 -0.74539872626E+01  0.20706764523E+03  0.24201759523E+03  0.12499675794E+03 0.  0.
          2    1    1    2  501    0 -0.68330285138E+02  0.12083697367E+03 -0.47676153839E+02  0.14677744281E+03  0.00000000000E+00 0. -1.
          1    1    1    2  502    0  0.72299577358E+02 -0.11338298641E+03  0.16721359754E+04  0.16775343962E+04  0.00000000000E+00 0. -1.
         22    1    3    3    0    0  0.34593106546E+02  0.44491427831E+02  0.12798514638E+03  0.13984408412E+03  0.00000000000E+00 0. -1.
         22    1    3    3    0    0 -0.38562398766E+02 -0.51945415094E+02  0.79082498855E+02  0.10217351111E+03  0.00000000000E+00 0. -1.
</event>
<event>
 7    1  0.6235964E-006  0.1153072E+03  0.7818608E-02  0.1396813E+00
          2   -1    0    0  502    0  0.00000000000E+00  0.00000000000E+00  0.14365460298E+03  0.14365460298E+03  0.00000000000E+00 0. -1.
          1   -1    0    0  501    0 -0.00000000000E+00 -0.00000000000E+00 -0.20821700869E+04  0.20821700869E+04  0.00000000000E+00 0. -1.
         25    2    1    2    0    0  0.40385150190E+02  0.91894625946E+02 -0.53125419497E+02  0.16888652685E+03  0.12499906448E+03 0.  0.
          2    1    1    2  501    0  0.30689312479E+02  0.69882603375E+01 -0.19277485217E+04  0.19280054545E+04  0.00000000000E+00 0. -1.
          1    1    1    2  502    0 -0.71074462669E+02 -0.98882886283E+02  0.42358457231E+02  0.12893270858E+03  0.00000000000E+00 0. -1.
         22    1    3    3    0    0  0.74833417207E+02  0.20050113252E+02 -0.42897422967E+02  0.88556401629E+02  0.00000000000E+00 0.  1.
         22    1    3    3    0    0 -0.34448267017E+02  0.71844512693E+02 -0.10227996530E+02  0.80330125218E+02  0.00000000000E+00 0.  1.
</event>
<event>
 7    1  0.6235964E-006  0.5665590E+02  0.7818608E-02  0.1441954E+00
          2   -1    0    0  502    0  0.00000000000E+00  0.00000000000E+00  0.63122421107E+02  0.63122421107E+02  0.00000000000E+00 0. -1.
          1   -1    0    0  501    0 -0.00000000000E+00 -0.00000000000E+00 -0.72472441470E+03  0.72472441470E+03  0.00000000000E+00 0. -1.
         25    2    1    2    0    0 -0.33067491286E+02 -0.53409213044E+02 -0.25671666063E+03  0.29235992220E+03  0.12499950898E+03 0.  0.
          2    1    1    2  501    0  0.45173125211E+02 -0.26583890981E+01 -0.43035451922E+03  0.43272703924E+03  0.00000000000E+00 0. -1.
          1    1    1    2  502    0 -0.12105633925E+02  0.56067602142E+02  0.25469186256E+02  0.62759874373E+02  0.00000000000E+00 0. -1.
         22    1    3    3    0    0 -0.62134951604E+02 -0.39561734027E+02 -0.24842006623E+03  0.25911081088E+03  0.00000000000E+00 0.  1.
         22    1    3    3    0    0  0.29067460317E+02 -0.13847479017E+02 -0.82965943945E+01  0.33249111311E+02  0.00000000000E+00 0.  1.
</event>
<event>
 7    1  0.6235964E-006  0.7804319E+02  0.7818608E-02  0.1415113E+00
          2   -1    0    0  502    0  0.00000000000E+00  0.00000000000E+00  0.33514683513E+03  0.33514683513E+03  0.00000000000E+00 0. -1.
          1   -1    0    0  501    0 -0.00000000000E+00 -0.00000000000E+00 -0.87419672800E+03  0.87419672800E+03  0.00000000000E+00 0. -1.
         25    2    1    2    0    0  0.34781927473E+02  0.29775954092E+02 -0.30147715159E+03  0.32955881229E+03  0.12499659159E+03 0.  0.
          2    1    1    2  501    0 -0.69962664905E+02 -0.49394220245E+02 -0.55411279335E+03  0.56069202887E+03  0.00000000000E+00 0. -1.
          1    1    1    2  502    0  0.35180737432E+02  0.19618266153E+02  0.31654005207E+03  0.31909272198E+03  0.00000000000E+00 0. -1.
         22    1    3    3    0    0  0.53219359531E+02  0.13451308398E+02 -0.42523641631E+02  0.69437007597E+02  0.00000000000E+00 0. -1.
         22    1    3    3    0    0 -0.18437432058E+02  0.16324645693E+02 -0.25895350996E+03  0.26012180469E+03  0.00000000000E+00 0. -1.
</event>
<event>
 7    1  0.6235964E-006  0.9023496E+02  0.7818608E-02  0.1381665E+00
          2   -1    0    0  502    0  0.00000000000E+00  0.00000000000E+00  0.42724772616E+03  0.42724772616E+03  0.00000000000E+00 0. -1.
          1   -1    0    0  501    0 -0.00000000000E+00 -0.00000000000E+00 -0.22978504648E+03  0.22978504648E+03  0.00000000000E+00 0. -1.
         25    2    1    2    0    0 -0.84476366720E+01  0.61704047239E+02  0.59418440516E+02  0.15176113807E+03  0.12498855925E+03 0.  0.
          2    1    1    2  501    0  0.34076160347E+02  0.30048729896E+02 -0.17357164292E+03  0.17941913526E+03  0.00000000000E+00 0. -1.
          1    1    1    2  502    0 -0.25628523675E+02 -0.91752777135E+02  0.31161588209E+03  0.32585249931E+03  0.00000000000E+00 0. -1.
         22    1    3    3    0    0 -0.49261051880E+02  0.49032599401E+01  0.64874789262E+02  0.81605339728E+02  0.00000000000E+00 0. -1.
         22    1    3    3    0    0  0.40813415208E+02  0.56800787299E+02 -0.54563487460E+01  0.70155798338E+02  0.00000000000E+00 0. -1.
</event>
<event>
 7    1  0.6235964E-006  0.4434043E+02  0.7818608E-02  0.1506957E+00
          2   -1    0    0  502    0  0.00000000000E+00  0.00000000000E+00  0.26639415419E+03  0.26639415419E+03  0.00000000000E+00 0. -1.
          1   -1    0    0  501    0 -0.00000000000E+00 -0.00000000000E+00 -0.95922416465E+03  0.95922416465E+03  0.00000000000E+00 0. -1.
         25    2    1    2    0    0  0.68972433072E+01 -0.67321019977E+01 -0.33367359308E+03  0.35644656224E+03  0.12499276718E+03 0.  0.
          2    1    1    2  501    0  0.36022494994E+02 -0.51839179305E+01 -0.61167395826E+03  0.61275568081E+03  0.00000000000E+00 0. -1.
          1    1    1    2  502    0 -0.42919738302E+02  0.11916019928E+02  0.25251754089E+03  0.25641607579E+03  0.00000000000E+00 0. -1.
         22    1    3    3    0    0  0.42827185748E+00 -0.60770443019E+02 -0.10437991986E+03  0.12078244008E+03  0.00000000000E+00 0.  1.
         22    1    3    3    0    0  0.64689714497E+01  0.54038341022E+02 -0.22929367323E+03  0.23566412216E+03  0.00000000000E+00 0.  1.
</event>
<event>
 7    1  0.6235964E-006  0.1032307E+03  0.7818608E-02  0.1383017E+00
          2   -1    0    0  502    0  0.00000000000E+00  0.00000000000E+00  0.24382288123E+03  0.24382288123E+03  0.00000000000E+00 0. -1.
          1   -1    0    0  501    0 -0.00000000000E+00 -0.00000000000E+00 -0.12203667084E+04  0.12203667084E+04  0.00000000000E+00 0. -1.
         25    2    1    2    0    0  0.45931832745E+02  0.10964298230E+03 -0.28478584444E+03  0.33295747065E+03  0.12500553285E+03 0.  0.
          2    1    1    2  501    0 -0.74548164772E+01 -0.10174547166E+03 -0.90685641018E+03  0.91257671676E+03  0.00000000000E+00 0. -1.
          1    1    1    2  502    0 -0.38477016267E+02 -0.78975106430E+01  0.21509842741E+03  0.21865540225E+03  0.00000000000E+00 0. -1.
         22    1    3    3    0    0  0.77056033469E+02  0.96441473799E+02 -0.15136649551E+03  0.19532128948E+03  0.00000000000E+00 0.  1.
         22    1    3    3    0    0 -0.31124200724E+02  0.13201508500E+02 -0.13341934893E+03  0.13763618117E+03  0.00000000000E+00 0.  1.
</event>
<event>
 7    1  0.6235964E-006  0.2628374E+02  0.7818608E-02  0.1656646E+00
          2   -1    0    0  502    0  0.00000000000E+00  0.00000000000E+00  0.97544506231E+03  0.97544506231E+03  0.00000000000E+00 0. -1.
          1   -1    0    0  501    0 -0.00000000000E+00 -0.00000000000E+00 -0.46123367304E+02  0.46123367304E+02  0.00000000000E+00 0. -1.
         25    2    1    2    0    0 -0.24561358915E+02  0.42420685657E+02  0.39404917123E+03  0.41629589539E+03  0.12499899299E+03 0.  0.
          2    1    1    2  501    0  0.76589721550E+01 -0.24872403464E+02 -0.29863134996E+02  0.39611906548E+02  0.00000000000E+00 0. -1.
          1    1    1    2  502    0  0.16902386760E+02 -0.17548282193E+02  0.56513565878E+03  0.56566062768E+03  0.00000000000E+00 0. -1.
         22    1    3    3    0    0 -0.66235513638E+02  0.15241823487E+02  0.12127973424E+03  0.13902600616E+03  0.00000000000E+00 0. -1.
         22    1    3    3    0    0  0.41674154723E+02  0.27178862170E+02  0.27276943698E+03  0.27726988923E+03  0.00000000000E+00 0. -1.
</event>
<event>
 7    1  0.6235964E-006  0.8012441E+02  0.7818608E-02  0.1408913E+00
          2   -1    0    0  502    0  0.00000000000E+00  0.00000000000E+00  0.14709363392E+03  0.14709363392E+03  0.00000000000E+00 0. -1.
          1   -1    0    0  501    0 -0.00000000000E+00 -0.00000000000E+00 -0.17542773011E+04  0.17542773011E+04  0.00000000000E+00 0. -1.
         25    2    1    2    0    0  0.20801979671E+02  0.37647990364E+02 -0.19967391421E+03  0.23946905750E+03  0.12500265577E+03 0.  0.
          2    1    1    2  501    0  0.32588761190E+02  0.25164203459E+02 -0.15210406919E+04  0.15215978611E+04  0.00000000000E+00 0. -1.
          1    1    1    2  502    0 -0.53390740861E+02 -0.62812193823E+02  0.11353093898E+03  0.14030401636E+03  0.00000000000E+00 0. -1.
         22    1    3    3    0    0 -0.39038579554E+01  0.37430156526E+01  0.17481264432E+02  0.18298767152E+02  0.00000000000E+00 0. -1.
         22    1    3    3    0    0  0.24705837626E+02  0.33904974711E+02 -0.21715517864E+03  0.22117029035E+03  0.00000000000E+00 0. -1.
</event>
<event>
 7    1  0.6235964E-006  0.2333429E+03  0.7818608E-02  0.1160754E+00
          2   -1    0    0  502    0  0.00000000000E+00  0.00000000000E+00  0.13550595340E+03  0.13550595340E+03  0.00000000000E+00 0. -1.
          1   -1    0    0  501    0 -0.00000000000E+00 -0.00000000000E+00 -0.19078107422E+04  0.19078107422E+04  0.00000000000E+00 0. -1.
         25    2    1    2    0    0 -0.10173336771E+03  0.90847242581E+02 -0.51788051990E+03  0.54993452381E+03  0.12499939198E+03 0.  0.
          2    1    1    2  501    0 -0.15014550388E+03 -0.12082539554E+02 -0.12176427723E+04  0.12269244399E+04  0.00000000000E+00 0. -1.
          1    1    1    2  502    0  0.25187887159E+03 -0.78764703027E+02 -0.36781496523E+02  0.26645773189E+03  0.00000000000E+00 0. -1.
         22    1    3    3    0    0 -0.86789611525E+02  0.60167956912E+02 -0.16828073539E+03  0.19867316278E+03  0.00000000000E+00 0. -1.
         22    1    3    3    0    0 -0.14943756181E+02  0.30679285670E+02 -0.34959978452E+03  0.35126136103E+03  0.00000000000E+00 0. -1.
</event>
<event>
 7    1  0.6235964E-006  0.1243979E+03  0.7818608E-02  0.1286265E+00
          2   -1    0    0  502    0  0.00000000000E+00  0.00000000000E+00  0.33089262975E+03  0.33089262975E+03  0.00000000000E+00 0. -1.
          1   -1    0    0  501    0 -0.00000000000E+00 -0.00000000000E+00 -0.43659995504E+03  0.43659995504E+03  0.00000000000E+00 0. -1.
         25    2    1    2    0    0 -0.11926855092E+03 -0.13419980945E+02  0.14709095132E+03  0.22730092260E+03  0.12499951331E+03 0.  0.
          2    1    1    2  501    0 -0.37466373995E+01  0.75878560648E+02 -0.35845572966E+03  0.36641793540E+03  0.00000000000E+00 0. -1.
          1    1    1    2  502    0  0.12301518832E+03 -0.62458579704E+02  0.10565745305E+03  0.17377372678E+03  0.00000000000E+00 0. -1.
         22    1    3    3    0    0 -0.18728941345E+02  0.97963459990E+01  0.11830123361E+03  0.12017455435E+03  0.00000000000E+00 0. -1.
         22    1    3    3    0    0 -0.10053960957E+03 -0.23216326944E+02  0.28789717713E+02  0.10712636826E+03  0.00000000000E+00 0. -1.
</event>
<event>
 7    1  0.6235964E-006  0.1004623E+03  0.7818608E-02  0.1389004E+00
          2   -1    0    0  502    0  0.00000000000E+00  0.00000000000E+00  0.77508645459E+03  0.77508645459E+03  0.00000000000E+00 0. -1.
          1   -1    0    0  501    0 -0.00000000000E+00 -0.00000000000E+00 -0.11823442550E+04  0.11823442550E+04  0.00000000000E+00 0. -1.
         25    2    1    2    0    0  0.26346925831E+02  0.99014367945E+02  0.33097764653E+03  0.36833178620E+03  0.12499638661E+03 0.  0.
          2    1    1    2  501    0 -0.60082577982E+02 -0.80556635094E+02 -0.11606223970E+04  0.11649650793E+04  0.00000000000E+00 0. -1.
          1    1    1    2  502    0  0.33735652151E+02 -0.18457732851E+02  0.42238695004E+03  0.42413384408E+03  0.00000000000E+00 0. -1.
         22    1    3    3    0    0  0.53014929512E+02  0.11454548454E+03  0.29539153592E+03  0.32122797244E+03  0.00000000000E+00 0.  1.
         22    1    3    3    0    0 -0.26668003681E+02 -0.15531116600E+02  0.35586110603E+02  0.47103813762E+02  0.00000000000E+00 0.  1.
</event>
<event>
 7    1  0.6235964E-006  0.6191910E+02  0.7818608E-02  0.1396762E+00
          2   -1    0    0  502    0  0.00000000000E+00  0.00000000000E+00  0.10257863247E+03  0.10257863247E+03  0.00000000000E+00 0. -1.
          1   -1    0    0  501    0 -0.00000000000E+00 -0.00000000000E+00 -0.35070292153E+03  0.35070292153E+03  0.00000000000E+00 0. -1.
         25    2    1    2    0    0 -0.40484955677E+02 -0.49984973024E+02 -0.25455308950E+03  0.29079241962E+03  0.12500170707E+03 0.  0.
          2    1    1    2  501    0  0.72914764435E+02  0.11324776325E+01 -0.43983409197E+02  0.85160939772E+02  0.00000000000E+00 0. -1.
          1    1    1    2  502    0 -0.32429808758E+02  0.48852495391E+02  0.50412209632E+02  0.77328194612E+02  0.00000000000E+00 0. -1.
         22    1    3    3    0    0 -0.25041245104E+02 -0.51668177720E+02 -0.26559665730E+03  0.27173194312E+03  0.00000000000E+00 0.  1.
         22    1    3    3    0    0 -0.15443710573E+02  0.16832046965E+01  0.11043567802E+02  0.19060476493E+02  0.00000000000E+00 0.  1.
</event>
<event>
 7    1  0.6235964E-006  0.8770805E+02  0.7818608E-02  0.1386587E+00
          2   -1    0    0  502    0  0.00000000000E+00  0.00000000000E+00  0.42874685745E+03  0.42874685745E+03  0.00000000000E+00 0. -1.
          1   -1    0    0  501    0 -0.00000000000E+00 -0.00000000000E+00 -0.41663795343E+03  0.41663795343E+03  0.00000000000E+00 0. -1.
         25    2    1    2    0    0 -0.74999300159E+02  0.11227025037E+02  0.11496144308E+03  0.18598913030E+03  0.12499952832E+03 0.  0.
          2    1    1    2  501    0 -0.11177518641E+02 -0.43500181994E+02 -0.37212906032E+03  0.37482961502E+03  0.00000000000E+00 0. -1.
          1    1    1    2  502    0  0.86176818800E+02  0.32273156956E+02  0.26927652127E+03  0.28456606555E+03  0.00000000000E+00 0. -1.
         22    1    3    3    0    0 -0.98033485848E+00 -0.52497041012E+01 -0.25667977575E+02  0.26217656691E+02  0.00000000000E+00 0. -1.
         22    1    3    3    0    0 -0.74018965301E+02  0.16476729139E+02  0.14062942065E+03  0.15977147361E+03  0.00000000000E+00 0. -1.
</event>
<event>
 7    1  0.6235964E-006  0.1023637E+03  0.7818608E-02  0.1281553E+00
          2   -1    0    0  502    0  0.00000000000E+00  0.00000000000E+00  0.88959694190E+03  0.88959694190E+03  0.00000000000E+00 0. -1.
          1   -1    0    0  501    0 -0.00000000000E+00 -0.00000000000E+00 -0.32907080078E+03  0.32907080078E+03  0.00000000000E+00 0. -1.
         25    2    1    2    0    0  0.30922501312E+02  0.11353089117E+03 -0.89742654241E+02  0.19371399843E+03  0.12500361939E+03 0.  0.
          2    1    1    2  501    0 -0.91641660370E+02 -0.30333376429E+02 -0.17147560373E+03  0.19677954750E+03  0.00000000000E+00 0. -1.
          1    1    1    2  502    0  0.60719159058E+02 -0.83197514741E+02  0.82174439909E+03  0.82817419675E+03  0.00000000000E+00 0. -1.
         22    1    3    3    0    0 -0.81631508950E+01 -0.14363825244E+02  0.16171952408E+02  0.23119008475E+02  0.00000000000E+00 0. -1.
         22    1    3    3    0    0  0.39085652207E+02  0.12789471641E+03 -0.10591460665E+03  0.17059498995E+03  0.00000000000E+00 0. -1.
</event>
<event>
 7    1  0.6235964E-006  0.1003469E+03  0.7818608E-02  0.1295399E+00
          2   -1    0    0  502    0  0.00000000000E+00  0.00000000000E+00  0.41295255917E+03  0.41295255917E+03  0.00000000000E+00 0. -1.
          1   -1    0    0  501    0 -0.00000000000E+00 -0.00000000000E+00 -0.30017269905E+04  0.30017269905E+04  0.00000000000E+00 0. -1.
         25    2    1    2    0    0 -0.19767322191E+02 -0.84420351582E+02  0.22085428440E+03  0.26817187052E+03  0.12498797709E+03 0.  0.
          2    1    1    2  501    0  0.99701808848E+02  0.11360268693E+02 -0.29597237820E+04  0.29614243823E+04  0.00000000000E+00 0. -1.
          1    1    1    2  502    0 -0.79934486658E+02  0.73060082889E+02  0.15009506624E+03  0.18508329686E+03  0.00000000000E+00 0. -1.
         22    1    3    3    0    0  0.25878224358E+02 -0.95628759641E+02  0.11155284006E+03  0.14919309063E+03  0.00000000000E+00 0. -1.
         22    1    3    3    0    0 -0.45645546549E+02  0.11208408059E+02  0.10930144434E+03  0.11897877990E+03  0.00000000000E+00 0. -1.
</event>
<event>
 7    1  0.6235964E-006  0.7783787E+02  0.7818608E-02  0.1464435E+00
          2   -1    0    0  502    0  0.00000000000E+00  0.00000000000E+00  0.24524047537E+04  0.24524047537E+04  0.00000000000E+00 0. -1.
          1   -1    0    0  501    0 -0.00000000000E+00 -0.00000000000E+00 -0.78526246054E+02  0.78526246054E+02  0.00000000000E+00 0. -1.
         25    2    1    2    0    0  0.41892498194E+02 -0.88822186040E+02  0.82264072034E+03  0.83785904204E+03  0.12500262967E+03 0.  0.
          2    1    1    2  501    0  0.28111683610E+01  0.27788558007E+02 -0.67248719056E+02  0.72818245230E+02  0.00000000000E+00 0. -1.
          1    1    1    2  502    0 -0.44703666555E+02  0.61033628033E+02  0.16184865064E+04  0.16202537125E+04  0.00000000000E+00 0. -1.
         22    1    3    3    0    0 -0.18107454956E+02  0.19600443039E+02  0.27905678384E+03  0.28032970927E+03  0.00000000000E+00 0. -1.
         22    1    3    3    0    0  0.59999953150E+02 -0.10842262908E+03  0.54358393650E+03  0.55752933277E+03  0.00000000000E+00 0. -1.
</event>
<event>
 7    1  0.6235964E-006  0.1498678E+03  0.7818608E-02  0.1387747E+00
          2   -1    0    0  502    0  0.00000000000E+00  0.00000000000E+00  0.22264929600E+04  0.22264929600E+04  0.00000000000E+00 0. -1.
          1   -1    0    0  501    0 -0.00000000000E+00 -0.00000000000E+00 -0.83836285345E+02  0.83836285345E+02  0.00000000000E+00 0. -1.
         25    2    1    2    0    0 -0.44001282329E+02 -0.13386013583E+03  0.52253563251E+03  0.55544821359E+03  0.12499832766E+03 0.  0.
          2    1    1    2  501    0  0.70035999605E+02  0.13438964388E+03  0.18069163098E+02  0.15261753594E+03  0.00000000000E+00 0. -1.
          1    1    1    2  502    0 -0.26034717277E+02 -0.52950804555E+00  0.16020518791E+04  0.16022634959E+04  0.00000000000E+00 0. -1.
         22    1    3    3    0    0  0.18416723104E+02 -0.11493465408E+03  0.25888589925E+03  0.28385041700E+03  0.00000000000E+00 0. -1.
         22    1    3    3    0    0 -0.62418005433E+02 -0.18925481747E+02  0.26364973326E+03  0.27159779659E+03  0.00000000000E+00 0. -1.
</event>
<event>
 7    1  0.6235964E-006  0.1206444E+03  0.7818608E-02  0.1334589E+00
          2   -1    0    0  502    0  0.00000000000E+00  0.00000000000E+00  0.13457121147E+04  0.13457121147E+04  0.00000000000E+00 0. -1.
          1   -1    0    0  501    0 -0.00000000000E+00 -0.00000000000E+00 -0.10470170581E+03  0.10470170581E+03  0.00000000000E+00 0. -1.
         25    2    1    2    0    0 -0.13078256172E+03 -0.48557119747E+02  0.21819959549E+02  0.18858150136E+03  0.12499999877E+03 0.  0.
          2    1    1    2  501    0  0.81484489635E+02  0.59661790060E+02  0.10213447151E+03  0.14363391492E+03  0.00000000000E+00 0. -1.
          1    1    1    2  502    0  0.49298072083E+02 -0.11104670313E+02  0.11170559778E+04  0.11181984042E+04  0.00000000000E+00 0. -1.
         22    1    3    3    0    0 -0.14839204199E+03 -0.65665553499E+02  0.14284916990E+02  0.16289942264E+03  0.00000000000E+00 0. -1.
         22    1    3    3    0    0  0.17609480275E+02  0.17108433753E+02  0.75350425587E+01  0.25682078720E+02  0.00000000000E+00 0. -1.
</event>
<event>
 7    1  0.6235964E-006  0.5698981E+02  0.7818608E-02  0.1491108E+00
          2   -1    0    0  502    0  0.00000000000E+00  0.00000000000E+00  0.45506169339E+03  0.45506169339E+03  0.00000000000E+00 0. -1.
          1   -1    0    0  501    0 -0.00000000000E+00 -0.00000000000E+00 -0.82529252806E+03  0.82529252806E+03  0.00000000000E+00 0. -1.
         25    2    1    2    0    0  0.48777179419E+02 -0.72842883515E+02  0.32793968317E+01  0.15271217319E+03  0.12499981794E+03 0.  0.
          2    1    1    2  501    0 -0.18666925271E+02  0.25470131393E+02 -0.74815219836E+03  0.74881833151E+03  0.00000000000E+00 0. -1.
          1    1    1    2  502    0 -0.30110254148E+02  0.47372752121E+02  0.37464196685E+03  0.37882371675E+03  0.00000000000E+00 0. -1.
         22    1    3    3    0    0  0.46477924108E+01 -0.90962834517E+02  0.32573708526E+02  0.96730996712E+02  0.00000000000E+00 0. -1.
         22    1    3    3    0    0  0.44129387008E+02  0.18119951002E+02 -0.29294311695E+02  0.55981176477E+02  0.00000000000E+00 0. -1.
</event>
<event>
 7    1  0.6235964E-006  0.9106485E+02  0.7818608E-02  0.1394116E+00
          2   -1    0    0  502    0  0.00000000000E+00  0.00000000000E+00  0.26564338534E+04  0.26564338534E+04  0.00000000000E+00 0. -1.
          1   -1    0    0  501    0 -0.00000000000E+00 -0.00000000000E+00 -0.33624081315E+03  0.33624081315E+03  0.00000000000E+00 0. -1.
         25    2    1    2    0    0 -0.45893947953E+01  0.58603144620E+02  0.69204404076E+03  0.70569526378E+03  0.12500183948E+03 0.  0.
          2    1    1    2  501    0  0.36639386094E+02 -0.83720809538E+02 -0.32286045191E+03  0.33554506400E+03  0.00000000000E+00 0. -1.
          1    1    1    2  502    0 -0.32049991299E+02  0.25117664918E+02  0.19510094514E+04  0.19514343388E+04  0.00000000000E+00 0. -1.
         22    1    3    3    0    0 -0.37256303349E+02  0.86551204325E+02  0.43590612326E+03  0.44597454121E+03  0.00000000000E+00 0. -1.
         22    1    3    3    0    0  0.32666908553E+02 -0.27948059704E+02  0.25613791750E+03  0.25972072257E+03  0.00000000000E+00 0. -1.
</event>
<event>
 7    1  0.6235964E-006  0.7428180E+02  0.7818608E-02  0.1497270E+00
          2   -1    0    0  502    0  0.00000000000E+00  0.00000000000E+00  0.18690280348E+03  0.18690280348E+03  0.00000000000E+00 0. -1.
          1   -1    0    0  501    0 -0.00000000000E+00 -0.00000000000E+00 -0.12337359937E+04  0.12337359937E+04  0.00000000000E+00 0. -1.
         25    2    1    2    0    0  0.75709701204E+01 -0.51224423594E+02 -0.43828318522E+02  0.14223227433E+03  0.12501134826E+03 0.  0.
          2    1    1    2  501    0 -0.77906568215E+01  0.74438308138E+02 -0.11384896803E+04  0.11409471978E+04  0.00000000000E+00 0. -1.
          1    1    1    2  502    0  0.21968670115E+00 -0.23213884543E+02  0.13548480856E+03  0.13745932507E+03  0.00000000000E+00 0. -1.
         22    1    3    3    0    0 -0.39350961937E+02 -0.70018104710E+01  0.25613781344E+02  0.47471984896E+02  0.00000000000E+00 0. -1.
         22    1    3    3    0    0  0.46921932057E+02 -0.44222613123E+02 -0.69442099865E+02  0.94760289431E+02  0.00000000000E+00 0. -1.
</event>
<event>
 7    1  0.6235964E-006  0.1561753E+03  0.7818608E-02  0.1241865E+00
          2   -1    0    0  502    0  0.00000000000E+00  0.00000000000E+00  0.27663679678E+04  0.27663679678E+04  0.00000000000E+00 0. -1.
          1   -1    0    0  501    0 -0.00000000000E+00 -0.00000000000E+00 -0.12360733525E+03  0.12360733525E+03  0.00000000000E+00 0. -1.
         25    2    1    2    0    0 -0.14853751150E+03  0.14412190577E+01  0.74504676678E+03  0.76992288522E+03  0.12498437930E+03 0.  0.
          2    1    1    2  501    0  0.14012359794E+02  0.92302463507E+02 -0.87573978262E+02  0.12800504937E+03  0.00000000000E+00 0. -1.
          1    1    1    2  502    0  0.13452515170E+03 -0.93743682564E+02  0.19852878440E+04  0.19920473685E+04  0.00000000000E+00 0. -1.
         22    1    3    3    0    0 -0.41801597239E+02  0.11303573575E+02  0.50711570723E+03  0.50896118204E+03  0.00000000000E+00 0.  1.
         22    1    3    3    0    0 -0.10673591426E+03 -0.98623545175E+01  0.23793105955E+03  0.26096170318E+03  0.00000000000E+00 0.  1.
</event>
<event>
 7    1  0.6235964E-006  0.1098171E+03  0.7818608E-02  0.1306929E+00
          2   -1    0    0  502    0  0.00000000000E+00  0.00000000000E+00  0.98837577932E+03  0.98837577932E+03  0.00000000000E+00 0. -1.
          1   -1    0    0  501    0 -0.00000000000E+00 -0.00000000000E+00 -0.22083212400E+03  0.22083212400E+03  0.00000000000E+00 0. -1.
         25    2    1    2    0    0 -0.27037423245E+02  0.54051317737E+02 -0.11598589993E+03  0.18091465977E+03  0.12499927173E+03 0.  0.
          2    1    1    2  501    0 -0.73998887235E+02 -0.97079958513E+02 -0.15082996371E+02  0.12299532689E+03  0.00000000000E+00 0. -1.
          1    1    1    2  502    0  0.10103631048E+03  0.43028640776E+02  0.89861255162E+03  0.90529791665E+03  0.00000000000E+00 0. -1.
         22    1    3    3    0    0 -0.20379412925E+02 -0.36646435690E+02 -0.62951847538E+02  0.75638725719E+02  0.00000000000E+00 0.  1.
         22    1    3    3    0    0 -0.66580103198E+01  0.90697753427E+02 -0.53034052392E+02  0.10527593406E+03  0.00000000000E+00 0.  1.
</event>
<event>
 7    1  0.6235964E-006  0.8070373E+02  0.7818608E-02  0.1360424E+00
          2   -1    0    0  502    0  0.00000000000E+00  0.00000000000E+00  0.29425063554E+04  0.29425063554E+04  0.00000000000E+00 0. -1.
          1   -1    0    0  501    0 -0.00000000000E+00 -0.00000000000E+00 -0.17113196669E+03  0.17113196669E+03  0.00000000000E+00 0. -1.
         25    2    1    2    0    0 -0.46820618978E+02 -0.25727416573E+02  0.18862962951E+03  0.23250949599E+03  0.12500183307E+03 0.  0.
          2    1    1    2  501    0  0.20880468948E+02  0.80436499144E+02 -0.13725656274E+03  0.16045369548E+03  0.00000000000E+00 0. -1.
          1    1    1    2  502    0  0.25940150030E+02 -0.54709082571E+02  0.27200013220E+04  0.27206751307E+04  0.00000000000E+00 0. -1.
         22    1    3    3    0    0  0.25245322614E+02 -0.15933560682E+02  0.14425695764E+03  0.14731352449E+03  0.00000000000E+00 0. -1.
         22    1    3    3    0    0 -0.72065941592E+02 -0.97938558916E+01  0.44372671871E+02  0.85195971499E+02  0.00000000000E+00 0. -1.
</event>
<event>
 7    1  0.6235964E-006  0.1060338E+03  0.7818608E-02  0.1277107E+00
          2   -1    0    0  502    0  0.00000000000E+00  0.00000000000E+00  0.98530181139E+03  0.98530181139E+03  0.00000000000E+00 0. -1.
          1   -1    0    0  501    0 -0.00000000000E+00 -0.00000000000E+00 -0.83945027824E+03  0.83945027824E+03  0.00000000000E+00 0. -1.
         25    2    1    2    0    0 -0.15893929033E+03  0.64326303074E+02  0.29937942970E+03  0.36694943334E+03  0.12499708967E+03 0.  0.
          2    1    1    2  501    0  0.10436065818E+03  0.16130102834E+02 -0.79854636375E+03  0.80549836887E+03  0.00000000000E+00 0. -1.
          1    1    1    2  502    0  0.54578632149E+02 -0.80456405908E+02  0.64501846720E+03  0.65230428741E+03  0.00000000000E+00 0. -1.
         22    1    3    3    0    0 -0.16842426908E+03  0.72111461820E+02  0.30306236316E+03  0.35413781683E+03  0.00000000000E+00 0.  1.
         22    1    3    3    0    0  0.94849787578E+01 -0.77851587464E+01 -0.36829334660E+01  0.12811616512E+02  0.00000000000E+00 0.  1.
</event>
<event>
 7    1  0.6235964E-006  0.9306085E+02  0.7818608E-02  0.1461932E+00
          2   -1    0    0  502    0  0.00000000000E+00  0.00000000000E+00  0.15994245575E+02  0.15994245575E+02  0.00000000000E+00 0. -1.
          1   -1    0    0  501    0 -0.00000000000E+00 -0.00000000000E+00 -0.20280771374E+04  0.20280771374E+04  0.00000000000E+00 0. -1.
         25    2    1    2    0    0 -0.10721669124E+03  0.95029291796E+01 -0.14191032216E+04  0.14286585198E+04  0.12500195275E+03 0.  0.
          2    1    1    2  501    0  0.83433955603E+02 -0.89915156664E+01 -0.58398090137E+03  0.58997946190E+03  0.00000000000E+00 0. -1.
          1    1    1    2  502    0  0.23782735639E+02 -0.51141351317E+00 -0.89987688705E+01  0.25433401256E+02  0.00000000000E+00 0. -1.
         22    1    3    3    0    0 -0.87624732386E+02 -0.72350305194E+01 -0.41438566693E+03  0.42361057630E+03  0.00000000000E+00 0.  1.
         22    1    3    3    0    0 -0.19591958856E+02  0.16737959699E+02 -0.10047175546E+04  0.10050479435E+04  0.00000000000E+00 0.  1.
</event>
<event>
 7    1  0.6235964E-006  0.4243270E+02  0.7818608E-02  0.1569353E+00
          2   -1    0    0  502    0  0.00000000000E+00  0.00000000000E+00  0.96040364021E+02  0.96040364021E+02  0.00000000000E+00 0. -1.
          1   -1    0    0  501    0 -0.00000000000E+00 -0.00000000000E+00 -0.88632357798E+03  0.88632357798E+03  0.00000000000E+00 0. -1.
         25    2    1    2    0    0  0.22445613986E+02  0.29158584998E+02 -0.39289289649E+03  0.41393745921E+03  0.12500145344E+03 0.  0.
          2    1    1    2  501    0 -0.21448829844E+02  0.13429916154E+02 -0.47724704858E+03  0.47791752461E+03  0.00000000000E+00 0. -1.
          1    1    1    2  502    0 -0.99678414148E+00 -0.42588501153E+02  0.79856731105E+02  0.90508958185E+02  0.00000000000E+00 0. -1.
         22    1    3    3    0    0  0.41828587538E+02  0.59216959061E+02 -0.35296069066E+03  0.36032974915E+03  0.00000000000E+00 0. -1.
         22    1    3    3    0    0 -0.19382973553E+02 -0.30058374063E+02 -0.39932205828E+02  0.53607710055E+02  0.00000000000E+00 0. -1.
</event>
<event>
 7    1  0.6235964E-006  0.1239326E+03  0.7818608E-02  0.1292707E+00
          2   -1    0    0  502    0  0.00000000000E+00  0.00000000000E+00  0.97315835075E+03  0.97315835075E+03  0.00000000000E+00 0. -1.
          1   -1    0    0  501    0 -0.00000000000E+00 -0.00000000000E+00 -0.14805218769E+04  0.14805218769E+04  0.00000000000E+00 0. -1.
         25    2    1    2    0    0 -0.44733967596E+02  0.18060666306E+03 -0.27199682376E+03  0.35245495863E+03  0.12498932407E+03 0.  0.
          2    1    1    2  501    0  0.43070188673E+02 -0.57433143085E+02 -0.11631181414E+04  0.11653314626E+04  0.00000000000E+00 0. -1.
          1    1    1    2  502    0  0.16637789234E+01 -0.12317351997E+03  0.92775143900E+03  0.93589380634E+03  0.00000000000E+00 0. -1.
         22    1    3    3    0    0  0.37566821359E+02  0.35541112216E+02 -0.34206702186E+02  0.62004315970E+02  0.00000000000E+00 0.  1.
         22    1    3    3    0    0 -0.82300788955E+02  0.14506555084E+03 -0.23779012157E+03  0.29045064266E+03  0.00000000000E+00 0.  1.
</event>
<event>
 7    1  0.6235964E-006  0.2287038E+03  0.7818608E-02  0.1131968E+00
          2   -1    0    0  502    0  0.00000000000E+00  0.00000000000E+00  0.38341544247E+04  0.38341544247E+04  0.00000000000E+00 0. -1.
          1   -1    0    0  501    0 -0.00000000000E+00 -0.00000000000E+00 -0.49164046065E+02  0.49164046065E+02  0.00000000000E+00 0. -1.
         25    2    1    2    0    0  0.24830640367E+03 -0.11337530298E+03  0.11933252396E+04  0.12305122677E+04  0.12500113628E+03 0.  0.
          2    1    1    2  501    0 -0.65332954308E+02  0.22935773975E+03  0.54738327382E+03  0.59707773042E+03  0.00000000000E+00 0. -1.
          1    1    1    2  502    0 -0.18297344937E+03 -0.11598243677E+03  0.20442818652E+04  0.20557284726E+04  0.00000000000E+00 0. -1.
         22    1    3    3    0    0  0.89055976013E+02 -0.83232190771E+02  0.32324289285E+03  0.34546277979E+03  0.00000000000E+00 0.  1.
         22    1    3    3    0    0  0.15925042766E+03 -0.30143112206E+02  0.87008234680E+03  0.88504948795E+03  0.00000000000E+00 0.  1.
</event>
<event>
 7    1  0.6235964E-006  0.1298302E+03  0.7818608E-02  0.1249616E+00
          2   -1    0    0  502    0  0.00000000000E+00  0.00000000000E+00  0.10105743246E+04  0.10105743246E+04  0.00000000000E+00 0. -1.
          1   -1    0    0  501    0 -0.00000000000E+00 -0.00000000000E+00 -0.31377917649E+03  0.31377917649E+03  0.00000000000E+00 0. -1.
         25    2    1    2    0    0 -0.20668194442E+03 -0.56665846520E+02  0.42073414701E+03  0.48843823282E+03  0.12500496194E+03 0.  0.
          2    1    1    2  501    0  0.91720742220E+02  0.48770949719E+02 -0.26399728454E+03  0.28370031077E+03  0.00000000000E+00 0. -1.
          1    1    1    2  502    0  0.11496120220E+03  0.78948968016E+01  0.54005828561E+03  0.55221495748E+03  0.00000000000E+00 0. -1.
         22    1    3    3    0    0 -0.46801909910E+02 -0.10907021777E+02  0.15638703172E+02  0.50536629608E+02  0.00000000000E+00 0. -1.
         22    1    3    3    0    0 -0.15988003451E+03 -0.45758824744E+02  0.40509544383E+03  0.43790160321E+03  0.00000000000E+00 0. -1.
</event>
<event>
 7    1  0.6235964E-006  0.3558044E+02  0.7818608E-02  0.1566662E+00
          2   -1    0    0  502    0  0.00000000000E+00  0.00000000000E+00  0.25731196906E+03  0.25731196906E+03  0.00000000000E+00 0. -1.
          1   -1    0    0  501    0 -0.00000000000E+00 -0.00000000000E+00 -0.42717240105E+03  0.42717240105E+03  0.00000000000E+00 0. -1.
         25    2    1    2    0    0 -0.10171776254E+02  0.73781546711E+01  0.37751338215E+02  0.13118317877E+03  0.12500384257E+03 0.  0.
          2    1    1    2  501    0  0.89806316694E+01  0.29350367166E+02 -0.37787395836E+03  0.37911848307E+03  0.00000000000E+00 0. -1.
          1    1    1    2  502    0  0.11911445850E+01 -0.36728521837E+02  0.17026218816E+03  0.17418270827E+03  0.00000000000E+00 0. -1.
         22    1    3    3    0    0  0.27077140031E+02  0.28850157666E+02 -0.30884384884E+02  0.50193110476E+02  0.00000000000E+00 0.  1.
         22    1    3    3    0    0 -0.37248916285E+02 -0.21472002995E+02  0.68635723099E+02  0.80990068294E+02  0.00000000000E+00 0.  1.
</event>
<event>
 7    1  0.6235964E-006  0.6498900E+02  0.7818608E-02  0.1485970E+00
          2   -1    0    0  502    0  0.00000000000E+00  0.00000000000E+00  0.10814327649E+04  0.10814327649E+04  0.00000000000E+00 0. -1.
          1   -1    0    0  501    0 -0.00000000000E+00 -0.00000000000E+00 -0.32635709639E+03  0.32635709639E+03  0.00000000000E+00 0. -1.
         25    2    1    2    0    0  0.33762962205E+01  0.56887391839E+02  0.34116462935E+03  0.36778414195E+03  0.12499718408E+03 0.  0.
          2    1    1    2  501    0  0.28670395773E+02  0.13589838386E+01 -0.31086492028E+03  0.31218718278E+03  0.00000000000E+00 0. -1.
          1    1    1    2  502    0 -0.32046691993E+02 -0.58246375677E+02  0.72477595949E+03  0.72781853658E+03  0.00000000000E+00 0. -1.
         22    1    3    3    0    0 -0.58256781925E+02  0.82103579130E+01  0.14452537285E+03  0.15604116770E+03  0.00000000000E+00 0.  1.
         22    1    3    3    0    0  0.61633078145E+02  0.48677033926E+02  0.19663925649E+03  0.21174297426E+03  0.00000000000E+00 0.  1.
</event>
<event>
 7    1  0.6235964E-006  0.7083244E+02  0.7818608E-02  0.1418613E+00
          2   -1    0    0  502    0  0.00000000000E+00  0.00000000000E+00  0.98037894739E+03  0.98037894739E+03  0.00000000000E+00 0. -1.
          1   -1    0    0  501    0 -0.00000000000E+00 -0.00000000000E+00 -0.13358155011E+04  0.13358155011E+04  0.00000000000E+00 0. -1.
         25    2    1    2    0    0  0.16685891588E+02  0.45888798337E+01  0.70673293689E+03  0.71791040360E+03  0.12499770688E+03 0.  0.
          2    1    1    2  501    0  0.34862845181E+02 -0.61658873842E+02 -0.13237444948E+04  0.13256382320E+04  0.00000000000E+00 0. -1.
          1    1    1    2  502    0 -0.51548736769E+02  0.57069994008E+02  0.26157500417E+03  0.27264581289E+03  0.00000000000E+00 0. -1.
         22    1    3    3    0    0  0.44980821438E+01  0.46541066290E+02  0.10928851393E+03  0.11887086637E+03  0.00000000000E+00 0.  1.
         22    1    3    3    0    0  0.12187809444E+02 -0.41952186456E+02  0.59744442295E+03  0.59903953723E+03  0.00000000000E+00 0.  1.
</event>
<event>
 7    1  0.6235964E-006  0.8072741E+02  0.7818608E-02  0.1470649E+00
          2   -1    0    0  502    0  0.00000000000E+00  0.00000000000E+00  0.41358591443E+04  0.41358591443E+04  0.00000000000E+00 0. -1.
          1   -1    0    0  501    0 -0.00000000000E+00 -0.00000000000E+00 -0.13030379630E+03  0.13030379630E+03  0.00000000000E+00 0. -1.
         25    2    1    2    0    0 -0.23397141612E+02 -0.10309285108E+03  0.52158095288E+02  0.17182387046E+03  0.12500965314E+03 0.  0.
          2    1    1    2  501    0  0.10302089458E+02  0.23604086726E+02 -0.67700858095E+02  0.72434053761E+02  0.00000000000E+00 0. -1.
          1    1    1    2  502    0  0.13095052154E+02  0.79488764354E+02  0.40210981109E+04  0.40219050164E+04  0.00000000000E+00 0. -1.
         22    1    3    3    0    0 -0.46920625356E+02  0.67801561131E+00 -0.10850596426E+02  0.48163681668E+02  0.00000000000E+00 0.  1.
         22    1    3    3    0    0  0.23523483744E+02 -0.10377086669E+03  0.63008691714E+02  0.12366018879E+03  0.00000000000E+00 0.  1.
</event>
<event>
 7    1  0.6235964E-006  0.1011108E+03  0.7818608E-02  0.1332771E+00
          2   -1    0    0  502    0  0.00000000000E+00  0.00000000000E+00  0.39681753405E+03  0.39681753405E+03  0.00000000000E+00 0. -1.
          1   -1    0    0  501    0 -0.00000000000E+00 -0.00000000000E+00 -0.20359078995E+03  0.20359078995E+03  0.00000000000E+00 0. -1.
         25    2    1    2    0    0  0.12117944961E+03  0.44050619333E+02  0.13494066095E+03  0.22464013908E+03  0.12501717497E+03 0.  0.
          2    1    1    2  501    0 -0.67470854376E+02 -0.73520368406E+02 -0.13791248580E+03  0.17022753743E+03  0.00000000000E+00 0. -1.
          1    1    1    2  502    0 -0.53708595235E+02  0.29469749073E+02  0.19619856895E+03  0.20554064749E+03  0.00000000000E+00 0. -1.
         22    1    3    3    0    0  0.14711481868E+02  0.53306501067E+02  0.96207510324E+02  0.11096799447E+03  0.00000000000E+00 0. -1.
         22    1    3    3    0    0  0.10646796774E+03 -0.92558817335E+01  0.38733150622E+02  0.11367214460E+03  0.00000000000E+00 0. -1.
</event>
<event>
 7    1  0.6235964E-006  0.6159871E+02  0.7818608E-02  0.1431624E+00
          2   -1    0    0  502    0  0.00000000000E+00  0.00000000000E+00  0.26745746731E+04  0.26745746731E+04  0.00000000000E+00 0. -1.
          1   -1    0    0  501    0 -0.00000000000E+00 -0.00000000000E+00 -0.66452725845E+01  0.66452725845E+01  0.00000000000E+00 0. -1.
         25    2    1    2    0    0 -0.59949349354E+02  0.46140744375E+02  0.10387393192E+04  0.10489644242E+04  0.12499638875E+03 0.  0.
          2    1    1    2  501    0  0.15423965432E+02 -0.52493570337E+02  0.95653783908E+03  0.95810130531E+03  0.00000000000E+00 0. -1.
          1    1    1    2  502    0  0.44525383922E+02  0.63528259616E+01  0.67265224220E+03  0.67415421614E+03  0.00000000000E+00 0. -1.
         22    1    3    3    0    0 -0.37254960448E+02  0.22277570127E+02  0.92781254928E+02  0.10243331233E+03  0.00000000000E+00 0. -1.
         22    1    3    3    0    0 -0.22694388906E+02  0.23863174248E+02  0.94595806432E+03  0.94653111191E+03  0.00000000000E+00 0. -1.
</event>
<event>
 7    1  0.6235964E-006  0.3474499E+03  0.7818608E-02  0.1314181E+00
          2   -1    0    0  502    0  0.00000000000E+00  0.00000000000E+00  0.23414212463E+04  0.23414212463E+04  0.00000000000E+00 0. -1.
          1   -1    0    0  501    0 -0.00000000000E+00 -0.00000000000E+00 -0.15579064431E+03  0.15579064431E+03  0.00000000000E+00 0. -1.
         25    2    1    2    0    0  0.59580369819E+02  0.34671110691E+03  0.61885757280E+03  0.72275084748E+03  0.12500272000E+03 0.  0.
          2    1    1    2  501    0  0.18719792636E+02 -0.95831408499E+01 -0.84617660113E+02  0.87191832347E+02  0.00000000000E+00 0. -1.
          1    1    1    2  502    0 -0.78300162455E+02 -0.33712796606E+03  0.16513906893E+04  0.16872692108E+04  0.00000000000E+00 0. -1.
         22    1    3    3    0    0  0.53501678103E+02  0.28715716156E+03  0.58526155233E+03  0.65410454030E+03  0.00000000000E+00 0.  1.
         22    1    3    3    0    0  0.60786917158E+01  0.59553945349E+02  0.33596020465E+02  0.68646307189E+02  0.00000000000E+00 0.  1.
</event>
<event>
 7    1  0.6235964E-006  0.9392814E+02  0.7818608E-02  0.1328617E+00
          2   -1    0    0  502    0  0.00000000000E+00  0.00000000000E+00  0.47973907914E+03  0.47973907914E+03  0.00000000000E+00 0. -1.
          1   -1    0    0  501    0 -0.00000000000E+00 -0.00000000000E+00 -0.84042041651E+02  0.84042041651E+02  0.00000000000E+00 0. -1.
         25    2    1    2    0    0  0.36227884200E+02 -0.47234482368E+02  0.14805850746E+03  0.20267075166E+03  0.12494221076E+03 0.  0.
          2    1    1    2  501    0 -0.44134603927E+01  0.10778341184E+03  0.38865681136E+01  0.10794372567E+03  0.00000000000E+00 0. -1.
          1    1    1    2  502    0 -0.31814423807E+02 -0.60548929468E+02  0.24375196192E+03  0.25316664346E+03  0.00000000000E+00 0. -1.
         22    1    3    3    0    0 -0.26204114932E+02 -0.66465962257E+02  0.92738584562E+02  0.11706760801E+03  0.00000000000E+00 0. -1.
         22    1    3    3    0    0  0.62431999132E+02  0.19231479889E+02  0.55319922893E+02  0.85603143653E+02  0.00000000000E+00 0. -1.
</event>
<event>
 7    1  0.6235964E-006  0.7699699E+02  0.7818608E-02  0.1488226E+00
          2   -1    0    0  502    0  0.00000000000E+00  0.00000000000E+00  0.59027828970E+03  0.59027828970E+03  0.00000000000E+00 0. -1.
          1   -1    0    0  501    0 -0.00000000000E+00 -0.00000000000E+00 -0.15396574369E+04  0.15396574369E+04  0.00000000000E+00 0. -1.
         25    2    1    2    0    0 -0.85556142621E+01 -0.55397752434E+02  0.10596404172E+03  0.17319017690E+03  0.12499739888E+03 0.  0.
          2    1    1    2  501    0  0.24452267532E+02  0.73173424344E+02 -0.15047399655E+04  0.15067165053E+04  0.00000000000E+00 0. -1.
          1    1    1    2  502    0 -0.15896653270E+02 -0.17775671910E+02  0.44939677655E+03  0.45002904447E+03  0.00000000000E+00 0. -1.
         22    1    3    3    0    0  0.23130990410E+02  0.92392671231E+01  0.97590284165E+02  0.10071876855E+03  0.00000000000E+00 0. -1.
         22    1    3    3    0    0 -0.31686604672E+02 -0.64637019558E+02  0.83737575588E+01  0.72471408352E+02  0.00000000000E+00 0. -1.
</event>
<event>
 7    1  0.6235964E-006  0.1373949E+03  0.7818608E-02  0.1283072E+00
          2   -1    0    0  502    0  0.00000000000E+00  0.00000000000E+00  0.34448915565E+03  0.34448915565E+03  0.00000000000E+00 0. -1.
          1   -1    0    0  501    0 -0.00000000000E+00 -0.00000000000E+00 -0.64213674489E+03  0.64213674489E+03  0.00000000000E+00 0. -1.
         25    2    1    2    0    0  0.77125988657E+02  0.97091672960E+02 -0.20916111240E+02  0.17730869580E+03  0.12500271522E+03 0.  0.
          2    1    1    2  501    0 -0.55563590344E+02  0.44025009899E+02 -0.52131946647E+03  0.52611738252E+03  0.00000000000E+00 0. -1.
          1    1    1    2  502    0 -0.21562398313E+02 -0.14111668286E+03  0.24458798847E+03  0.28319982222E+03  0.00000000000E+00 0. -1.
         22    1    3    3    0    0  0.50305576946E+02  0.63259421244E+02  0.49452054433E+02  0.94751839748E+02  0.00000000000E+00 0.  1.
         22    1    3    3    0    0  0.26820411711E+02  0.33832251716E+02 -0.70368165672E+02  0.82556856048E+02  0.00000000000E+00 0.  1.
</event>
<event>
 7    1  0.6235964E-006  0.1588515E+03  0.7818608E-02  0.1274792E+00
          2   -1    0    0  502    0  0.00000000000E+00  0.00000000000E+00  0.20437019201E+04  0.20437019201E+04  0.00000000000E+00 0. -1.
          1   -1    0    0  501    0 -0.00000000000E+00 -0.00000000000E+00 -0.15228892212E+04  0.15228892212E+04  0.00000000000E+00 0. -1.
         25    2    1    2    0    0  0.87793642272E+02 -0.31798196082E+02  0.39860785405E+03  0.42805604923E+03  0.12499964430E+03 0.  0.
          2    1    1    2  501    0 -0.14753440686E+03  0.60667291882E+02 -0.15032682267E+04  0.15117083987E+04  0.00000000000E+00 0. -1.
          1    1    1    2  502    0  0.59740764588E+02 -0.28869095800E+02  0.16254730716E+04  0.16268266933E+04  0.00000000000E+00 0. -1.
         22    1    3    3    0    0 -0.16337937183E+01  0.40190176868E+02  0.83407042648E+02  0.92599429598E+02  0.00000000000E+00 0. -1.
         22    1    3    3    0    0  0.89427435990E+02 -0.71988372950E+02  0.31520081140E+03  0.33545661964E+03  0.00000000000E+00 0. -1.
</event>
<event>
 7    1  0.6235964E-006  0.8216725E+02  0.7818608E-02  0.1326273E+00
          2   -1    0    0  502    0  0.00000000000E+00  0.00000000000E+00  0.75250581083E+03  0.75250581083E+03  0.00000000000E+00 0. -1.
          1   -1    0    0  501    0 -0.00000000000E+00 -0.00000000000E+00 -0.72435935251E+02  0.72435935251E+02  0.00000000000E+00 0. -1.
         25    2    1    2    0    0 -0.73322753316E+02  0.24369228847E+02  0.15640838010E+03  0.21459153280E+03  0.12496343111E+03 0.  0.
          2    1    1    2  501    0  0.52647872904E+02  0.60001171402E+02  0.29621961210E+00  0.79824976273E+02  0.00000000000E+00 0. -1.
          1    1    1    2  502    0  0.20674880412E+02 -0.84370400249E+02  0.52336527587E+03  0.53052523701E+03  0.00000000000E+00 0. -1.
         22    1    3    3    0    0 -0.11498850549E+02  0.44599102809E+02  0.94463765405E+00  0.46067297247E+02  0.00000000000E+00 0.  1.
         22    1    3    3    0    0 -0.61823902767E+02 -0.20229873962E+02  0.15546374245E+03  0.16852423555E+03  0.00000000000E+00 0.  1.
</event>
<event>
 7    1  0.6235964E-006  0.1322414E+03  0.7818608E-02  0.1349850E+00
          2   -1    0    0  502    0  0.00000000000E+00  0.00000000000E+00  0.80213475304E+03  0.80213475304E+03  0.00000000000E+00 0. -1.
          1   -1    0    0  501    0 -0.00000000000E+00 -0.00000000000E+00 -0.99329188929E+02  0.99329188929E+02  0.00000000000E+00 0. -1.
         25    2    1    2    0    0 -0.52286232686E+02  0.15420590666E+03  0.18608295343E+03  0.27706515495E+03  0.12499969102E+03 0.  0.
          2    1    1    2  501    0  0.28223571905E+02 -0.28921622154E+02 -0.37833947788E+02  0.55357364861E+02  0.00000000000E+00 0. -1.
          1    1    1    2  502    0  0.24062660781E+02 -0.12528428450E+03  0.55455655847E+03  0.56904142216E+03  0.00000000000E+00 0. -1.
         22    1    3    3    0    0 -0.16158038725E+01 -0.15082865558E+02 -0.57726426733E+01  0.16230436193E+02  0.00000000000E+00 0.  1.
         22    1    3    3    0    0 -0.50670428813E+02  0.16928877222E+03  0.19185559610E+03  0.26083471876E+03  0.00000000000E+00 0.  1.
</event>
<event>
 7    1  0.6235964E-006  0.4242523E+02  0.7818608E-02  0.1501850E+00
          2   -1    0    0  502    0  0.00000000000E+00  0.00000000000E+00  0.32124038618E+03  0.32124038618E+03  0.00000000000E+00 0. -1.
          1   -1    0    0  501    0 -0.00000000000E+00 -0.00000000000E+00 -0.14423023894E+03  0.14423023894E+03  0.00000000000E+00 0. -1.
         25    2    1    2    0    0  0.11382883199E+02 -0.34228517643E+01  0.11795984745E+03  0.17228074955E+03  0.12499938045E+03 0.  0.
          2    1    1    2  501    0  0.84965471715E+01 -0.38459371355E+02 -0.11055551638E+03  0.11736199027E+03  0.00000000000E+00 0. -1.
          1    1    1    2  502    0 -0.19879430370E+02  0.41882223119E+02  0.16960581618E+03  0.17582788529E+03  0.00000000000E+00 0. -1.
         22    1    3    3    0    0  0.39189970034E+02 -0.47010661029E+02  0.10057557968E+03  0.11773403599E+03  0.00000000000E+00 0. -1.
         22    1    3    3    0    0 -0.27807086835E+02  0.43587809264E+02  0.17384267761E+02  0.54546713561E+02  0.00000000000E+00 0. -1.
</event>
<event>
 7    1  0.6235964E-006  0.3477760E+03  0.7818608E-02  0.1197602E+00
          2   -1    0    0  502    0  0.00000000000E+00  0.00000000000E+00  0.16394673934E+04  0.16394673934E+04  0.00000000000E+00 0. -1.
          1   -1    0    0  501    0 -0.00000000000E+00 -0.00000000000E+00 -0.21026705521E+03  0.21026705521E+03  0.00000000000E+00 0. -1.
         25    2    1    2    0    0  0.21753866077E+03  0.19997895924E+03  0.85621102295E+03  0.91435194954E+03  0.12501007456E+03 0.  0.
          2    1    1    2  501    0 -0.27975882025E+03 -0.22414772860E+03 -0.39613951836E-01  0.35847901377E+03  0.00000000000E+00 0. -1.
          1    1    1    2  502    0  0.62220159482E+02  0.24168769366E+02  0.57302892921E+03  0.57690348531E+03  0.00000000000E+00 0. -1.
         22    1    3    3    0    0  0.10371050699E+03  0.64901975377E+02  0.52405778338E+03  0.53814932499E+03  0.00000000000E+00 0. -1.
         22    1    3    3    0    0  0.11382815377E+03  0.13507698386E+03  0.33215323957E+03  0.37620262455E+03  0.00000000000E+00 0. -1.
</event>
<event>
 7    1  0.6235964E-006  0.8201494E+02  0.7818608E-02  0.1359782E+00
          2   -1    0    0  502    0  0.00000000000E+00  0.00000000000E+00  0.17282159178E+04  0.17282159178E+04  0.00000000000E+00 0. -1.
          1   -1    0    0  501    0 -0.00000000000E+00 -0.00000000000E+00 -0.12286186243E+03  0.12286186243E+03  0.00000000000E+00 0. -1.
         25    2    1    2    0    0  0.32371077214E+02  0.70111243539E+02  0.52848854898E+03  0.54853342240E+03  0.12500118390E+03 0.  0.
          2    1    1    2  501    0  0.26978301453E+02 -0.78225459925E+02 -0.96802326084E+02  0.12734889738E+03  0.00000000000E+00 0. -1.
          1    1    1    2  502    0 -0.59349378667E+02  0.81142163855E+01  0.11736678325E+04  0.11751954605E+04  0.00000000000E+00 0. -1.
         22    1    3    3    0    0  0.79397399183E+02  0.29712066567E+02  0.31780289779E+03  0.32891554500E+03  0.00000000000E+00 0.  1.
         22    1    3    3    0    0 -0.47026321969E+02  0.40399176973E+02  0.21068565119E+03  0.21961787740E+03  0.00000000000E+00 0.  1.
</event>
<event>
 7    1  0.6235964E-006  0.7469743E+02  0.7818608E-02  0.1398176E+00
          2   -1    0    0  502    0  0.00000000000E+00  0.00000000000E+00  0.56547084140E+03  0.56547084140E+03  0.00000000000E+00 0. -1.
          1   -1    0    0  501    0 -0.00000000000E+00 -0.00000000000E+00 -0.21736629297E+03  0.21736629297E+03  0.00000000000E+00 0. -1.
         25    2    1    2    0    0 -0.87031854835E+02 -0.47506061431E+02  0.28934607975E+03  0.33042210156E+03  0.12500496672E+03 0.  0.
          2    1    1    2  501    0  0.46854433433E+02 -0.10709790685E+02 -0.18886621336E+03  0.19488582323E+03  0.00000000000E+00 0. -1.
          1    1    1    2  502    0  0.40177421402E+02  0.58215852117E+02  0.24762468204E+03  0.25752920958E+03  0.00000000000E+00 0. -1.
         22    1    3    3    0    0 -0.10337496952E+03 -0.35315135235E+02  0.29013356035E+03  0.31001778327E+03  0.00000000000E+00 0.  1.
         22    1    3    3    0    0  0.16343114689E+02 -0.12190926197E+02 -0.78748060209E+00  0.20404318292E+02  0.00000000000E+00 0.  1.
</event>
<event>
 7    1  0.6235964E-006  0.1837116E+03  0.7818608E-02  0.1179843E+00
          2   -1    0    0  502    0  0.00000000000E+00  0.00000000000E+00  0.12889596659E+03  0.12889596659E+03  0.00000000000E+00 0. -1.
          1   -1    0    0  501    0 -0.00000000000E+00 -0.00000000000E+00 -0.20447091345E+04  0.20447091345E+04  0.00000000000E+00 0. -1.
         25    2    1    2    0    0  0.15822317221E+03 -0.63429190847E+02 -0.28531128364E+03  0.35508550290E+03  0.12500140528E+03 0.  0.
          2    1    1    2  501    0  0.25994615479E+02  0.15160329003E+03 -0.16053983538E+04  0.16127501828E+04  0.00000000000E+00 0. -1.
          1    1    1    2  502    0 -0.18421778769E+03 -0.88174099186E+02 -0.25103530420E+02  0.20576941539E+03  0.00000000000E+00 0. -1.
         22    1    3    3    0    0  0.14957422568E+03 -0.80180425815E+01 -0.24035447947E+03  0.28320842819E+03  0.00000000000E+00 0. -1.
         22    1    3    3    0    0  0.86489465283E+01 -0.55411148265E+02 -0.44956804172E+02  0.71877074714E+02  0.00000000000E+00 0. -1.
</event>
<event>
 7    1  0.6235964E-006  0.9865917E+02  0.7818608E-02  0.1304868E+00
          2   -1    0    0  502    0  0.00000000000E+00  0.00000000000E+00  0.43799640238E+02  0.43799640238E+02  0.00000000000E+00 0. -1.
          1   -1    0    0  501    0 -0.00000000000E+00 -0.00000000000E+00 -0.85267345483E+03  0.85267345483E+03  0.00000000000E+00 0. -1.
         25    2    1    2    0    0  0.56959388392E+02  0.73425741572E+02 -0.31685703261E+03  0.35307048066E+03  0.12499869499E+03 0.  0.
          2    1    1    2  501    0  0.52500290740E+02 -0.61153807763E+02 -0.37146860386E+03  0.38011181564E+03  0.00000000000E+00 0. -1.
          1    1    1    2  502    0 -0.10945967913E+03 -0.12271933809E+02 -0.12054817811E+03  0.16329079877E+03  0.00000000000E+00 0. -1.
         22    1    3    3    0    0  0.32926284331E+02  0.98721401107E+02 -0.29265208616E+03  0.31060473076E+03  0.00000000000E+00 0.  1.
         22    1    3    3    0    0  0.24033104060E+02 -0.25295659535E+02 -0.24204946453E+02  0.42465749903E+02  0.00000000000E+00 0.  1.
</event>
<event>
 7    1  0.6235964E-006  0.9447549E+02  0.7818608E-02  0.1331862E+00
          2   -1    0    0  502    0  0.00000000000E+00  0.00000000000E+00  0.22614378170E+04  0.22614378170E+04  0.00000000000E+00 0. -1.
          1   -1    0    0  501    0 -0.00000000000E+00 -0.00000000000E+00 -0.10763193955E+04  0.10763193955E+04  0.00000000000E+00 0. -1.
         25    2    1    2    0    0 -0.24256848119E+02 -0.15719999453E+03  0.26139163202E+02  0.20397999792E+03  0.12499740293E+03 0.  0.
          2    1    1    2  501    0  0.17619695841E+02  0.63697431635E+02 -0.98526796976E+03  0.98748204475E+03  0.00000000000E+00 0. -1.
          1    1    1    2  502    0  0.66371522776E+01  0.93502562893E+02  0.21442472281E+04  0.21462951698E+04  0.00000000000E+00 0. -1.
         22    1    3    3    0    0  0.47623054155E+00 -0.16872449901E+03  0.39960851580E+02  0.17339277096E+03  0.00000000000E+00 0.  1.
         22    1    3    3    0    0 -0.24733078660E+02  0.11524504484E+02 -0.13821688378E+02  0.30587226962E+02  0.00000000000E+00 0.  1.
</event>
<event>
 7    1  0.6235964E-006  0.1699077E+03  0.7818608E-02  0.1221169E+00
          2   -1    0    0  502    0  0.00000000000E+00  0.00000000000E+00  0.86310139107E+03  0.86310139107E+03  0.00000000000E+00 0. -1.
          1   -1    0    0  501    0 -0.00000000000E+00 -0.00000000000E+00 -0.10629466096E+04  0.10629466096E+04  0.00000000000E+00 0. -1.
         25    2    1    2    0    0  0.20284010992E+03 -0.10785544134E+03 -0.30735350670E+02  0.26333708169E+03  0.12499940158E+03 0.  0.
          2    1    1    2  501    0 -0.10286982608E+03 -0.26391056969E+02 -0.90338189982E+03  0.90960296060E+03  0.00000000000E+00 0. -1.
          1    1    1    2  502    0 -0.99970283836E+02  0.13424649831E+03  0.73427203199E+03  0.75310795834E+03  0.00000000000E+00 0. -1.
         22    1    3    3    0    0  0.14749657334E+03 -0.77299190463E+02 -0.78503243440E+02  0.18410095932E+03  0.00000000000E+00 0.  1.
         22    1    3    3    0    0  0.55343536580E+02 -0.30556250880E+02  0.47767892771E+02  0.79236122373E+02  0.00000000000E+00 0.  1.
</event>
<event>
 7    1  0.6235964E-006  0.8308017E+02  0.7818608E-02  0.1485030E+00
          2   -1    0    0  502    0  0.00000000000E+00  0.00000000000E+00  0.15002056563E+04  0.15002056563E+04  0.00000000000E+00 0. -1.
          1   -1    0    0  501    0 -0.00000000000E+00 -0.00000000000E+00 -0.14545624311E+02  0.14545624311E+02  0.00000000000E+00 0. -1.
         25    2    1    2    0    0 -0.38176821876E+01 -0.67935864948E+02  0.75132101617E+03  0.76468196062E+03  0.12500150041E+03 0.  0.
          2    1    1    2  501    0 -0.64157631444E+01  0.88087151206E+02  0.24891834480E+03  0.26412279455E+03  0.00000000000E+00 0. -1.
          1    1    1    2  502    0  0.10233445332E+02 -0.20151286258E+02  0.48542067097E+03  0.48594652539E+03  0.00000000000E+00 0. -1.
         22    1    3    3    0    0  0.39389987881E+00 -0.90237108783E+02  0.31232489355E+03  0.32509956950E+03  0.00000000000E+00 0. -1.
         22    1    3    3    0    0 -0.42115820664E+01  0.22301243835E+02  0.43899612262E+03  0.43958239112E+03  0.00000000000E+00 0. -1.
</event>
<event>
 7    1  0.6235964E-006  0.4146113E+02  0.7818608E-02  0.1561332E+00
          2   -1    0    0  502    0  0.00000000000E+00  0.00000000000E+00  0.65302638938E+03  0.65302638938E+03  0.00000000000E+00 0. -1.
          1   -1    0    0  501    0 -0.00000000000E+00 -0.00000000000E+00 -0.25890548154E+03  0.25890548154E+03  0.00000000000E+00 0. -1.
         25    2    1    2    0    0  0.12146547156E+02 -0.95528568755E+01  0.90634466171E+01  0.12629059786E+03  0.12501349271E+03 0.  0.
          2    1    1    2  501    0  0.12522880025E+02 -0.24191227504E+02 -0.19861481416E+03  0.20047414401E+03  0.00000000000E+00 0. -1.
          1    1    1    2  502    0 -0.24669427180E+02  0.33744084379E+02  0.58367227539E+03  0.58516712905E+03  0.00000000000E+00 0. -1.
         22    1    3    3    0    0  0.12115560759E+02 -0.12737129502E+02 -0.57256467255E+02  0.59894276212E+02  0.00000000000E+00 0. -1.
         22    1    3    3    0    0  0.30986396943E-01  0.31842726261E+01  0.66319913872E+02  0.66396321647E+02  0.00000000000E+00 0. -1.
</event>
<event>
 7    1  0.6235964E-006  0.9101261E+02  0.7818608E-02  0.1391524E+00
          2   -1    0    0  502    0  0.00000000000E+00  0.00000000000E+00  0.76636594797E+03  0.76636594797E+03  0.00000000000E+00 0. -1.
          1   -1    0    0  501    0 -0.00000000000E+00 -0.00000000000E+00 -0.13988718636E+03  0.13988718636E+03  0.00000000000E+00 0. -1.
         25    2    1    2    0    0  0.75425197834E+01  0.81467412658E+02  0.20783364934E+03  0.25595688801E+03  0.12500109517E+03 0.  0.
          2    1    1    2  501    0 -0.41133626851E+02  0.61901299045E+01 -0.10779999172E+03  0.11554709508E+03  0.00000000000E+00 0. -1.
          1    1    1    2  502    0  0.33591107067E+02 -0.87657542563E+02  0.52644510398E+03  0.53474915124E+03  0.00000000000E+00 0. -1.
         22    1    3    3    0    0 -0.57120610797E+02  0.23918636402E+02  0.73000959051E+02  0.95728811585E+02  0.00000000000E+00 0. -1.
         22    1    3    3    0    0  0.64663130580E+02  0.57548776256E+02  0.13483269029E+03  0.16022807643E+03  0.00000000000E+00 0. -1.
</event>
<event>
 7    1  0.6235964E-006  0.7848982E+02  0.7818608E-02  0.1462809E+00
          2   -1    0    0  502    0  0.00000000000E+00  0.00000000000E+00  0.10410636446E+04  0.10410636446E+04  0.00000000000E+00 0. -1.
          1   -1    0    0  501    0 -0.00000000000E+00 -0.00000000000E+00 -0.86163276528E+03  0.86163276528E+03  0.00000000000E+00 0. -1.
         25    2    1    2    0    0  0.20859834033E+02  0.74258224985E+02  0.45459910590E+03  0.47773293827E+03  0.12497598399E+03 0.  0.
          2    1    1    2  501    0 -0.46605619555E+02 -0.63185714593E+02 -0.84790952486E+03  0.85153689330E+03  0.00000000000E+00 0. -1.
          1    1    1    2  502    0  0.25745785522E+02 -0.11072510392E+02  0.57274129829E+03  0.57342657832E+03  0.00000000000E+00 0. -1.
         22    1    3    3    0    0  0.62739517141E+02  0.64436882126E+02  0.19688288029E+03  0.21645144338E+03  0.00000000000E+00 0.  1.
         22    1    3    3    0    0 -0.41879683108E+02  0.98213428586E+01  0.25771622560E+03  0.26128149489E+03  0.00000000000E+00 0.  1.
</event>
<event>
 7    1  0.6235964E-006  0.4672713E+02  0.7818608E-02  0.1464984E+00
          2   -1    0    0  502    0  0.00000000000E+00  0.00000000000E+00  0.27725784607E+04  0.27725784607E+04  0.00000000000E+00 0. -1.
          1   -1    0    0  501    0 -0.00000000000E+00 -0.00000000000E+00 -0.81704226788E+02  0.81704226788E+02  0.00000000000E+00 0. -1.
         25    2    1    2    0    0  0.44125102186E+02  0.74244914431E+02  0.89021329592E+03  0.90308570304E+03  0.12499897131E+03 0.  0.
          2    1    1    2  501    0 -0.75037176517E+01 -0.45846228491E+02 -0.67784923020E+02  0.82176506584E+02  0.00000000000E+00 0. -1.
          1    1    1    2  502    0 -0.36621384534E+02 -0.28398685940E+02  0.18684458610E+04  0.18690204778E+04  0.00000000000E+00 0. -1.
         22    1    3    3    0    0  0.87967760706E+02  0.42294410815E+02  0.58590973517E+03  0.59398431114E+03  0.00000000000E+00 0.  1.
         22    1    3    3    0    0 -0.43842658520E+02  0.31950503617E+02  0.30430356075E+03  0.30910139190E+03  0.00000000000E+00 0.  1.
</event>
<event>
 7    1  0.6235964E-006  0.1549224E+03  0.7818608E-02  0.1313642E+00
          2   -1    0    0  502    0  0.00000000000E+00  0.00000000000E+00  0.18648572409E+03  0.18648572409E+03  0.00000000000E+00 0. -1.
          1   -1    0    0  501    0 -0.00000000000E+00 -0.00000000000E+00 -0.14942812997E+04  0.14942812997E+04  0.00000000000E+00 0. -1.
         25    2    1    2    0    0  0.18853771650E+03  0.62618380776E+02 -0.19346828990E+03  0.30417421661E+03  0.12499777077E+03 0.  0.
          2    1    1    2  501    0 -0.14383286599E+03 -0.46878414958E+02 -0.12364113587E+04  0.12456317783E+04  0.00000000000E+00 0. -1.
          1    1    1    2  502    0 -0.44704850506E+02 -0.15739965818E+02  0.12208407305E+03  0.13096102884E+03  0.00000000000E+00 0. -1.
         22    1    3    3    0    0  0.16935293507E+03  0.92842012331E+02 -0.13507277237E+03  0.23567925176E+03  0.00000000000E+00 0.  1.
         22    1    3    3    0    0  0.19184781426E+02 -0.30223631555E+02 -0.58395517524E+02  0.68494964849E+02  0.00000000000E+00 0.  1.
</event>
<event>
 7    1  0.6235964E-006  0.6001989E+02  0.7818608E-02  0.1450053E+00
          2   -1    0    0  502    0  0.00000000000E+00  0.00000000000E+00  0.15035767167E+04  0.15035767167E+04  0.00000000000E+00 0. -1.
          1   -1    0    0  501    0 -0.00000000000E+00 -0.00000000000E+00 -0.44599353972E+03  0.44599353972E+03  0.00000000000E+00 0. -1.
         25    2    1    2    0    0  0.62339970487E+02  0.29639744915E+02  0.54607038377E+02  0.15287871724E+03  0.12500074858E+03 0.  0.
          2    1    1    2  501    0 -0.33115365445E+02  0.22838984226E+02 -0.39519177933E+03  0.39723392236E+03  0.00000000000E+00 0. -1.
          1    1    1    2  502    0 -0.29224605042E+02 -0.52478729142E+02  0.13981679180E+04  0.13994576169E+04  0.00000000000E+00 0. -1.
         22    1    3    3    0    0 -0.55490265558E+01 -0.36725376734E+02 -0.94818286896E+01  0.38333406674E+02  0.00000000000E+00 0. -1.
         22    1    3    3    0    0  0.67888997043E+02  0.66365121649E+02  0.64088867067E+02  0.11454531057E+03  0.00000000000E+00 0. -1.
</event>
<event>
 7    1  0.6235964E-006  0.4914962E+02  0.7818608E-02  0.1514670E+00
          2   -1    0    0  502    0  0.00000000000E+00  0.00000000000E+00  0.73256352017E+02  0.73256352017E+02  0.00000000000E+00 0. -1.
          1   -1    0    0  501    0 -0.00000000000E+00 -0.00000000000E+00 -0.21430812794E+04  0.21430812794E+04  0.00000000000E+00 0. -1.
         25    2    1    2    0    0 -0.51900111791E+02  0.26617421044E+02 -0.37462288126E+03  0.39921174988E+03  0.12500243744E+03 0.  0.
          2    1    1    2  501    0  0.26919076040E+02  0.15698255490E+02 -0.17460999417E+04  0.17463779883E+04  0.00000000000E+00 0. -1.
          1    1    1    2  502    0  0.24981035751E+02 -0.42315676534E+02  0.50897895518E+02  0.70747893226E+02  0.00000000000E+00 0. -1.
         22    1    3    3    0    0 -0.44710313553E+02 -0.75999549478E+01 -0.35734461654E+03  0.36021097488E+03  0.00000000000E+00 0. -1.
         22    1    3    3    0    0 -0.71897982379E+01  0.34217375992E+02 -0.17278264721E+02  0.39000774995E+02  0.00000000000E+00 0. -1.
</event>
<event>
 7    1  0.6235964E-006  0.6801927E+02  0.7818608E-02  0.1453972E+00
          2   -1    0    0  502    0  0.00000000000E+00  0.00000000000E+00  0.40183162539E+03  0.40183162539E+03  0.00000000000E+00 0. -1.
          1   -1    0    0  501    0 -0.00000000000E+00 -0.00000000000E+00 -0.24653861129E+03  0.24653861129E+03  0.00000000000E+00 0. -1.
         25    2    1    2    0    0 -0.62118456888E+02 -0.26605744420E+02 -0.41597895922E+02  0.14806313261E+03  0.12500295185E+03 0.  0.
          2    1    1    2  501    0  0.42263544166E+02  0.54806444685E+02 -0.14289610793E+03  0.15877421455E+03  0.00000000000E+00 0. -1.
          1    1    1    2  502    0  0.19854912722E+02 -0.28200700265E+02  0.33978701796E+03  0.34153288952E+03  0.00000000000E+00 0. -1.
         22    1    3    3    0    0 -0.65087716654E+02 -0.27155421421E+02  0.29827779803E+02  0.76573652256E+02  0.00000000000E+00 0.  1.
         22    1    3    3    0    0  0.29692597658E+01  0.54967700087E+00 -0.71425675725E+02  0.71489480353E+02  0.00000000000E+00 0.  1.
</event>
<event>
 7    1  0.6235964E-006  0.1588193E+03  0.7818608E-02  0.1327428E+00
          2   -1    0    0  502    0  0.00000000000E+00  0.00000000000E+00  0.16238179523E+04  0.16238179523E+04  0.00000000000E+00 0. -1.
          1   -1    0    0  501    0 -0.00000000000E+00 -0.00000000000E+00 -0.58300809415E+03  0.58300809415E+03  0.00000000000E+00 0. -1.
         25    2    1    2    0    0  0.16188738045E+03  0.73227063186E+02  0.97877505126E+03  0.10025944804E+04  0.12500145785E+03 0.  0.
          2    1    1    2  501    0 -0.12718865180E+03 -0.94838537305E+02 -0.55939505878E+03  0.58145862544E+03  0.00000000000E+00 0. -1.
          1    1    1    2  502    0 -0.34698728653E+02  0.21611474119E+02  0.62142986569E+03  0.62277294061E+03  0.00000000000E+00 0. -1.
         22    1    3    3    0    0  0.59848686581E+01  0.18388001675E+02  0.14269649068E+02  0.24032480999E+02  0.00000000000E+00 0. -1.
         22    1    3    3    0    0  0.15590251179E+03  0.54839061511E+02  0.96450540219E+03  0.97856199942E+03  0.00000000000E+00 0. -1.
</event>
<event>
 7    1  0.6235964E-006  0.9620375E+02  0.7818608E-02  0.1349745E+00
          2   -1    0    0  502    0  0.00000000000E+00  0.00000000000E+00  0.16547319151E+03  0.16547319151E+03  0.00000000000E+00 0. -1.
          1   -1    0    0  501    0 -0.00000000000E+00 -0.00000000000E+00 -0.13077419750E+04  0.13077419750E+04  0.00000000000E+00 0. -1.
         25    2    1    2    0    0 -0.23146123967E+02 -0.74454328821E+02 -0.57211242292E+03  0.59077595441E+03  0.12499765484E+03 0.  0.
          2    1    1    2  501    0  0.78728474783E+02  0.73121512833E+02 -0.71721639729E+03  0.72522016583E+03  0.00000000000E+00 0. -1.
          1    1    1    2  502    0 -0.55582350816E+02  0.13328159879E+01  0.14706003670E+03  0.15721904629E+03  0.00000000000E+00 0. -1.
         22    1    3    3    0    0  0.16399870255E+02 -0.93225570982E+02 -0.47372988741E+03  0.48309416168E+03  0.00000000000E+00 0.  1.
         22    1    3    3    0    0 -0.39545994221E+02  0.18771242161E+02 -0.98382535508E+02  0.10768179272E+03  0.00000000000E+00 0.  1.
</event>
<event>
 7    1  0.6235964E-006  0.4905504E+02  0.7818608E-02  0.1465061E+00
          2   -1    0    0  502    0  0.00000000000E+00  0.00000000000E+00  0.45203561716E+03  0.45203561716E+03  0.00000000000E+00 0. -1.
          1   -1    0    0  501    0 -0.00000000000E+00 -0.00000000000E+00 -0.31499582077E+03  0.31499582077E+03  0.00000000000E+00 0. -1.
         25    2    1    2    0    0 -0.57517669866E+01  0.69751285750E+02  0.20020587681E+03  0.24618339442E+03  0.12500218354E+03 0.  0.
          2    1    1    2  501    0 -0.27300570790E+02 -0.34657547753E+02 -0.28776818012E+03  0.29113054163E+03  0.00000000000E+00 0. -1.
          1    1    1    2  502    0  0.33052337777E+02 -0.35093737996E+02  0.22460209970E+03  0.22971750188E+03  0.00000000000E+00 0. -1.
         22    1    3    3    0    0  0.17816789983E+02  0.86475298495E+02  0.19848075350E+03  0.21723265124E+03  0.00000000000E+00 0.  1.
         22    1    3    3    0    0 -0.23568556970E+02 -0.16724012745E+02  0.17251233065E+01  0.28950743175E+02  0.00000000000E+00 0.  1.
</event>
<event>
 7    1  0.6235964E-006  0.1021039E+03  0.7818608E-02  0.1281624E+00
          2   -1    0    0  502    0  0.00000000000E+00  0.00000000000E+00  0.16947779628E+04  0.16947779628E+04  0.00000000000E+00 0. -1.
          1   -1    0    0  501    0 -0.00000000000E+00 -0.00000000000E+00 -0.27275320554E+03  0.27275320554E+03  0.00000000000E+00 0. -1.
         25    2    1    2    0    0  0.11230729732E+03  0.24080747693E+02  0.31271664009E+03  0.35582205572E+03  0.12499930764E+03 0.  0.
          2    1    1    2  501    0 -0.44460868702E+02 -0.93000128981E+02 -0.23881983687E+03  0.26011671864E+03  0.00000000000E+00 0. -1.
          1    1    1    2  502    0 -0.67846428616E+02  0.68919381289E+02  0.13481279540E+04  0.13515923939E+04  0.00000000000E+00 0. -1.
         22    1    3    3    0    0  0.25555014730E+02 -0.12714989177E+02 -0.69343440604E+00  0.28551892738E+02  0.00000000000E+00 0. -1.
         22    1    3    3    0    0  0.86752282588E+02  0.36795736870E+02  0.31341007449E+03  0.32727016298E+03  0.00000000000E+00 0. -1.
</event>
<event>
 7    1  0.6235964E-006  0.5878758E+02  0.7818608E-02  0.1535921E+00
          2   -1    0    0  502    0  0.00000000000E+00  0.00000000000E+00  0.70944729711E+03  0.70944729711E+03  0.00000000000E+00 0. -1.
          1   -1    0    0  501    0 -0.00000000000E+00 -0.00000000000E+00 -0.46558355915E+03  0.46558355915E+03  0.00000000000E+00 0. -1.
         25    2    1    2    0    0 -0.32339071589E+02  0.25337376773E+02  0.60310270012E+02  0.14473949715E+03  0.12499758060E+03 0.  0.
          2    1    1    2  501    0  0.54772511617E+02 -0.22399930632E+02 -0.42108852733E+03  0.42522621364E+03  0.00000000000E+00 0. -1.
          1    1    1    2  502    0 -0.22433440028E+02 -0.29374461411E+01  0.60464199527E+03  0.60506514547E+03  0.00000000000E+00 0. -1.
         22    1    3    3    0    0 -0.44395750971E+00 -0.23465635739E+02 -0.29480192378E+02  0.37681758207E+02  0.00000000000E+00 0.  1.
         22    1    3    3    0    0 -0.31895114080E+02  0.48803012512E+02  0.89790462390E+02  0.10705773895E+03  0.00000000000E+00 0.  1.
</event>
<event>
 7    1  0.6235964E-006  0.3408409E+02  0.7818608E-02  0.1603031E+00
          2   -1    0    0  502    0  0.00000000000E+00  0.00000000000E+00  0.93906210465E+03  0.93906210465E+03  0.00000000000E+00 0. -1.
          1   -1    0    0  501    0 -0.00000000000E+00 -0.00000000000E+00 -0.20653141643E+03  0.20653141643E+03  0.00000000000E+00 0. -1.
         25    2    1    2    0    0 -0.34542553556E+02 -0.40747604750E+02  0.20839131135E+03  0.24880935412E+03  0.12500240299E+03 0.  0.
          2    1    1    2  501    0  0.10315624632E+02  0.32376862295E+02 -0.18453947289E+03  0.18764192063E+03  0.00000000000E+00 0. -1.
          1    1    1    2  502    0  0.24226928924E+02  0.83707424550E+01  0.70867884977E+03  0.70914224633E+03  0.00000000000E+00 0. -1.
         22    1    3    3    0    0 -0.49341048014E+02 -0.77800074800E+02  0.17043443449E+03  0.19374025684E+03  0.00000000000E+00 0.  1.
         22    1    3    3    0    0  0.14798494458E+02  0.37052470050E+02  0.37956876854E+02  0.55069097283E+02  0.00000000000E+00 0.  1.
</event>
<event>
 7    1  0.6235964E-006  0.3108249E+02  0.7818608E-02  0.1622317E+00
          2   -1    0    0  502    0  0.00000000000E+00  0.00000000000E+00  0.15491814132E+04  0.15491814132E+04  0.00000000000E+00 0. -1.
          1   -1    0    0  501    0 -0.00000000000E+00 -0.00000000000E+00 -0.20264511905E+02  0.20264511905E+02  0.00000000000E+00 0. -1.
         25    2    1    2    0    0  0.14919227896E+02 -0.53225089420E+02  0.94750651260E+03  0.95731328222E+03  0.12499854151E+03 0.  0.
          2    1    1    2  501    0 -0.46884609088E+01  0.30332164623E+02  0.51539048153E+00  0.30696701839E+02  0.00000000000E+00 0. -1.
          1    1    1    2  502    0 -0.10230766987E+02  0.22892924797E+02  0.58089499825E+03  0.58143594109E+03  0.00000000000E+00 0. -1.
         22    1    3    3    0    0 -0.51177100674E+02 -0.48272355720E+02  0.49975329677E+03  0.50468076404E+03  0.00000000000E+00 0.  1.
         22    1    3    3    0    0  0.66096328570E+02 -0.49527336998E+01  0.44775321583E+03  0.45263251818E+03  0.00000000000E+00 0.  1.
</event>
<event>
 7    1  0.6235964E-006  0.6301013E+02  0.7818608E-02  0.1450185E+00
          2   -1    0    0  502    0  0.00000000000E+00  0.00000000000E+00  0.71769304809E+03  0.71769304809E+03  0.00000000000E+00 0. -1.
          1   -1    0    0  501    0 -0.00000000000E+00 -0.00000000000E+00 -0.61018928204E+03  0.61018928204E+03  0.00000000000E+00 0. -1.
         25    2    1    2    0    0  0.14892142787E+02 -0.22146550892E+02 -0.14804561962E+03  0.19558760509E+03  0.12499904057E+03 0.  0.
          2    1    1    2  501    0  0.50953881447E+01 -0.37940356565E+02 -0.43608776732E+03  0.43776474783E+03  0.00000000000E+00 0. -1.
          1    1    1    2  502    0 -0.19987530932E+02  0.60086907458E+02  0.69163715299E+03  0.69452997720E+03  0.00000000000E+00 0. -1.
         22    1    3    3    0    0  0.46273686599E+02 -0.55649807456E+02 -0.12447038590E+03  0.14398274934E+03  0.00000000000E+00 0. -1.
         22    1    3    3    0    0 -0.31381543812E+02  0.33503256564E+02 -0.23575233724E+02  0.51604855755E+02  0.00000000000E+00 0. -1.
</event>
<event>
 7    1  0.6235964E-006  0.7135111E+02  0.7818608E-02  0.1383585E+00
          2   -1    0    0  502    0  0.00000000000E+00  0.00000000000E+00  0.18557327090E+03  0.18557327090E+03  0.00000000000E+00 0. -1.
          1   -1    0    0  501    0 -0.00000000000E+00 -0.00000000000E+00 -0.18300131429E+04  0.18300131429E+04  0.00000000000E+00 0. -1.
         25    2    1    2    0    0 -0.22522608634E+02  0.52762655730E+02 -0.14745800289E+03  0.20164422860E+03  0.12500146627E+03 0.  0.
          2    1    1    2  501    0 -0.47190528224E+02 -0.31191828207E+02 -0.16465500450E+04  0.16475214495E+04  0.00000000000E+00 0. -1.
          1    1    1    2  502    0  0.69713136858E+02 -0.21570827523E+02  0.14956817583E+03  0.16642073570E+03  0.00000000000E+00 0. -1.
         22    1    3    3    0    0  0.51093278746E+02  0.29247657935E+02 -0.78102736683E+02  0.97805859258E+02  0.00000000000E+00 0.  1.
         22    1    3    3    0    0 -0.73615887380E+02  0.23514997795E+02 -0.69355266212E+02  0.10383836934E+03  0.00000000000E+00 0.  1.
</event>
<event>
 7    1  0.6235964E-006  0.2817586E+03  0.7818608E-02  0.1314070E+00
          2   -1    0    0  502    0  0.00000000000E+00  0.00000000000E+00  0.34288577900E+03  0.34288577900E+03  0.00000000000E+00 0. -1.
          1   -1    0    0  501    0 -0.00000000000E+00 -0.00000000000E+00 -0.78977769359E+03  0.78977769359E+03  0.00000000000E+00 0. -1.
         25    2    1    2    0    0  0.16786926660E+03  0.24268587909E+03 -0.20698864087E+03  0.38150424659E+03  0.12499866456E+03 0.  0.
          2    1    1    2  501    0 -0.17076510446E+03 -0.21688868742E+03 -0.45625073082E+03  0.53325993006E+03  0.00000000000E+00 0. -1.
          1    1    1    2  502    0  0.28958378577E+01 -0.25797191663E+02  0.21634745710E+03  0.21789929594E+03  0.00000000000E+00 0. -1.
         22    1    3    3    0    0  0.28523438800E+01 -0.12897320538E+02 -0.21370507580E+02  0.25123203157E+02  0.00000000000E+00 0.  1.
         22    1    3    3    0    0  0.16501692272E+03  0.25558319962E+03 -0.18561813329E+03  0.35638104344E+03  0.00000000000E+00 0.  1.
</event>
<event>
 7    1  0.6235964E-006  0.6586677E+02  0.7818608E-02  0.1534935E+00
          2   -1    0    0  502    0  0.00000000000E+00  0.00000000000E+00  0.27478015774E+03  0.27478015774E+03  0.00000000000E+00 0. -1.
          1   -1    0    0  501    0 -0.00000000000E+00 -0.00000000000E+00 -0.52316605416E+02  0.52316605416E+02  0.00000000000E+00 0. -1.
         25    2    1    2    0    0 -0.66156644638E+02  0.16719329819E+02  0.10558200144E+03  0.17728148335E+03  0.12499971077E+03 0.  0.
          2    1    1    2  501    0  0.36589412769E+00 -0.20320675600E+02  0.66347773967E+01  0.21379523064E+02  0.00000000000E+00 0. -1.
          1    1    1    2  502    0  0.65790750510E+02  0.36013457812E+01  0.11024677349E+03  0.12843575674E+03  0.00000000000E+00 0. -1.
         22    1    3    3    0    0 -0.76300217741E+02  0.59280170877E+02  0.58238604614E+02  0.11281665194E+03  0.00000000000E+00 0. -1.
         22    1    3    3    0    0  0.10143573104E+02 -0.42560841058E+02  0.47343396825E+02  0.64464831419E+02  0.00000000000E+00 0. -1.
</event>
<event>
 7    1  0.6235964E-006  0.7306943E+02  0.7818608E-02  0.1500219E+00
          2   -1    0    0  502    0  0.00000000000E+00  0.00000000000E+00  0.56574011899E+03  0.56574011899E+03  0.00000000000E+00 0. -1.
          1   -1    0    0  501    0 -0.00000000000E+00 -0.00000000000E+00 -0.98270876297E+03  0.98270876297E+03  0.00000000000E+00 0. -1.
         25    2    1    2    0    0  0.77434321102E+02  0.29104593159E+02  0.81911756543E+02  0.17081458225E+03  0.12499973688E+03 0.  0.
          2    1    1    2  501    0 -0.58966914706E+02 -0.43024233145E+02 -0.93653190438E+03  0.93937223165E+03  0.00000000000E+00 0. -1.
          1    1    1    2  502    0 -0.18467406396E+02  0.13919639986E+02  0.43765150385E+03  0.43826206806E+03  0.00000000000E+00 0. -1.
         22    1    3    3    0    0 -0.17610576977E+02 -0.10519739035E+02 -0.18033515126E+02  0.27313092073E+02  0.00000000000E+00 0.  1.
         22    1    3    3    0    0  0.95044898079E+02  0.39624332194E+02  0.99945271669E+02  0.14350149017E+03  0.00000000000E+00 0.  1.
</event>
<event>
 7    1  0.6235964E-006  0.1000138E+03  0.7818608E-02  0.1323958E+00
          2   -1    0    0  502    0  0.00000000000E+00  0.00000000000E+00  0.25154074172E+03  0.25154074172E+03  0.00000000000E+00 0. -1.
          1   -1    0    0  501    0 -0.00000000000E+00 -0.00000000000E+00 -0.13022283091E+04  0.13022283091E+04  0.00000000000E+00 0. -1.
         25    2    1    2    0    0 -0.71578325694E+02 -0.20560521526E+02  0.79455948182E+02  0.16578414779E+03  0.12499977681E+03 0.  0.
          2    1    1    2  501    0  0.90847396674E+02 -0.43545764941E+02 -0.12482064362E+04  0.12522654633E+04  0.00000000000E+00 0. -1.
          1    1    1    2  502    0 -0.19269070980E+02  0.64106286468E+02  0.11806292072E+03  0.13571943969E+03  0.00000000000E+00 0. -1.
         22    1    3    3    0    0 -0.70105997948E+02 -0.32329669162E+02 -0.79202203275E+01  0.77606625661E+02  0.00000000000E+00 0. -1.
         22    1    3    3    0    0 -0.14723277455E+01  0.11769147636E+02  0.87376168510E+02  0.88177522127E+02  0.00000000000E+00 0. -1.
</event>
<event>
 7    1  0.6235964E-006  0.2158617E+03  0.7818608E-02  0.1333645E+00
          2   -1    0    0  502    0  0.00000000000E+00  0.00000000000E+00  0.15517355899E+04  0.15517355899E+04  0.00000000000E+00 0. -1.
          1   -1    0    0  501    0 -0.00000000000E+00 -0.00000000000E+00 -0.11000478834E+04  0.11000478834E+04  0.00000000000E+00 0. -1.
         25    2    1    2    0    0  0.19595705855E+03 -0.18148607454E+01 -0.60991563956E+03  0.65271212060E+03  0.12503424525E+03 0.  0.
          2    1    1    2  501    0  0.19309332534E+02  0.20930257953E+02 -0.46066228668E+03  0.46154162152E+03  0.00000000000E+00 0. -1.
          1    1    1    2  502    0 -0.21526639109E+03 -0.19115397208E+02  0.15222656328E+04  0.15375297312E+04  0.00000000000E+00 0. -1.
         22    1    3    3    0    0 -0.17755406140E+02  0.50220604439E+01 -0.41844675199E+02  0.45732399684E+02  0.00000000000E+00 0. -1.
         22    1    3    3    0    0  0.21371246469E+03 -0.68369211894E+01 -0.56807096436E+03  0.60697972092E+03  0.00000000000E+00 0. -1.
</event>
<event>
 7    1  0.6235964E-006  0.7989172E+02  0.7818608E-02  0.1334626E+00
          2   -1    0    0  502    0  0.00000000000E+00  0.00000000000E+00  0.15518707439E+03  0.15518707439E+03  0.00000000000E+00 0. -1.
          1   -1    0    0  501    0 -0.00000000000E+00 -0.00000000000E+00 -0.52848934799E+03  0.52848934799E+03  0.00000000000E+00 0. -1.
         25    2    1    2    0    0 -0.89169584363E+02 -0.12278179223E+03 -0.24039603929E+03  0.31055041509E+03  0.12499888530E+03 0.  0.
          2    1    1    2  501    0  0.37001906313E+02  0.66711161963E+02 -0.23410131519E+03  0.24621727391E+03  0.00000000000E+00 0. -1.
          1    1    1    2  502    0  0.52167678050E+02  0.56070630267E+02  0.10119508088E+03  0.12690873337E+03  0.00000000000E+00 0. -1.
         22    1    3    3    0    0 -0.64471736265E+02 -0.53927971211E+02 -0.32424996913E+02  0.90090017654E+02  0.00000000000E+00 0. -1.
         22    1    3    3    0    0 -0.24697848098E+02 -0.68853821020E+02 -0.20797104238E+03  0.22046039744E+03  0.00000000000E+00 0. -1.
</event>
<event>
 7    1  0.6235964E-006  0.1769874E+03  0.7818608E-02  0.1221845E+00
          2   -1    0    0  502    0  0.00000000000E+00  0.00000000000E+00  0.21913830929E+04  0.21913830929E+04  0.00000000000E+00 0. -1.
          1   -1    0    0  501    0 -0.00000000000E+00 -0.00000000000E+00 -0.98782014790E+03  0.98782014790E+03  0.00000000000E+00 0. -1.
         25    2    1    2    0    0 -0.16349202821E+03 -0.46612447919E+02  0.13486971007E+03  0.25043554951E+03  0.12500304865E+03 0.  0.
          2    1    1    2  501    0  0.17002564265E+03 -0.54411178175E+02 -0.92017128457E+03  0.93732837811E+03  0.00000000000E+00 0. -1.
          1    1    1    2  502    0 -0.65336144398E+01  0.10102362609E+03  0.19888645195E+04  0.19914393132E+04  0.00000000000E+00 0. -1.
         22    1    3    3    0    0 -0.14455745278E+03 -0.72837750842E+02  0.66879269999E+02  0.17514288983E+03  0.00000000000E+00 0.  1.
         22    1    3    3    0    0 -0.18934575433E+02  0.26225302923E+02  0.67990440073E+02  0.75292659679E+02  0.00000000000E+00 0.  1.
</event>
<event>
 7    1  0.6235964E-006  0.5925074E+02  0.7818608E-02  0.1404119E+00
          2   -1    0    0  502    0  0.00000000000E+00  0.00000000000E+00  0.10406651187E+04  0.10406651187E+04  0.00000000000E+00 0. -1.
          1   -1    0    0  501    0 -0.00000000000E+00 -0.00000000000E+00 -0.51395701078E+03  0.51395701078E+03  0.00000000000E+00 0. -1.
         25    2    1    2    0    0 -0.78308881200E+01  0.33309459522E+02  0.57689413413E+03  0.59127225391E+03  0.12500077341E+03 0.  0.
          2    1    1    2  501    0 -0.58947689138E+02 -0.59849540271E+01 -0.50216478575E+03  0.50564821939E+03  0.00000000000E+00 0. -1.
          1    1    1    2  502    0  0.66778577258E+02 -0.27324505494E+02  0.45197875951E+03  0.45770165614E+03  0.00000000000E+00 0. -1.
         22    1    3    3    0    0 -0.20797651597E+02  0.76784917107E+02  0.28584103434E+03  0.29670450404E+03  0.00000000000E+00 0. -1.
         22    1    3    3    0    0  0.12966763477E+02 -0.43475457585E+02  0.29105309979E+03  0.29456774987E+03  0.00000000000E+00 0. -1.
</event>
<event>
 7    1  0.6235964E-006  0.1853124E+03  0.7818608E-02  0.1215074E+00
          2   -1    0    0  502    0  0.00000000000E+00  0.00000000000E+00  0.11967938430E+04  0.11967938430E+04  0.00000000000E+00 0. -1.
          1   -1    0    0  501    0 -0.00000000000E+00 -0.00000000000E+00 -0.24134336495E+03  0.24134336495E+03  0.00000000000E+00 0. -1.
         25    2    1    2    0    0  0.15224576477E+03 -0.21571612669E+03  0.36496386903E+03  0.46747757160E+03  0.12499773620E+03 0.  0.
          2    1    1    2  501    0 -0.86606556321E+02  0.57268805383E+02 -0.16554931739E+03  0.19541491283E+03  0.00000000000E+00 0. -1.
          1    1    1    2  502    0 -0.65639208448E+02  0.15844732130E+03  0.75603592642E+03  0.77524472352E+03  0.00000000000E+00 0. -1.
         22    1    3    3    0    0  0.73801756584E+02 -0.19794788093E+03  0.25268443838E+03  0.32936224471E+03  0.00000000000E+00 0.  1.
         22    1    3    3    0    0  0.78444008185E+02 -0.17768245756E+02  0.11227943064E+03  0.13811532689E+03  0.00000000000E+00 0.  1.
</event>
<event>
 7    1  0.6235964E-006  0.1305319E+03  0.7818608E-02  0.1272807E+00
          2   -1    0    0  502    0  0.00000000000E+00  0.00000000000E+00  0.45159598739E+03  0.45159598739E+03  0.00000000000E+00 0. -1.
          1   -1    0    0  501    0 -0.00000000000E+00 -0.00000000000E+00 -0.12334076437E+04  0.12334076437E+04  0.00000000000E+00 0. -1.
         25    2    1    2    0    0  0.14421638852E+03  0.13940699913E+03  0.53308715227E+01  0.23640508152E+03  0.12500506492E+03 0.  0.
          2    1    1    2  501    0 -0.40701419298E+02 -0.71531975090E+02 -0.11047036392E+04  0.11077651193E+04  0.00000000000E+00 0. -1.
          1    1    1    2  502    0 -0.10351496922E+03 -0.67875024040E+02  0.31756111138E+03  0.34083343029E+03  0.00000000000E+00 0. -1.
         22    1    3    3    0    0  0.12609303120E+03  0.77550214901E+02 -0.44894799844E+02  0.15469011411E+03  0.00000000000E+00 0. -1.
         22    1    3    3    0    0  0.18123357313E+02  0.61856784230E+02  0.50225671366E+02  0.81714967416E+02  0.00000000000E+00 0. -1.
</event>
<event>
 7    1  0.6235964E-006  0.5506379E+02  0.7818608E-02  0.1444557E+00
          2   -1    0    0  502    0  0.00000000000E+00  0.00000000000E+00  0.56144618837E+03  0.56144618837E+03  0.00000000000E+00 0. -1.
          1   -1    0    0  501    0 -0.00000000000E+00 -0.00000000000E+00 -0.57867030219E+03  0.57867030219E+03  0.00000000000E+00 0. -1.
         25    2    1    2    0    0 -0.44630275098E+02 -0.20880499956E+02 -0.62860659043E+02  0.14833799285E+03  0.12499936373E+03 0.  0.
          2    1    1    2  501    0  0.50367263377E+02 -0.24424677311E+02 -0.47040318775E+03  0.47372205471E+03  0.00000000000E+00 0. -1.
          1    1    1    2  502    0 -0.57369882788E+01  0.45305177267E+02  0.51603973297E+03  0.51805644299E+03  0.00000000000E+00 0. -1.
         22    1    3    3    0    0 -0.48674843956E+02  0.13702229244E+02 -0.90643047709E+02  0.10379380337E+03  0.00000000000E+00 0.  1.
         22    1    3    3    0    0  0.40445688583E+01 -0.34582729200E+02  0.27782388666E+02  0.44544189477E+02  0.00000000000E+00 0.  1.
</event>
<event>
 7    1  0.6235964E-006  0.9788061E+02  0.7818608E-02  0.1360669E+00
          2   -1    0    0  502    0  0.00000000000E+00  0.00000000000E+00  0.55280422706E+03  0.55280422706E+03  0.00000000000E+00 0. -1.
          1   -1    0    0  501    0 -0.00000000000E+00 -0.00000000000E+00 -0.20551196186E+03  0.20551196186E+03  0.00000000000E+00 0. -1.
         25    2    1    2    0    0 -0.10778919019E+03  0.15316462188E+02 -0.43506807001E+02  0.17137769052E+03  0.12499746804E+03 0.  0.
          2    1    1    2  501    0  0.15295742347E+02 -0.47413036476E+02 -0.86435484008E+02  0.99764967085E+02  0.00000000000E+00 0. -1.
          1    1    1    2  502    0  0.92493447840E+02  0.32096574288E+02  0.47723455621E+03  0.48717353131E+03  0.00000000000E+00 0. -1.
         22    1    3    3    0    0  0.10601286630E+02 -0.67338004830E+01 -0.49238492099E+02  0.50814962869E+02  0.00000000000E+00 0. -1.
         22    1    3    3    0    0 -0.11839047682E+03  0.22050262671E+02  0.57316850985E+01  0.12056272765E+03  0.00000000000E+00 0. -1.
</event>
<event>
 7    1  0.6235964E-006  0.8116112E+02  0.7818608E-02  0.1451296E+00
          2   -1    0    0  502    0  0.00000000000E+00  0.00000000000E+00  0.31535700098E+03  0.31535700098E+03  0.00000000000E+00 0. -1.
          1   -1    0    0  501    0 -0.00000000000E+00 -0.00000000000E+00 -0.55460621292E+03  0.55460621292E+03  0.00000000000E+00 0. -1.
         25    2    1    2    0    0 -0.61160999166E+02  0.30238373553E+02 -0.24104199079E+03  0.27996616527E+03  0.12499914126E+03 0.  0.
          2    1    1    2  501    0  0.85181865307E+02 -0.13152248090E+02 -0.28702084759E+03  0.29968299711E+03  0.00000000000E+00 0. -1.
          1    1    1    2  502    0 -0.24020866141E+02 -0.17086125463E+02  0.28881362644E+03  0.29031405153E+03  0.00000000000E+00 0. -1.
         22    1    3    3    0    0 -0.12812954103E+02  0.74683114324E+02 -0.14520260626E+03  0.16378503052E+03  0.00000000000E+00 0. -1.
         22    1    3    3    0    0 -0.48348045063E+02 -0.44444740771E+02 -0.95839384536E+02  0.11618113475E+03  0.00000000000E+00 0. -1.
</event>
<event>
 7    1  0.6235964E-006  0.8965408E+02  0.7818608E-02  0.1399547E+00
          2   -1    0    0  502    0  0.00000000000E+00  0.00000000000E+00  0.11349819384E+03  0.11349819384E+03  0.00000000000E+00 0. -1.
          1   -1    0    0  501    0 -0.00000000000E+00 -0.00000000000E+00 -0.69237466581E+03  0.69237466581E+03  0.00000000000E+00 0. -1.
         25    2    1    2    0    0  0.29887311683E+02 -0.51143750020E+02 -0.38619803685E+03  0.41022260273E+03  0.12499890223E+03 0.  0.
          2    1    1    2  501    0 -0.10543327737E+02 -0.38182653711E+02 -0.27185605760E+03  0.27472676036E+03  0.00000000000E+00 0. -1.
          1    1    1    2  502    0 -0.19343983946E+02  0.89326403730E+02  0.79177622476E+02  0.12092349656E+03  0.00000000000E+00 0. -1.
         22    1    3    3    0    0  0.70670221959E+02 -0.26072438040E+02 -0.13582775118E+03  0.15531654866E+03  0.00000000000E+00 0. -1.
         22    1    3    3    0    0 -0.40782910276E+02 -0.25071311980E+02 -0.25037028567E+03  0.25490605407E+03  0.00000000000E+00 0. -1.
</event>
<event>
 7    1  0.6235964E-006  0.9508570E+02  0.7818608E-02  0.1364911E+00
          2   -1    0    0  502    0  0.00000000000E+00  0.00000000000E+00  0.25616516320E+04  0.25616516320E+04  0.00000000000E+00 0. -1.
          1   -1    0    0  501    0 -0.00000000000E+00 -0.00000000000E+00 -0.83478682661E+03  0.83478682661E+03  0.00000000000E+00 0. -1.
         25    2    1    2    0    0  0.12730515185E+03  0.10066204274E+02  0.30382707746E+03  0.35248290913E+03  0.12500151227E+03 0.  0.
          2    1    1    2  501    0 -0.36285423135E+02 -0.33662606735E+02 -0.80871233283E+03  0.81022554903E+03  0.00000000000E+00 0. -1.
          1    1    1    2  502    0 -0.91019728718E+02  0.23596402461E+02  0.22317500608E+04  0.22337300005E+04  0.00000000000E+00 0. -1.
         22    1    3    3    0    0 -0.11979524227E+01  0.98300602002E+01  0.15721258042E+03  0.15752415883E+03  0.00000000000E+00 0.  1.
         22    1    3    3    0    0  0.12850310428E+03  0.23614407336E+00  0.14661449704E+03  0.19495875029E+03  0.00000000000E+00 0.  1.
</event>
<event>
 7    1  0.6235964E-006  0.4329197E+02  0.7818608E-02  0.1558447E+00
          2   -1    0    0  502    0  0.00000000000E+00  0.00000000000E+00  0.14988844595E+04  0.14988844595E+04  0.00000000000E+00 0. -1.
          1   -1    0    0  501    0 -0.00000000000E+00 -0.00000000000E+00 -0.23270233118E+02  0.23270233118E+02  0.00000000000E+00 0. -1.
         25    2    1    2    0    0  0.51643020451E+02  0.41704073692E+02  0.77432105517E+03  0.78714969524E+03  0.12500125965E+03 0.  0.
          2    1    1    2  501    0 -0.15819808531E+02 -0.21347034937E+02 -0.53987819762E+01  0.27112895260E+02  0.00000000000E+00 0. -1.
          1    1    1    2  502    0 -0.35823211920E+02 -0.20357038756E+02  0.70669195321E+03  0.70789210214E+03  0.00000000000E+00 0. -1.
         22    1    3    3    0    0 -0.21430514956E+02 -0.23782291742E+02  0.35768925440E+03  0.35911901521E+03  0.00000000000E+00 0. -1.
         22    1    3    3    0    0  0.73073535407E+02  0.65486365434E+02  0.41663180077E+03  0.42803068003E+03  0.00000000000E+00 0. -1.
</event>
<event>
 7    1  0.6235964E-006  0.7058944E+02  0.7818608E-02  0.1423476E+00
          2   -1    0    0  502    0  0.00000000000E+00  0.00000000000E+00  0.37295589680E+03  0.37295589680E+03  0.00000000000E+00 0. -1.
          1   -1    0    0  501    0 -0.00000000000E+00 -0.00000000000E+00 -0.10449330716E+04  0.10449330716E+04  0.00000000000E+00 0. -1.
         25    2    1    2    0    0 -0.10425591907E+03  0.69305910098E+01  0.30428655933E+02  0.16571398769E+03  0.12497156821E+03 0.  0.
          2    1    1    2  501    0  0.36820873703E+02 -0.19695344018E+02 -0.97255139258E+03  0.97344742771E+03  0.00000000000E+00 0. -1.
          1    1    1    2  502    0  0.67435045362E+02  0.12764753008E+02  0.27014556180E+03  0.27872755304E+03  0.00000000000E+00 0. -1.
         22    1    3    3    0    0  0.43836745143E+01 -0.26294950834E+02  0.43849890382E+02  0.51317189402E+02  0.00000000000E+00 0.  1.
         22    1    3    3    0    0 -0.10863959358E+03  0.33225541844E+02 -0.13421234449E+02  0.11439679829E+03  0.00000000000E+00 0.  1.
</event>
<event>
 7    1  0.6235964E-006  0.9877097E+02  0.7818608E-02  0.1444420E+00
          2   -1    0    0  502    0  0.00000000000E+00  0.00000000000E+00  0.15596605367E+03  0.15596605367E+03  0.00000000000E+00 0. -1.
          1   -1    0    0  501    0 -0.00000000000E+00 -0.00000000000E+00 -0.12975150211E+04  0.12975150211E+04  0.00000000000E+00 0. -1.
         25    2    1    2    0    0  0.73570915664E+02 -0.40880490380E+01 -0.10270393380E+04  0.10372385087E+04  0.12499812153E+03 0.  0.
          2    1    1    2  501    0  0.25454246032E+02 -0.12472792382E+01 -0.24835668601E+03  0.24966080556E+03  0.00000000000E+00 0. -1.
          1    1    1    2  502    0 -0.99025161697E+02  0.53353282762E+01  0.13384705657E+03  0.16658176050E+03  0.00000000000E+00 0. -1.
         22    1    3    3    0    0  0.49272700892E+00  0.41743178815E+02 -0.14210764871E+03  0.14811252337E+03  0.00000000000E+00 0. -1.
         22    1    3    3    0    0  0.73078188655E+02 -0.45831227853E+02 -0.88493168929E+03  0.88912598534E+03  0.00000000000E+00 0. -1.
</event>
<event>
 7    1  0.6235964E-006  0.5479551E+02  0.7818608E-02  0.1440870E+00
          2   -1    0    0  502    0  0.00000000000E+00  0.00000000000E+00  0.37064364101E+03  0.37064364101E+03  0.00000000000E+00 0. -1.
          1   -1    0    0  501    0 -0.00000000000E+00 -0.00000000000E+00 -0.19936038296E+03  0.19936038296E+03  0.00000000000E+00 0. -1.
         25    2    1    2    0    0  0.20161790685E+02  0.18999192527E+02  0.47473247654E+02  0.13654575199E+03  0.12499426396E+03 0.  0.
          2    1    1    2  501    0  0.85918261654E+01 -0.56389112669E+02 -0.14746550577E+03  0.15811270315E+03  0.00000000000E+00 0. -1.
          1    1    1    2  502    0 -0.28753616851E+02  0.37389920142E+02  0.27127551616E+03  0.27534556883E+03  0.00000000000E+00 0. -1.
         22    1    3    3    0    0  0.28549554285E+02  0.13219723939E+02  0.88681617681E+02  0.94097117200E+02  0.00000000000E+00 0. -1.
         22    1    3    3    0    0 -0.83877635998E+01  0.57794685881E+01 -0.41208370027E+02  0.42448634791E+02  0.00000000000E+00 0. -1.
</event>
<event>
 7    1  0.6235964E-006  0.6736912E+02  0.7818608E-02  0.1422321E+00
          2   -1    0    0  502    0  0.00000000000E+00  0.00000000000E+00  0.97028300033E+03  0.97028300033E+03  0.00000000000E+00 0. -1.
          1   -1    0    0  501    0 -0.00000000000E+00 -0.00000000000E+00 -0.31767004223E+03  0.31767004223E+03  0.00000000000E+00 0. -1.
         25    2    1    2    0    0 -0.14531249847E+02  0.37378720515E+02 -0.76384440953E+00  0.13127760979E+03  0.12499960561E+03 0.  0.
          2    1    1    2  501    0  0.58667907664E+02 -0.38088714596E+02 -0.24623706273E+03  0.25597922695E+03  0.00000000000E+00 0. -1.
          1    1    1    2  502    0 -0.44136657817E+02  0.70999408024E+00  0.89961386524E+03  0.90069620582E+03  0.00000000000E+00 0. -1.
         22    1    3    3    0    0  0.17987990985E+02  0.47461522631E+02 -0.50110958338E+02  0.71325115462E+02  0.00000000000E+00 0.  1.
         22    1    3    3    0    0 -0.32519240832E+02 -0.10082802115E+02  0.49347113928E+02  0.59952494325E+02  0.00000000000E+00 0.  1.
</event>
<event>
 7    1  0.6235964E-006  0.3135517E+02  0.7818608E-02  0.1585577E+00
          2   -1    0    0  502    0  0.00000000000E+00  0.00000000000E+00  0.29793441834E+03  0.29793441834E+03  0.00000000000E+00 0. -1.
          1   -1    0    0  501    0 -0.00000000000E+00 -0.00000000000E+00 -0.41765728316E+03  0.41765728316E+03  0.00000000000E+00 0. -1.
         25    2    1    2    0    0  0.66774521291E+01  0.72477341665E+01  0.90306645471E+02  0.15452542207E+03  0.12500279129E+03 0.  0.
          2    1    1    2  501    0 -0.27147858094E+02  0.15995411839E+02 -0.38353039622E+03  0.38482258799E+03  0.00000000000E+00 0. -1.
          1    1    1    2  502    0  0.20470405965E+02 -0.23243146005E+02  0.17350088593E+03  0.17624369144E+03  0.00000000000E+00 0. -1.
         22    1    3    3    0    0  0.11111804205E+02 -0.41444734339E+02 -0.89932247307E+01  0.43840806199E+02  0.00000000000E+00 0. -1.
         22    1    3    3    0    0 -0.44343520754E+01  0.48692468506E+02  0.99299870202E+02  0.11068461587E+03  0.00000000000E+00 0. -1.
</event>
<event>
 7    1  0.6235964E-006  0.5901123E+02  0.7818608E-02  0.1512785E+00
          2   -1    0    0  502    0  0.00000000000E+00  0.00000000000E+00  0.13180033354E+04  0.13180033354E+04  0.00000000000E+00 0. -1.
          1   -1    0    0  501    0 -0.00000000000E+00 -0.00000000000E+00 -0.28061326251E+03  0.28061326251E+03  0.00000000000E+00 0. -1.
         25    2    1    2    0    0  0.33514567703E+02  0.29511196165E+02 -0.22765665150E+02  0.13467540108E+03  0.12500020479E+03 0.  0.
          2    1    1    2  501    0 -0.94272600516E+01  0.24537737409E+02 -0.20034007403E+03  0.20205721727E+03  0.00000000000E+00 0. -1.
          1    1    1    2  502    0 -0.24087307651E+02 -0.54048933574E+02  0.12604958121E+04  0.12618839796E+04  0.00000000000E+00 0. -1.
         22    1    3    3    0    0  0.64825684076E+01 -0.33370901701E+02  0.32250983057E+02  0.46859008543E+02  0.00000000000E+00 0.  1.
         22    1    3    3    0    0  0.27031999295E+02  0.62882097866E+02 -0.55016648207E+02  0.87816392535E+02  0.00000000000E+00 0.  1.
</event>
<event>
 7    1  0.6235964E-006  0.6365387E+02  0.7818608E-02  0.1408064E+00
          2   -1    0    0  502    0  0.00000000000E+00  0.00000000000E+00  0.53211498904E+03  0.53211498904E+03  0.00000000000E+00 0. -1.
          1   -1    0    0  501    0 -0.00000000000E+00 -0.00000000000E+00 -0.45648517430E+03  0.45648517430E+03  0.00000000000E+00 0. -1.
         25    2    1    2    0    0  0.67893387110E+02  0.15396743318E+02 -0.62907573906E+02  0.15629751243E+03  0.12499991128E+03 0.  0.
          2    1    1    2  501    0 -0.34506946081E+02  0.39131589390E+02 -0.34279485042E+03  0.34674244056E+03  0.00000000000E+00 0. -1.
          1    1    1    2  502    0 -0.33386441029E+02 -0.54528332708E+02  0.48133223906E+03  0.48556021035E+03  0.00000000000E+00 0. -1.
         22    1    3    3    0    0 -0.93994573469E+01  0.13132802415E+02  0.30816749001E+02  0.34792130097E+02  0.00000000000E+00 0.  1.
         22    1    3    3    0    0  0.77292844457E+02  0.22639409030E+01 -0.93724322906E+02  0.12150538234E+03  0.00000000000E+00 0.  1.
</event>
<event>
 7    1  0.6235964E-006  0.1162721E+03  0.7818608E-02  0.1377737E+00
          2   -1    0    0  502    0  0.00000000000E+00  0.00000000000E+00  0.14678150131E+04  0.14678150131E+04  0.00000000000E+00 0. -1.
          1   -1    0    0  501    0 -0.00000000000E+00 -0.00000000000E+00 -0.74224761801E+03  0.74224761801E+03  0.00000000000E+00 0. -1.
         25    2    1    2    0    0  0.57438245377E+02  0.89847036515E+02  0.19882929437E+03  0.25793370632E+03  0.12500026622E+03 0.  0.
          2    1    1    2  501    0 -0.29225845841E+02 -0.11285842587E+03 -0.70765770503E+03  0.71719634818E+03  0.00000000000E+00 0. -1.
          1    1    1    2  502    0 -0.28212399536E+02  0.23011389355E+02  0.12343958058E+04  0.12349325767E+04  0.00000000000E+00 0. -1.
         22    1    3    3    0    0  0.59358045665E+02  0.69231062538E+02  0.43156563468E+02  0.10089007174E+03  0.00000000000E+00 0.  1.
         22    1    3    3    0    0 -0.19198002878E+01  0.20615973977E+02  0.15567273090E+03  0.15704363458E+03  0.00000000000E+00 0.  1.
</event>
<event>
 7    1  0.6235964E-006  0.6323991E+02  0.7818608E-02  0.1465227E+00
          2   -1    0    0  502    0  0.00000000000E+00  0.00000000000E+00  0.22727839264E+04  0.22727839264E+04  0.00000000000E+00 0. -1.
          1   -1    0    0  501    0 -0.00000000000E+00 -0.00000000000E+00 -0.37801678835E+02  0.37801678835E+02  0.00000000000E+00 0. -1.
         25    2    1    2    0    0 -0.19403857059E+02 -0.92479622038E+02  0.83554165231E+03  0.85010832307E+03  0.12500127221E+03 0.  0.
          2    1    1    2  501    0  0.96817461127E+01  0.32782039043E+02 -0.20096752497E+02  0.39651957739E+02  0.00000000000E+00 0. -1.
          1    1    1    2  502    0  0.97221109465E+01  0.59697582995E+02  0.14195373478E+04  0.14208253244E+04  0.00000000000E+00 0. -1.
         22    1    3    3    0    0 -0.69634808763E+02 -0.42292043021E+02  0.34715936229E+03  0.35659114729E+03  0.00000000000E+00 0. -1.
         22    1    3    3    0    0  0.50230951704E+02 -0.50187579017E+02  0.48838229002E+03  0.49351717579E+03  0.00000000000E+00 0. -1.
</event>
<event>
 7    1  0.6235964E-006  0.1757038E+03  0.7818608E-02  0.1230766E+00
          2   -1    0    0  502    0  0.00000000000E+00  0.00000000000E+00  0.21465180867E+04  0.21465180867E+04  0.00000000000E+00 0. -1.
          1   -1    0    0  501    0 -0.00000000000E+00 -0.00000000000E+00 -0.13278345287E+04  0.13278345287E+04  0.00000000000E+00 0. -1.
         25    2    1    2    0    0 -0.10838704258E+03 -0.13236925610E+03  0.38977434210E+03  0.44364286173E+03  0.12500232015E+03 0.  0.
          2    1    1    2  501    0 -0.60702111912E+02  0.70389281754E+02 -0.12945421503E+04  0.12978747152E+04  0.00000000000E+00 0. -1.
          1    1    1    2  502    0  0.16908915449E+03  0.61979974347E+02  0.17234513662E+04  0.17328350386E+04  0.00000000000E+00 0. -1.
         22    1    3    3    0    0 -0.13596956371E+03 -0.12095114377E+03  0.33137902093E+03  0.37805946219E+03  0.00000000000E+00 0. -1.
         22    1    3    3    0    0  0.27582521132E+02 -0.11418112333E+02  0.58395321163E+02  0.65583399538E+02  0.00000000000E+00 0. -1.
</event>
<event>
 7    1  0.6235964E-006  0.7125642E+02  0.7818608E-02  0.1357848E+00
          2   -1    0    0  502    0  0.00000000000E+00  0.00000000000E+00  0.19410142373E+04  0.19410142373E+04  0.00000000000E+00 0. -1.
          1   -1    0    0  501    0 -0.00000000000E+00 -0.00000000000E+00 -0.73697436828E+03  0.73697436828E+03  0.00000000000E+00 0. -1.
         25    2    1    2    0    0  0.84482106867E+01  0.47500559925E+02  0.16766161431E+03  0.21461912095E+03  0.12499309865E+03 0.  0.
          2    1    1    2  501    0  0.62681433784E+02 -0.31334999764E+02 -0.71101216790E+03  0.71445723963E+03  0.00000000000E+00 0. -1.
          1    1    1    2  502    0 -0.71129644470E+02 -0.16165560161E+02  0.17473904226E+04  0.17489122450E+04  0.00000000000E+00 0. -1.
         22    1    3    3    0    0 -0.40267153103E+02  0.58911148506E+02  0.51085094424E+02  0.87759067393E+02  0.00000000000E+00 0.  1.
         22    1    3    3    0    0  0.48715363789E+02 -0.11410588581E+02  0.11657651988E+03  0.12686005356E+03  0.00000000000E+00 0.  1.
</event>
<event>
 7    1  0.6235964E-006  0.6793328E+02  0.7818608E-02  0.1434415E+00
          2   -1    0    0  502    0  0.00000000000E+00  0.00000000000E+00  0.15498546810E+03  0.15498546810E+03  0.00000000000E+00 0. -1.
          1   -1    0    0  501    0 -0.00000000000E+00 -0.00000000000E+00 -0.16617397633E+04  0.16617397633E+04  0.00000000000E+00 0. -1.
         25    2    1    2    0    0  0.46625132061E+02  0.17857322150E+02 -0.69624705295E+03  0.70913886446E+03  0.12500073382E+03 0.  0.
          2    1    1    2  501    0 -0.72071074184E+02  0.12917693387E+02 -0.95493598088E+03  0.95773891751E+03  0.00000000000E+00 0. -1.
          1    1    1    2  502    0  0.25445942123E+02 -0.30775015537E+02  0.14442873863E+03  0.14984744941E+03  0.00000000000E+00 0. -1.
         22    1    3    3    0    0  0.54452944087E+02  0.47528250601E+02 -0.64760822200E+03  0.65162908692E+03  0.00000000000E+00 0.  1.
         22    1    3    3    0    0 -0.78278120263E+01 -0.29670928451E+02 -0.48638830951E+02  0.57509777539E+02  0.00000000000E+00 0.  1.
</event>
<event>
 7    1  0.6235964E-006  0.5695179E+02  0.7818608E-02  0.1496907E+00
          2   -1    0    0  502    0  0.00000000000E+00  0.00000000000E+00  0.57896542297E+03  0.57896542297E+03  0.00000000000E+00 0. -1.
          1   -1    0    0  501    0 -0.00000000000E+00 -0.00000000000E+00 -0.25319894226E+04  0.25319894226E+04  0.00000000000E+00 0. -1.
         25    2    1    2    0    0  0.67812161259E+02  0.15437870496E+02 -0.22917073370E+02  0.14486292809E+03  0.12499303430E+03 0.  0.
          2    1    1    2  501    0 -0.44749876739E+02 -0.35175007927E+02 -0.24473235167E+04  0.24479853406E+04  0.00000000000E+00 0. -1.
          1    1    1    2  502    0 -0.23062284520E+02  0.19737137432E+02  0.51721659043E+03  0.51810657685E+03  0.00000000000E+00 0. -1.
         22    1    3    3    0    0  0.24431975597E+02  0.50867778166E+01  0.51998664881E+02  0.57677186907E+02  0.00000000000E+00 0.  1.
         22    1    3    3    0    0  0.43380185662E+02  0.10351092679E+02 -0.74915738251E+02  0.87185741181E+02  0.00000000000E+00 0.  1.
</event>
<event>
 7    1  0.6235964E-006  0.1824659E+03  0.7818608E-02  0.1212118E+00
          2   -1    0    0  502    0  0.00000000000E+00  0.00000000000E+00  0.11233291389E+04  0.11233291389E+04  0.00000000000E+00 0. -1.
          1   -1    0    0  501    0 -0.00000000000E+00 -0.00000000000E+00 -0.10500220552E+04  0.10500220552E+04  0.00000000000E+00 0. -1.
         25    2    1    2    0    0  0.10790444560E+03  0.87178789282E+02  0.35365767426E+03  0.39992770886E+03  0.12499964427E+03 0.  0.
          2    1    1    2  501    0 -0.47591148697E+02 -0.17774101241E+03 -0.10146030020E+04  0.10311527707E+04  0.00000000000E+00 0. -1.
          1    1    1    2  502    0 -0.60313296903E+02  0.90562223126E+02  0.73425241140E+03  0.74227071456E+03  0.00000000000E+00 0. -1.
         22    1    3    3    0    0  0.10890111987E+03  0.10447686220E+03  0.23018571459E+03  0.27524594792E+03  0.00000000000E+00 0. -1.
         22    1    3    3    0    0 -0.99667426635E+00 -0.17298072920E+02  0.12347195966E+03  0.12468176093E+03  0.00000000000E+00 0. -1.
</event>
<event>
 7    1  0.6235964E-006  0.1680211E+03  0.7818608E-02  0.1256192E+00
          2   -1    0    0  502    0  0.00000000000E+00  0.00000000000E+00  0.64538276043E+03  0.64538276043E+03  0.00000000000E+00 0. -1.
          1   -1    0    0  501    0 -0.00000000000E+00 -0.00000000000E+00 -0.45887534922E+03  0.45887534922E+03  0.00000000000E+00 0. -1.
         25    2    1    2    0    0  0.70135425600E+02  0.16777229803E+03  0.33586825906E+02  0.22320616127E+03  0.12500557445E+03 0.  0.
          2    1    1    2  501    0  0.52972937949E+02 -0.53360320261E+02 -0.34626465440E+03  0.35433411749E+03  0.00000000000E+00 0. -1.
          1    1    1    2  502    0 -0.12310836355E+03 -0.11441197777E+03  0.49918523970E+03  0.52671783088E+03  0.00000000000E+00 0. -1.
         22    1    3    3    0    0  0.10269948971E+03  0.91019690965E+02  0.23432834049E+02  0.13921518251E+03  0.00000000000E+00 0.  1.
         22    1    3    3    0    0 -0.32564064107E+02  0.76752607066E+02  0.10153991858E+02  0.83990978762E+02  0.00000000000E+00 0.  1.
</event>
<event>
 7    1  0.6235964E-006  0.1409027E+03  0.7818608E-02  0.1219722E+00
          2   -1    0    0  502    0  0.00000000000E+00  0.00000000000E+00  0.45489142689E+03  0.45489142689E+03  0.00000000000E+00 0. -1.
          1   -1    0    0  501    0 -0.00000000000E+00 -0.00000000000E+00 -0.10574968327E+04  0.10574968327E+04  0.00000000000E+00 0. -1.
         25    2    1    2    0    0  0.19884425008E+02 -0.46810250949E+02 -0.15385061088E+03  0.20464859109E+03  0.12499778165E+03 0.  0.
          2    1    1    2  501    0  0.94943189757E+02  0.12846923854E+03 -0.85912662542E+03  0.87385188278E+03  0.00000000000E+00 0. -1.
          1    1    1    2  502    0 -0.11482761477E+03 -0.81658987594E+02  0.41037183047E+03  0.43388778573E+03  0.00000000000E+00 0. -1.
         22    1    3    3    0    0  0.26512475545E+02  0.32533851802E+02 -0.14960708722E+02  0.44555422544E+02  0.00000000000E+00 0. -1.
         22    1    3    3    0    0 -0.66280505370E+01 -0.79344102751E+02 -0.13888990215E+03  0.16009316855E+03  0.00000000000E+00 0. -1.
</event>
<event>
 7    1  0.6235964E-006  0.4804497E+02  0.7818608E-02  0.1463106E+00
          2   -1    0    0  502    0  0.00000000000E+00  0.00000000000E+00  0.10433669525E+04  0.10433669525E+04  0.00000000000E+00 0. -1.
          1   -1    0    0  501    0 -0.00000000000E+00 -0.00000000000E+00 -0.87664966280E+03  0.87664966280E+03  0.00000000000E+00 0. -1.
         25    2    1    2    0    0  0.50407741901E+02 -0.52573604923E+02  0.17329989946E+03  0.22575209284E+03  0.12500491147E+03 0.  0.
          2    1    1    2  501    0 -0.31365808017E+01  0.45578842751E+02 -0.84913247116E+03  0.85036064268E+03  0.00000000000E+00 0. -1.
          1    1    1    2  502    0 -0.47271161099E+02  0.69947621713E+01  0.84254986140E+03  0.84390387979E+03  0.00000000000E+00 0. -1.
         22    1    3    3    0    0 -0.37825280337E+02 -0.72603093426E+01  0.83488813274E+02  0.91944797929E+02  0.00000000000E+00 0.  1.
         22    1    3    3    0    0  0.88233022238E+02 -0.45313295580E+02  0.89811086182E+02  0.13380729491E+03  0.00000000000E+00 0.  1.
</event>
<event>
 7    1  0.6235964E-006  0.1505058E+03  0.7818608E-02  0.1298106E+00
          2   -1    0    0  502    0  0.00000000000E+00  0.00000000000E+00  0.19261079130E+03  0.19261079130E+03  0.00000000000E+00 0. -1.
          1   -1    0    0  501    0 -0.00000000000E+00 -0.00000000000E+00 -0.10448494006E+04  0.10448494006E+04  0.00000000000E+00 0. -1.
         25    2    1    2    0    0 -0.11086868874E+03 -0.75364387382E+02 -0.18400045664E+03  0.25971847265E+03  0.12500343981E+03 0.  0.
          2    1    1    2  501    0  0.88950657548E+02  0.12713958549E+03 -0.81026644192E+03  0.82498993968E+03  0.00000000000E+00 0. -1.
          1    1    1    2  502    0  0.21918031188E+02 -0.51775198110E+02  0.14202828923E+03  0.15275177960E+03  0.00000000000E+00 0. -1.
         22    1    3    3    0    0 -0.10467878628E+02 -0.19882149117E+02  0.17076583983E+02  0.28222084562E+02  0.00000000000E+00 0.  1.
         22    1    3    3    0    0 -0.10040081011E+03 -0.55482238265E+02 -0.20107704062E+03  0.23149638809E+03  0.00000000000E+00 0.  1.
</event>
<event>
 7    1  0.6235964E-006  0.1275676E+03  0.7818608E-02  0.1272867E+00
          2   -1    0    0  502    0  0.00000000000E+00  0.00000000000E+00  0.11808569519E+04  0.11808569519E+04  0.00000000000E+00 0. -1.
          1   -1    0    0  501    0 -0.00000000000E+00 -0.00000000000E+00 -0.11154969932E+04  0.11154969932E+04  0.00000000000E+00 0. -1.
         25    2    1    2    0    0  0.11501411548E+03 -0.13488286581E+02 -0.42396369101E+02  0.17559135792E+03  0.12499876891E+03 0.  0.
          2    1    1    2  501    0 -0.89858304924E+02  0.93805637945E+02 -0.10007098913E+04  0.10091056928E+04  0.00000000000E+00 0. -1.
          1    1    1    2  502    0 -0.25155810552E+02 -0.80317351363E+02  0.11084662191E+04  0.11116568943E+04  0.00000000000E+00 0. -1.
         22    1    3    3    0    0  0.59254962546E+02 -0.66774398931E+02 -0.38222702790E+01  0.89356480957E+02  0.00000000000E+00 0.  1.
         22    1    3    3    0    0  0.55759152930E+02  0.53286112350E+02 -0.38574098822E+02  0.86234876963E+02  0.00000000000E+00 0.  1.
</event>
<event>
 7    1  0.6235964E-006  0.1186816E+03  0.7818608E-02  0.1333993E+00
          2   -1    0    0  502    0  0.00000000000E+00  0.00000000000E+00  0.52917295751E+03  0.52917295751E+03  0.00000000000E+00 0. -1.
          1   -1    0    0  501    0 -0.00000000000E+00 -0.00000000000E+00 -0.46713933459E+03  0.46713933459E+03  0.00000000000E+00 0. -1.
         25    2    1    2    0    0  0.88254567099E+02  0.63532101128E+02 -0.13476826067E+03  0.21357203951E+03  0.12500134195E+03 0.  0.
          2    1    1    2  501    0 -0.62058483622E+02 -0.10803104456E+03 -0.27826118347E+03  0.30487907145E+03  0.00000000000E+00 0. -1.
          1    1    1    2  502    0 -0.26196083477E+02  0.44498943428E+02  0.47506306706E+03  0.47786118114E+03  0.00000000000E+00 0. -1.
         22    1    3    3    0    0  0.10357585007E+03  0.57579167372E+01 -0.10165810208E+03  0.14524283129E+03  0.00000000000E+00 0. -1.
         22    1    3    3    0    0 -0.15321282973E+02  0.57774184391E+02 -0.33110158585E+02  0.68329208216E+02  0.00000000000E+00 0. -1.
</event>
<event>
 7    1  0.6235964E-006  0.1049612E+03  0.7818608E-02  0.1385800E+00
          2   -1    0    0  502    0  0.00000000000E+00  0.00000000000E+00  0.65598797821E+02  0.65598797821E+02  0.00000000000E+00 0. -1.
          1   -1    0    0  501    0 -0.00000000000E+00 -0.00000000000E+00 -0.14520834768E+04  0.14520834768E+04  0.00000000000E+00 0. -1.
         25    2    1    2    0    0  0.27796691261E+02 -0.65337096890E+02 -0.47344942033E+03  0.49479549459E+03  0.12500654215E+03 0.  0.
          2    1    1    2  501    0  0.15722130674E+02 -0.34342393542E+02 -0.91334042253E+03  0.91412106026E+03  0.00000000000E+00 0. -1.
          1    1    1    2  502    0 -0.43518821935E+02  0.99679490431E+02  0.30516386574E+00  0.10876571978E+03  0.00000000000E+00 0. -1.
         22    1    3    3    0    0 -0.19460999509E+02 -0.21547402144E+02 -0.16639799587E+02  0.33464966328E+02  0.00000000000E+00 0. -1.
         22    1    3    3    0    0  0.47257690770E+02 -0.43789694745E+02 -0.45680962074E+03  0.46133052826E+03  0.00000000000E+00 0. -1.
</event>
<event>
 7    1  0.6235964E-006  0.5447639E+02  0.7818608E-02  0.1486437E+00
          2   -1    0    0  502    0  0.00000000000E+00  0.00000000000E+00  0.33308748276E+04  0.33308748276E+04  0.00000000000E+00 0. -1.
          1   -1    0    0  501    0 -0.00000000000E+00 -0.00000000000E+00 -0.39835502603E+02  0.39835502603E+02  0.00000000000E+00 0. -1.
         25    2    1    2    0    0  0.75027628573E+02 -0.35122534041E+02  0.95592973761E+03  0.96762076618E+03  0.12500218580E+03 0.  0.
          2    1    1    2  501    0 -0.34108542421E+02  0.12012273232E+01 -0.25047207521E+02  0.42334362140E+02  0.00000000000E+00 0. -1.
          1    1    1    2  502    0 -0.40919086152E+02  0.33921306718E+02  0.23601567949E+04  0.23607552018E+04  0.00000000000E+00 0. -1.
         22    1    3    3    0    0  0.30495610217E+01  0.13400415768E+02  0.83659440840E+01  0.16089126316E+02  0.00000000000E+00 0.  1.
         22    1    3    3    0    0  0.71978067551E+02 -0.48522949809E+02  0.94756379352E+03  0.95153163986E+03  0.00000000000E+00 0.  1.
</event>
<event>
 7    1  0.6235964E-006  0.6513874E+02  0.7818608E-02  0.1422214E+00
          2   -1    0    0  502    0  0.00000000000E+00  0.00000000000E+00  0.10798154228E+04  0.10798154228E+04  0.00000000000E+00 0. -1.
          1   -1    0    0  501    0 -0.00000000000E+00 -0.00000000000E+00 -0.55786959075E+02  0.55786959075E+02  0.00000000000E+00 0. -1.
         25    2    1    2    0    0 -0.80183055353E+01 -0.38345433303E+02  0.25402138070E+03  0.28580437796E+03  0.12499046016E+03 0.  0.
          2    1    1    2  501    0 -0.45503748833E+02 -0.41349306795E+01 -0.24848341412E+02  0.52010853487E+02  0.00000000000E+00 0. -1.
          1    1    1    2  502    0  0.53522054368E+02  0.42480363983E+02  0.79485542440E+03  0.79778715039E+03  0.00000000000E+00 0. -1.
         22    1    3    3    0    0 -0.63277262419E+02  0.75783977774E+00  0.12106083384E+03  0.13660275162E+03  0.00000000000E+00 0. -1.
         22    1    3    3    0    0  0.55258956883E+02 -0.39103273081E+02  0.13296054686E+03  0.14920162634E+03  0.00000000000E+00 0. -1.
</event>
<event>
 7    1  0.6235964E-006  0.8077860E+02  0.7818608E-02  0.1365975E+00
          2   -1    0    0  502    0  0.00000000000E+00  0.00000000000E+00  0.23712563257E+04  0.23712563257E+04  0.00000000000E+00 0. -1.
          1   -1    0    0  501    0 -0.00000000000E+00 -0.00000000000E+00 -0.10553697703E+04  0.10553697703E+04  0.00000000000E+00 0. -1.
         25    2    1    2    0    0 -0.70575992974E+01 -0.24775414136E+02  0.14224159316E+03  0.19110678939E+03  0.12500201308E+03 0.  0.
          2    1    1    2  501    0  0.30453060946E+01 -0.57666994525E+02 -0.10293550324E+04  0.10309735879E+04  0.00000000000E+00 0. -1.
          1    1    1    2  502    0  0.40122932028E+01  0.82442408662E+02  0.22029999947E+04  0.22045457187E+04  0.00000000000E+00 0. -1.
         22    1    3    3    0    0 -0.27548703846E+02 -0.45199903046E+02  0.15169857220E+03  0.16066866255E+03  0.00000000000E+00 0.  1.
         22    1    3    3    0    0  0.20491104548E+02  0.20424488910E+02 -0.94569790414E+01  0.30438126838E+02  0.00000000000E+00 0.  1.
</event>
<event>
 7    1  0.6235964E-006  0.5546809E+02  0.7818608E-02  0.1500542E+00
          2   -1    0    0  502    0  0.00000000000E+00  0.00000000000E+00  0.22713584935E+03  0.22713584935E+03  0.00000000000E+00 0. -1.
          1   -1    0    0  501    0 -0.00000000000E+00 -0.00000000000E+00 -0.26517409854E+03  0.26517409854E+03  0.00000000000E+00 0. -1.
         25    2    1    2    0    0  0.66254832448E+02  0.49402507146E+02 -0.61387335168E+02  0.16193773448E+03  0.12500045758E+03 0.  0.
          2    1    1    2  501    0 -0.39048058862E+02 -0.35847080442E+02 -0.14755436341E+03  0.15678665198E+03  0.00000000000E+00 0. -1.
          1    1    1    2  502    0 -0.27206773586E+02 -0.13555426703E+02  0.17090344939E+03  0.17358556143E+03  0.00000000000E+00 0. -1.
         22    1    3    3    0    0  0.18838403401E+02  0.78644047972E+02 -0.68235351349E+02  0.10581037236E+03  0.00000000000E+00 0.  1.
         22    1    3    3    0    0  0.47416429047E+02 -0.29241540827E+02  0.68480161813E+01  0.56127362125E+02  0.00000000000E+00 0.  1.
</event>
<event>
 7    1  0.6235964E-006  0.7296171E+02  0.7818608E-02  0.1376746E+00
          2   -1    0    0  502    0  0.00000000000E+00  0.00000000000E+00  0.29223599203E+03  0.29223599203E+03  0.00000000000E+00 0. -1.
          1   -1    0    0  501    0 -0.00000000000E+00 -0.00000000000E+00 -0.28028029022E+04  0.28028029022E+04  0.00000000000E+00 0. -1.
         25    2    1    2    0    0  0.40460768598E+02 -0.79991671716E+02 -0.14302089574E+04  0.14384568588E+04  0.12499892577E+03 0.  0.
          2    1    1    2  501    0  0.26907312383E+02  0.51934481256E+02 -0.13632116129E+04  0.13644658645E+04  0.00000000000E+00 0. -1.
          1    1    1    2  502    0 -0.67368080981E+02  0.28057190460E+02  0.28285366014E+03  0.29211617094E+03  0.00000000000E+00 0. -1.
         22    1    3    3    0    0 -0.23004283819E+02 -0.82654116346E+02 -0.98656085598E+03  0.99028441499E+03  0.00000000000E+00 0.  1.
         22    1    3    3    0    0  0.63465052417E+02  0.26624446296E+01 -0.44364810140E+03  0.44817244378E+03  0.00000000000E+00 0.  1.
</event>
<event>
 7    1  0.6235964E-006  0.7337573E+02  0.7818608E-02  0.1401408E+00
          2   -1    0    0  502    0  0.00000000000E+00  0.00000000000E+00  0.39015132372E+02  0.39015132372E+02  0.00000000000E+00 0. -1.
          1   -1    0    0  501    0 -0.00000000000E+00 -0.00000000000E+00 -0.13194378860E+04  0.13194378860E+04  0.00000000000E+00 0. -1.
         25    2    1    2    0    0 -0.57976395608E+02 -0.64348545500E+02 -0.56889045118E+03  0.58886589966E+03  0.12499881833E+03 0.  0.
          2    1    1    2  501    0  0.10951400396E+02  0.72296901663E+02 -0.71777353309E+03  0.72148847528E+03  0.00000000000E+00 0. -1.
          1    1    1    2  502    0  0.47024995212E+02 -0.79483561622E+01  0.62412306362E+01  0.48098643434E+02  0.00000000000E+00 0. -1.
         22    1    3    3    0    0  0.19825727306E+02 -0.62339227202E+01 -0.33463085871E+03  0.33527560731E+03  0.00000000000E+00 0. -1.
         22    1    3    3    0    0 -0.77802122914E+02 -0.58114622780E+02 -0.23425959247E+03  0.25359029235E+03  0.00000000000E+00 0. -1.
</event>
<event>
 7    1  0.6235964E-006  0.1666438E+03  0.7818608E-02  0.1271006E+00
          2   -1    0    0  502    0  0.00000000000E+00  0.00000000000E+00  0.24061197708E+04  0.24061197708E+04  0.00000000000E+00 0. -1.
          1   -1    0    0  501    0 -0.00000000000E+00 -0.00000000000E+00 -0.72708980635E+03  0.72708980635E+03  0.00000000000E+00 0. -1.
         25    2    1    2    0    0 -0.13283619428E+03 -0.79326205337E+02  0.63222843655E+02  0.20871099483E+03  0.12500020015E+03 0.  0.
          2    1    1    2  501    0  0.33995813815E+02 -0.56097820533E+02 -0.64959626482E+03  0.65289967690E+03  0.00000000000E+00 0. -1.
          1    1    1    2  502    0  0.98840380468E+02  0.13542402587E+03  0.22654033856E+04  0.22715989054E+04  0.00000000000E+00 0. -1.
         22    1    3    3    0    0 -0.15676295989E+03 -0.65135747526E+02  0.45578367074E+02  0.17576882188E+03  0.00000000000E+00 0.  1.
         22    1    3    3    0    0  0.23926765604E+02 -0.14190457811E+02  0.17644476580E+02  0.32942172954E+02  0.00000000000E+00 0.  1.
</event>
<event>
 7    1  0.6235964E-006  0.9502019E+02  0.7818608E-02  0.1381010E+00
          2   -1    0    0  502    0  0.00000000000E+00  0.00000000000E+00  0.31130491516E+03  0.31130491516E+03  0.00000000000E+00 0. -1.
          1   -1    0    0  501    0 -0.00000000000E+00 -0.00000000000E+00 -0.42919733144E+03  0.42919733144E+03  0.00000000000E+00 0. -1.
         25    2    1    2    0    0  0.54949134690E+02  0.39131852938E+01 -0.83003142482E+02  0.15984230186E+03  0.12500127751E+03 0.  0.
          2    1    1    2  501    0  0.41706867210E+02  0.11913401887E+02 -0.29736186758E+03  0.30050868907E+03  0.00000000000E+00 0. -1.
          1    1    1    2  502    0 -0.96656001901E+02 -0.15826587181E+02  0.26247259378E+03  0.28015125567E+03  0.00000000000E+00 0. -1.
         22    1    3    3    0    0  0.50683624106E+02  0.19984542432E+02  0.18078264101E+02  0.57402398222E+02  0.00000000000E+00 0.  1.
         22    1    3    3    0    0  0.42655105846E+01 -0.16071357139E+02 -0.10108140658E+03  0.10243990364E+03  0.00000000000E+00 0.  1.
</event>
<event>
 7    1  0.6235964E-006  0.1296024E+03  0.7818608E-02  0.1280514E+00
          2   -1    0    0  502    0  0.00000000000E+00  0.00000000000E+00  0.11310780016E+04  0.11310780016E+04  0.00000000000E+00 0. -1.
          1   -1    0    0  501    0 -0.00000000000E+00 -0.00000000000E+00 -0.31381909304E+03  0.31381909304E+03  0.00000000000E+00 0. -1.
         25    2    1    2    0    0  0.69158774157E+02 -0.93901044445E+02  0.38368354950E+03  0.42004671898E+03  0.12500335105E+03 0.  0.
          2    1    1    2  501    0 -0.12447245715E+03  0.40335137457E+02 -0.27898365539E+03  0.30814314186E+03  0.00000000000E+00 0. -1.
          1    1    1    2  502    0  0.55313682990E+02  0.53565906988E+02  0.71255901448E+03  0.71670723383E+03  0.00000000000E+00 0. -1.
         22    1    3    3    0    0  0.16805105472E+02  0.22096365902E+02  0.18596321940E+02  0.33413831652E+02  0.00000000000E+00 0. -1.
         22    1    3    3    0    0  0.52353668686E+02 -0.11599741035E+03  0.36508722756E+03  0.38663288733E+03  0.00000000000E+00 0. -1.
</event>
<event>
 7    1  0.6235964E-006  0.9604250E+02  0.7818608E-02  0.1293008E+00
          2   -1    0    0  502    0  0.00000000000E+00  0.00000000000E+00  0.91119122804E+03  0.91119122804E+03  0.00000000000E+00 0. -1.
          1   -1    0    0  501    0 -0.00000000000E+00 -0.00000000000E+00 -0.29784376407E+03  0.29784376407E+03  0.00000000000E+00 0. -1.
         25    2    1    2    0    0 -0.25909548205E+02 -0.14613661607E+01  0.27495074293E+02  0.13059226903E+03  0.12499968536E+03 0.  0.
          2    1    1    2  501    0 -0.24648597272E+02  0.89026393323E+02 -0.23441877176E+03  0.25196311756E+03  0.00000000000E+00 0. -1.
          1    1    1    2  502    0  0.50558145476E+02 -0.87565027163E+02  0.82027116143E+03  0.82647960552E+03  0.00000000000E+00 0. -1.
         22    1    3    3    0    0 -0.54432162950E+02 -0.16863802418E+02 -0.30141747634E+02  0.64465286363E+02  0.00000000000E+00 0.  1.
         22    1    3    3    0    0  0.28522614745E+02  0.15402436258E+02  0.57636821927E+02  0.66126982665E+02  0.00000000000E+00 0.  1.
</event>
<event>
 7    1  0.6235964E-006  0.1155544E+03  0.7818608E-02  0.1350904E+00
          2   -1    0    0  502    0  0.00000000000E+00  0.00000000000E+00  0.26302665584E+03  0.26302665584E+03  0.00000000000E+00 0. -1.
          1   -1    0    0  501    0 -0.00000000000E+00 -0.00000000000E+00 -0.48146147920E+03  0.48146147920E+03  0.00000000000E+00 0. -1.
         25    2    1    2    0    0 -0.55268989121E+02  0.84519687994E+02 -0.22703864967E+03  0.27815457948E+03  0.12500073129E+03 0.  0.
          2    1    1    2  501    0  0.34292674587E+02  0.30407724230E+02 -0.21189650815E+03  0.21679655761E+03  0.00000000000E+00 0. -1.
          1    1    1    2  502    0  0.20976314534E+02 -0.11492741222E+03  0.22050033446E+03  0.24953699796E+03  0.00000000000E+00 0. -1.
         22    1    3    3    0    0 -0.39351255483E+02  0.11414348918E+03 -0.20511048534E+03  0.23800749700E+03  0.00000000000E+00 0.  1.
         22    1    3    3    0    0 -0.15917733638E+02 -0.29623801185E+02 -0.21928164326E+02  0.40147082478E+02  0.00000000000E+00 0.  1.
</event>
<event>
 7    1  0.6235964E-006  0.8741023E+02  0.7818608E-02  0.1466817E+00
          2   -1    0    0  502    0  0.00000000000E+00  0.00000000000E+00  0.12606705299E+04  0.12606705299E+04  0.00000000000E+00 0. -1.
          1   -1    0    0  501    0 -0.00000000000E+00 -0.00000000000E+00 -0.89603128853E+02  0.89603128853E+02  0.00000000000E+00 0. -1.
         25    2    1    2    0    0 -0.68482325552E+02 -0.86681687625E+02  0.20041774878E+03  0.26075882366E+03  0.12499738479E+03 0.  0.
          2    1    1    2  501    0  0.15696372343E+02  0.18744321893E+02 -0.55038766444E+02  0.60224509294E+02  0.00000000000E+00 0. -1.
          1    1    1    2  502    0  0.52785953209E+02  0.67937365732E+02  0.10256884188E+04  0.10292903258E+04  0.00000000000E+00 0. -1.
         22    1    3    3    0    0 -0.35161162956E+02  0.24999793021E+02  0.24140469341E+02  0.49437428044E+02  0.00000000000E+00 0. -1.
         22    1    3    3    0    0 -0.33321162596E+02 -0.11168148065E+03  0.17627727944E+03  0.21132139561E+03  0.00000000000E+00 0. -1.
</event>
<event>
 7    1  0.6235964E-006  0.1461323E+03  0.7818608E-02  0.1289128E+00
          2   -1    0    0  502    0  0.00000000000E+00  0.00000000000E+00  0.12857024466E+04  0.12857024466E+04  0.00000000000E+00 0. -1.
          1   -1    0    0  501    0 -0.00000000000E+00 -0.00000000000E+00 -0.20569962544E+03  0.20569962544E+03  0.00000000000E+00 0. -1.
         25    2    1    2    0    0 -0.12341953513E+03 -0.14885632515E+03  0.28946668142E+03  0.36987055633E+03  0.12499072604E+03 0.  0.
          2    1    1    2  501    0  0.11249141680E+03  0.86857450285E+02 -0.13371639563E+03  0.19513741309E+03  0.00000000000E+00 0. -1.
          1    1    1    2  502    0  0.10928118322E+02  0.61998874867E+02  0.92425253539E+03  0.92639410265E+03  0.00000000000E+00 0. -1.
         22    1    3    3    0    0 -0.12925988533E+03 -0.64725179042E+02  0.20169082982E+03  0.24814644384E+03  0.00000000000E+00 0. -1.
         22    1    3    3    0    0  0.58403502027E+01 -0.84131146110E+02  0.87775851604E+02  0.12172411249E+03  0.00000000000E+00 0. -1.
</event>
<event>
 7    1  0.6235964E-006  0.1419177E+03  0.7818608E-02  0.1270064E+00
          2   -1    0    0  502    0  0.00000000000E+00  0.00000000000E+00  0.16807217424E+04  0.16807217424E+04  0.00000000000E+00 0. -1.
          1   -1    0    0  501    0 -0.00000000000E+00 -0.00000000000E+00 -0.35135723326E+02  0.35135723326E+02  0.00000000000E+00 0. -1.
         25    2    1    2    0    0  0.11167479071E+03 -0.37882963132E+01  0.82106237031E+03  0.83800594317E+03  0.12499973914E+03 0.  0.
          2    1    1    2  501    0  0.68994284099E+02  0.35796706786E+02  0.81963889567E+02  0.11295881837E+03  0.00000000000E+00 0. -1.
          1    1    1    2  502    0 -0.18066907481E+03 -0.32008410473E+02  0.74255975922E+03  0.76489270421E+03  0.00000000000E+00 0. -1.
         22    1    3    3    0    0 -0.97387531235E+01 -0.39039843914E+02  0.16158249866E+03  0.16651683578E+03  0.00000000000E+00 0.  1.
         22    1    3    3    0    0  0.12141354383E+03  0.35251547601E+02  0.65947987165E+03  0.67148910739E+03  0.00000000000E+00 0.  1.
</event>
<event>
 7    1  0.6235964E-006  0.4914109E+02  0.7818608E-02  0.1458682E+00
          2   -1    0    0  502    0  0.00000000000E+00  0.00000000000E+00  0.26906109099E+03  0.26906109099E+03  0.00000000000E+00 0. -1.
          1   -1    0    0  501    0 -0.00000000000E+00 -0.00000000000E+00 -0.14875139115E+03  0.14875139115E+03  0.00000000000E+00 0. -1.
         25    2    1    2    0    0  0.49110770478E+02  0.17798476882E+02  0.16884792159E+03  0.21647879242E+03  0.12499917354E+03 0.  0.
          2    1    1    2  501    0 -0.31835825498E+02  0.33376061084E+02 -0.11013913118E+03  0.11940732581E+03  0.00000000000E+00 0. -1.
          1    1    1    2  502    0 -0.17274944980E+02 -0.51174537966E+02  0.61600909435E+02  0.81926363909E+02  0.00000000000E+00 0. -1.
         22    1    3    3    0    0  0.82618336353E+02 -0.18071845661E+02  0.89189300976E+02  0.12291099428E+03  0.00000000000E+00 0. -1.
         22    1    3    3    0    0 -0.33507565875E+02  0.35870322543E+02  0.79658620609E+02  0.93567798134E+02  0.00000000000E+00 0. -1.
</event>
<event>
 7    1  0.6235964E-006  0.6207678E+02  0.7818608E-02  0.1476614E+00
          2   -1    0    0  502    0  0.00000000000E+00  0.00000000000E+00  0.57474985136E+02  0.57474985136E+02  0.00000000000E+00 0. -1.
          1   -1    0    0  501    0 -0.00000000000E+00 -0.00000000000E+00 -0.19857352377E+04  0.19857352377E+04  0.00000000000E+00 0. -1.
         25    2    1    2    0    0  0.39958539164E+02  0.68304646440E+01 -0.10748922192E+04  0.10828948772E+04  0.12499876867E+03 0.  0.
          2    1    1    2  501    0  0.19772912186E+02 -0.25284933796E+02 -0.88817956393E+03  0.88875937897E+03  0.00000000000E+00 0. -1.
          1    1    1    2  502    0 -0.59731451349E+02  0.18454469152E+02  0.34811530499E+02  0.71555966681E+02  0.00000000000E+00 0. -1.
         22    1    3    3    0    0 -0.23241628698E+01  0.74566295672E+01 -0.96670896987E+03  0.96674052128E+03  0.00000000000E+00 0.  1.
         22    1    3    3    0    0  0.42282702034E+02 -0.62616492321E+00 -0.10818324929E+03  0.11615435593E+03  0.00000000000E+00 0.  1.
</event>
<event>
 7    1  0.6235964E-006  0.1824561E+03  0.7818608E-02  0.1179299E+00
          2   -1    0    0  502    0  0.00000000000E+00  0.00000000000E+00  0.50962434295E+03  0.50962434295E+03  0.00000000000E+00 0. -1.
          1   -1    0    0  501    0 -0.00000000000E+00 -0.00000000000E+00 -0.32294804248E+03  0.32294804248E+03  0.00000000000E+00 0. -1.
         25    2    1    2    0    0 -0.84058514617E+01  0.27667210853E+02  0.61778378290E+02  0.14239756313E+03  0.12499746024E+03 0.  0.
          2    1    1    2  501    0  0.13250933358E+03 -0.16141525629E+03 -0.21791645063E+03  0.30182973330E+03  0.00000000000E+00 0. -1.
          1    1    1    2  502    0 -0.12410348212E+03  0.13374804543E+03  0.34281437282E+03  0.38834508899E+03  0.00000000000E+00 0. -1.
         22    1    3    3    0    0  0.16269169106E+02 -0.45275475168E+02  0.87435120460E+01  0.48897888687E+02  0.00000000000E+00 0.  1.
         22    1    3    3    0    0 -0.24675020567E+02  0.72942686021E+02  0.53034866244E+02  0.93499674446E+02  0.00000000000E+00 0.  1.
</event>
<event>
 7    1  0.6235964E-006  0.9063744E+02  0.7818608E-02  0.1372661E+00
          2   -1    0    0  502    0  0.00000000000E+00  0.00000000000E+00  0.28876494766E+03  0.28876494766E+03  0.00000000000E+00 0. -1.
          1   -1    0    0  501    0 -0.00000000000E+00 -0.00000000000E+00 -0.37249308653E+03  0.37249308653E+03  0.00000000000E+00 0. -1.
         25    2    1    2    0    0 -0.26287243676E+02  0.40455198499E+02 -0.17342257227E+02  0.13510598568E+03  0.12500092485E+03 0.  0.
          2    1    1    2  501    0  0.60993557306E+02 -0.74607584332E+02 -0.28569124250E+03  0.30150620510E+03  0.00000000000E+00 0. -1.
          1    1    1    2  502    0 -0.34706313629E+02  0.34152385833E+02  0.21930536085E+03  0.22464584341E+03  0.00000000000E+00 0. -1.
         22    1    3    3    0    0 -0.50778833860E+01  0.84736020678E+02 -0.10618279022E+02  0.85549552596E+02  0.00000000000E+00 0.  1.
         22    1    3    3    0    0 -0.21209360290E+02 -0.44280822179E+02 -0.67239782051E+01  0.49556433081E+02  0.00000000000E+00 0.  1.
</event>
<event>
 7    1  0.6235964E-006  0.9625349E+02  0.7818608E-02  0.1333388E+00
          2   -1    0    0  502    0  0.00000000000E+00  0.00000000000E+00  0.15790605939E+03  0.15790605939E+03  0.00000000000E+00 0. -1.
          1   -1    0    0  501    0 -0.00000000000E+00 -0.00000000000E+00 -0.46835408351E+03  0.46835408351E+03  0.00000000000E+00 0. -1.
         25    2    1    2    0    0  0.51914027909E+02 -0.69541403442E+02 -0.70188040044E+02  0.16757862128E+03  0.12500064104E+03 0.  0.
          2    1    1    2  501    0  0.46406020953E+02  0.44083851722E+02 -0.32200712282E+03  0.32830700862E+03  0.00000000000E+00 0. -1.
          1    1    1    2  502    0 -0.98320048863E+02  0.25457551720E+02  0.81747138734E+02  0.13037451300E+03  0.00000000000E+00 0. -1.
         22    1    3    3    0    0 -0.40322605284E+02 -0.11463765568E+02 -0.29383501953E+02  0.51192974176E+02  0.00000000000E+00 0. -1.
         22    1    3    3    0    0  0.92236633193E+02 -0.58077637874E+02 -0.40804538090E+02  0.11638564711E+03  0.00000000000E+00 0. -1.
</event>
<event>
 7    1  0.6235964E-006  0.6301578E+02  0.7818608E-02  0.1481343E+00
          2   -1    0    0  502    0  0.00000000000E+00  0.00000000000E+00  0.53839379575E+03  0.53839379575E+03  0.00000000000E+00 0. -1.
          1   -1    0    0  501    0 -0.00000000000E+00 -0.00000000000E+00 -0.13785895001E+03  0.13785895001E+03  0.00000000000E+00 0. -1.
         25    2    1    2    0    0  0.29510833242E+01 -0.86596749136E+02  0.25887691040E+03  0.30025065391E+03  0.12500197830E+03 0.  0.
          2    1    1    2  501    0  0.13605149429E+02  0.60886549977E+02 -0.10786737417E+03  0.12460996136E+03  0.00000000000E+00 0. -1.
          1    1    1    2  502    0 -0.16556232753E+02  0.25710199159E+02  0.24952530951E+03  0.25139213049E+03  0.00000000000E+00 0. -1.
         22    1    3    3    0    0  0.61413149161E+02 -0.36487109902E+02  0.92090520839E+02  0.11654847964E+03  0.00000000000E+00 0.  1.
         22    1    3    3    0    0 -0.58462065837E+02 -0.50109639235E+02  0.16678638957E+03  0.18370217427E+03  0.00000000000E+00 0.  1.
</event>
<event>
 7    1  0.6235964E-006  0.7031802E+02  0.7818608E-02  0.1414078E+00
          2   -1    0    0  502    0  0.00000000000E+00  0.00000000000E+00  0.65026383333E+03  0.65026383333E+03  0.00000000000E+00 0. -1.
          1   -1    0    0  501    0 -0.00000000000E+00 -0.00000000000E+00 -0.17544657896E+04  0.17544657896E+04  0.00000000000E+00 0. -1.
         25    2    1    2    0    0  0.44549999215E+02 -0.30500970427E+02  0.53768188416E+02  0.14639435421E+03  0.12500110892E+03 0.  0.
          2    1    1    2  501    0 -0.19305439078E+02  0.67833399690E+02 -0.17065002250E+04  0.17079569924E+04  0.00000000000E+00 0. -1.
          1    1    1    2  502    0 -0.25244560137E+02 -0.37332429264E+02  0.54853008027E+03  0.55037827633E+03  0.00000000000E+00 0. -1.
         22    1    3    3    0    0  0.21857476728E+02 -0.35093765582E+02 -0.35301529052E+02  0.54364690977E+02  0.00000000000E+00 0. -1.
         22    1    3    3    0    0  0.22692522487E+02  0.45927951554E+01  0.89069717468E+02  0.92029663229E+02  0.00000000000E+00 0. -1.
</event>
<event>
 7    1  0.6235964E-006  0.1110970E+03  0.7818608E-02  0.1262185E+00
          2   -1    0    0  502    0  0.00000000000E+00  0.00000000000E+00  0.31754514496E+03  0.31754514496E+03  0.00000000000E+00 0. -1.
          1   -1    0    0  501    0 -0.00000000000E+00 -0.00000000000E+00 -0.33509261941E+04  0.33509261941E+04  0.00000000000E+00 0. -1.
         25    2    1    2    0    0  0.13950443937E+02 -0.14121438243E+02 -0.21211486517E+03  0.24699940657E+03  0.12498784307E+03 0.  0.
          2    1    1    2  501    0  0.63268543082E+02  0.93994879875E+02 -0.31100200275E+04  0.31120833082E+04  0.00000000000E+00 0. -1.
          1    1    1    2  502    0 -0.77218987019E+02 -0.79873441632E+02  0.28875384356E+03  0.30938862423E+03  0.00000000000E+00 0. -1.
         22    1    3    3    0    0  0.66360745968E+02  0.59556358476E+01 -0.84652042139E+02  0.10772737090E+03  0.00000000000E+00 0.  1.
         22    1    3    3    0    0 -0.52410302032E+02 -0.20077074091E+02 -0.12746282303E+03  0.13927203567E+03  0.00000000000E+00 0.  1.
</event>
<event>
 7    1  0.6235964E-006  0.4561621E+02  0.7818608E-02  0.1509869E+00
          2   -1    0    0  502    0  0.00000000000E+00  0.00000000000E+00  0.11370132996E+04  0.11370132996E+04  0.00000000000E+00 0. -1.
          1   -1    0    0  501    0 -0.00000000000E+00 -0.00000000000E+00 -0.10072232945E+03  0.10072232945E+03  0.00000000000E+00 0. -1.
         25    2    1    2    0    0 -0.10604170238E+02  0.15012371653E+02  0.19039827998E+03  0.22850592714E+03  0.12500253593E+03 0.  0.
          2    1    1    2  501    0  0.45128985992E+02 -0.11704186994E+02 -0.74661460017E+02  0.88022423176E+02  0.00000000000E+00 0. -1.
          1    1    1    2  502    0 -0.34524815754E+02 -0.33081846593E+01  0.92055415017E+03  0.92120727873E+03  0.00000000000E+00 0. -1.
         22    1    3    3    0    0 -0.14601901829E+01 -0.18279787650E+02  0.19301281989E+03  0.19388200389E+03  0.00000000000E+00 0.  1.
         22    1    3    3    0    0 -0.91439800547E+01  0.33292159303E+02 -0.26145399030E+01  0.34623923249E+02  0.00000000000E+00 0.  1.
</event>
<event>
 7    1  0.6235964E-006  0.1425312E+03  0.7818608E-02  0.1375621E+00
          2   -1    0    0  502    0  0.00000000000E+00  0.00000000000E+00  0.57285245915E+03  0.57285245915E+03  0.00000000000E+00 0. -1.
          1   -1    0    0  501    0 -0.00000000000E+00 -0.00000000000E+00 -0.35990423285E+03  0.35990423285E+03  0.00000000000E+00 0. -1.
         25    2    1    2    0    0  0.74652914757E+02 -0.14964181261E+03  0.41155257593E+03  0.46148492379E+03  0.12500832920E+03 0.  0.
          2    1    1    2  501    0 -0.76222668823E+02  0.11946352493E+03 -0.31798169993E+03  0.34812898547E+03  0.00000000000E+00 0. -1.
          1    1    1    2  502    0  0.15697540657E+01  0.30178287680E+02  0.11937735030E+03  0.12314278274E+03  0.00000000000E+00 0. -1.
         22    1    3    3    0    0  0.48137012006E+02 -0.15479287632E+03  0.25182374408E+03  0.29948823778E+03  0.00000000000E+00 0. -1.
         22    1    3    3    0    0  0.26515902751E+02  0.51510637062E+01  0.15972883185E+03  0.16199668601E+03  0.00000000000E+00 0. -1.
</event>
<event>
 7    1  0.6235964E-006  0.1091703E+03  0.7818608E-02  0.1276981E+00
          2   -1    0    0  502    0  0.00000000000E+00  0.00000000000E+00  0.32418713230E+04  0.32418713230E+04  0.00000000000E+00 0. -1.
          1   -1    0    0  501    0 -0.00000000000E+00 -0.00000000000E+00 -0.94986236753E+02  0.94986236753E+02  0.00000000000E+00 0. -1.
         25    2    1    2    0    0  0.45006587726E+02 -0.64144122317E+02  0.13153453831E+03  0.19768654114E+03  0.12505427786E+03 0.  0.
          2    1    1    2  501    0 -0.86034076675E+02 -0.39194819248E+02 -0.24198366849E+02  0.97589226676E+02  0.00000000000E+00 0. -1.
          1    1    1    2  502    0  0.41027488948E+02  0.10333894156E+03  0.30395489148E+04  0.30415817920E+04  0.00000000000E+00 0. -1.
         22    1    3    3    0    0  0.42327257202E+02  0.11112472690E+02  0.11147386789E+03  0.11975603105E+03  0.00000000000E+00 0.  1.
         22    1    3    3    0    0  0.26793305241E+01 -0.75256595008E+02  0.20060670425E+02  0.77930510085E+02  0.00000000000E+00 0.  1.
</event>
<event>
 7    1  0.6235964E-006  0.1581658E+03  0.7818608E-02  0.1245672E+00
          2   -1    0    0  502    0  0.00000000000E+00  0.00000000000E+00  0.21260063732E+04  0.21260063732E+04  0.00000000000E+00 0. -1.
          1   -1    0    0  501    0 -0.00000000000E+00 -0.00000000000E+00 -0.13484066023E+04  0.13484066023E+04  0.00000000000E+00 0. -1.
         25    2    1    2    0    0  0.12356753856E+03 -0.13371199366E+03  0.17736669720E+03  0.28324444547E+03  0.12498254590E+03 0.  0.
          2    1    1    2  501    0 -0.37141544300E+02  0.15371416377E+03 -0.12895974171E+04  0.12992571095E+04  0.00000000000E+00 0. -1.
          1    1    1    2  502    0 -0.86425994259E+02 -0.20002170109E+02  0.18898304907E+04  0.18919114205E+04  0.00000000000E+00 0. -1.
         22    1    3    3    0    0  0.60734072815E+02 -0.11589262635E+03  0.17418784836E+03  0.21785576641E+03  0.00000000000E+00 0.  1.
         22    1    3    3    0    0  0.62833465744E+02 -0.17819367306E+02  0.31788488406E+01  0.65388679055E+02  0.00000000000E+00 0.  1.
</event>
<event>
 7    1  0.6235964E-006  0.9999580E+02  0.7818608E-02  0.1390584E+00
          2   -1    0    0  502    0  0.00000000000E+00  0.00000000000E+00  0.60904148990E+03  0.60904148990E+03  0.00000000000E+00 0. -1.
          1   -1    0    0  501    0 -0.00000000000E+00 -0.00000000000E+00 -0.14099363900E+04  0.14099363900E+04  0.00000000000E+00 0. -1.
         25    2    1    2    0    0  0.23363937311E+02 -0.96661162709E+02 -0.10383037206E+02  0.16006954422E+03  0.12500079032E+03 0.  0.
          2    1    1    2  501    0  0.35069956437E+02  0.15008866381E+02 -0.13197139549E+04  0.13202651592E+04  0.00000000000E+00 0. -1.
          1    1    1    2  502    0 -0.58433893748E+02  0.81652296328E+02  0.52920209197E+03  0.53864317649E+03  0.00000000000E+00 0. -1.
         22    1    3    3    0    0 -0.69963480174E+01 -0.11697795773E+03 -0.26492382967E+02  0.12014423763E+03  0.00000000000E+00 0.  1.
         22    1    3    3    0    0  0.30360285329E+02  0.20316795022E+02  0.16109345762E+02  0.39925306587E+02  0.00000000000E+00 0.  1.
</event>
<event>
 7    1  0.6235964E-006  0.3331880E+02  0.7818608E-02  0.1595373E+00
          2   -1    0    0  502    0  0.00000000000E+00  0.00000000000E+00  0.95790054687E+03  0.95790054687E+03  0.00000000000E+00 0. -1.
          1   -1    0    0  501    0 -0.00000000000E+00 -0.00000000000E+00 -0.53767389719E+02  0.53767389719E+02  0.00000000000E+00 0. -1.
         25    2    1    2    0    0  0.22357531303E+02 -0.18554874604E+02  0.66115686246E+03  0.67349648029E+03  0.12499987846E+03 0.  0.
          2    1    1    2  501    0  0.71200076198E+00  0.33446785134E+02 -0.40973933282E+02  0.52896668983E+02  0.00000000000E+00 0. -1.
          1    1    1    2  502    0 -0.23069532065E+02 -0.14891910531E+02  0.28395022798E+03  0.28527478731E+03  0.00000000000E+00 0. -1.
         22    1    3    3    0    0 -0.18791661879E+02  0.41211433426E+02  0.13585066951E+03  0.14320235057E+03  0.00000000000E+00 0.  1.
         22    1    3    3    0    0  0.41149193182E+02 -0.59766308030E+02  0.52530619294E+03  0.53029412972E+03  0.00000000000E+00 0.  1.
</event>
<event>
 7    1  0.6235964E-006  0.7153073E+02  0.7818608E-02  0.1409350E+00
          2   -1    0    0  502    0  0.00000000000E+00  0.00000000000E+00  0.72117178798E+03  0.72117178798E+03  0.00000000000E+00 0. -1.
          1   -1    0    0  501    0 -0.00000000000E+00 -0.00000000000E+00 -0.94684222056E+02  0.94684222056E+02  0.00000000000E+00 0. -1.
         25    2    1    2    0    0 -0.55253117625E+02 -0.50460895721E+02  0.11224246015E+03  0.18390095532E+03  0.12498792942E+03 0.  0.
          2    1    1    2  501    0  0.41205566784E+02 -0.20364461064E+02 -0.47202289448E+02  0.65883731964E+02  0.00000000000E+00 0. -1.
          1    1    1    2  502    0  0.14047550841E+02  0.70825356785E+02  0.56144739522E+03  0.56607132276E+03  0.00000000000E+00 0. -1.
         22    1    3    3    0    0  0.13908663522E+02 -0.97562514433E+01  0.10152593425E+03  0.10293760580E+03  0.00000000000E+00 0. -1.
         22    1    3    3    0    0 -0.69161781147E+02 -0.40704644278E+02  0.10716525905E+02  0.80963349515E+02  0.00000000000E+00 0. -1.
</event>
<event>
 7    1  0.6235964E-006  0.5546825E+02  0.7818608E-02  0.1484789E+00
          2   -1    0    0  502    0  0.00000000000E+00  0.00000000000E+00  0.94997077577E+03  0.94997077577E+03  0.00000000000E+00 0. -1.
          1   -1    0    0  501    0 -0.00000000000E+00 -0.00000000000E+00 -0.16801877274E+03  0.16801877274E+03  0.00000000000E+00 0. -1.
         25    2    1    2    0    0 -0.31450229769E+02  0.54096600982E+02  0.85491710248E+03  0.86626978093E+03  0.12499808822E+03 0.  0.
          2    1    1    2  501    0 -0.14168946242E+02 -0.30806627446E+02 -0.15299208205E+03  0.15670476860E+03  0.00000000000E+00 0. -1.
          1    1    1    2  502    0  0.45619176011E+02 -0.23289973535E+02  0.80026982598E+02  0.95014998979E+02  0.00000000000E+00 0. -1.
         22    1    3    3    0    0 -0.19580093405E+02  0.82105594351E+02  0.79091146157E+03  0.79540282167E+03  0.00000000000E+00 0. -1.
         22    1    3    3    0    0 -0.11870136364E+02 -0.28008993369E+02  0.64005640908E+02  0.70866959261E+02  0.00000000000E+00 0. -1.
</event>
<event>
 7    1  0.6235964E-006  0.2631535E+03  0.7818608E-02  0.1256594E+00
          2   -1    0    0  502    0  0.00000000000E+00  0.00000000000E+00  0.19929727287E+03  0.19929727287E+03  0.00000000000E+00 0. -1.
          1   -1    0    0  501    0 -0.00000000000E+00 -0.00000000000E+00 -0.10154688631E+04  0.10154688631E+04  0.00000000000E+00 0. -1.
         25    2    1    2    0    0  0.25048045820E+03 -0.61831270989E+01 -0.45155801711E+03  0.53132617879E+03  0.12499669778E+03 0.  0.
          2    1    1    2  501    0 -0.27186163091E+03  0.48953653079E+02 -0.48263759336E+03  0.55609734133E+03  0.00000000000E+00 0. -1.
          1    1    1    2  502    0  0.21381172716E+02 -0.42770525980E+02  0.11802402027E+03  0.12734261581E+03  0.00000000000E+00 0. -1.
         22    1    3    3    0    0  0.10462382777E+03 -0.63270845776E+02 -0.17475948681E+03  0.21328437236E+03  0.00000000000E+00 0. -1.
         22    1    3    3    0    0  0.14585663043E+03  0.57087718677E+02 -0.27679853030E+03  0.31804180643E+03  0.00000000000E+00 0. -1.
</event>
<event>
 7    1  0.6979997E-006  0.1151913E+03  0.7818608E-02  0.1335128E+00
          2   -1    0    0  502    0  0.00000000000E+00  0.00000000000E+00  0.11017845215E+04  0.11017845215E+04  0.00000000000E+00 0. -1.
          1   -1    0    0  501    0 -0.00000000000E+00 -0.00000000000E+00 -0.98281528813E+03  0.98281528813E+03  0.00000000000E+00 0. -1.
         25    2    1    2    0    0 -0.12328520409E+03  0.26297629683E+02 -0.33279608748E+03  0.37718599313E+03  0.12500092277E+03 0.  0.
          2    1    1    2  501    0  0.10888547359E+02 -0.51539375467E+02 -0.62363772659E+03  0.62585851573E+03  0.00000000000E+00 0. -1.
          1    1    1    2  502    0  0.11239665673E+03  0.25241745784E+02  0.10754030475E+04  0.10815553008E+04  0.00000000000E+00 0. -1.
         22    1    3    3    0    0 -0.55404280786E+02  0.19939846405E+02 -0.29169158692E+03  0.29757555962E+03  0.00000000000E+00 0.  1.
         22    1    3    3    0    0 -0.67880923300E+02  0.63577832782E+01 -0.41104500566E+02  0.79610433506E+02  0.00000000000E+00 0.  1.
</event>
<event>
 7    1  0.6235964E-006  0.7583453E+02  0.7818608E-02  0.1407741E+00
          2   -1    0    0  502    0  0.00000000000E+00  0.00000000000E+00  0.31164121643E+03  0.31164121643E+03  0.00000000000E+00 0. -1.
          1   -1    0    0  501    0 -0.00000000000E+00 -0.00000000000E+00 -0.44336247310E+03  0.44336247310E+03  0.00000000000E+00 0. -1.
         25    2    1    2    0    0 -0.63314830527E+02 -0.18093706078E+02  0.41037374320E+02  0.14713460757E+03  0.12501350603E+03 0.  0.
          2    1    1    2  501    0  0.72569234668E+02 -0.24823341920E+02 -0.38426993126E+03  0.39184929781E+03  0.00000000000E+00 0. -1.
          1    1    1    2  502    0 -0.92544041403E+01  0.42917047998E+02  0.21151130026E+03  0.21601978415E+03  0.00000000000E+00 0. -1.
         22    1    3    3    0    0 -0.15646204652E+02  0.51389013483E+02  0.71865250348E+00  0.53722908411E+02  0.00000000000E+00 0. -1.
         22    1    3    3    0    0 -0.47668625876E+02 -0.69482719561E+02  0.40318721817E+02  0.93411699157E+02  0.00000000000E+00 0. -1.
</event>
<event>
 7    1  0.6235964E-006  0.8765414E+02  0.7818608E-02  0.1398306E+00
          2   -1    0    0  502    0  0.00000000000E+00  0.00000000000E+00  0.36056089830E+03  0.36056089830E+03  0.00000000000E+00 0. -1.
          1   -1    0    0  501    0 -0.00000000000E+00 -0.00000000000E+00 -0.26983065853E+03  0.26983065853E+03  0.00000000000E+00 0. -1.
         25    2    1    2    0    0 -0.78922291039E+02  0.30828143462E+02  0.11911624212E+03  0.19233371730E+03  0.12499790888E+03 0.  0.
          2    1    1    2  501    0  0.87827287519E+02  0.91070937116E+01 -0.22265639708E+03  0.23952545324E+03  0.00000000000E+00 0. -1.
          1    1    1    2  502    0 -0.89049964800E+01 -0.39935237173E+02  0.19427039474E+03  0.19853238629E+03  0.00000000000E+00 0. -1.
         22    1    3    3    0    0 -0.72461147697E+02 -0.55120735721E-01  0.13778177464E+03  0.15567414168E+03  0.00000000000E+00 0.  1.
         22    1    3    3    0    0 -0.64611433416E+01  0.30883264197E+02 -0.18665532525E+02  0.36659575627E+02  0.00000000000E+00 0.  1.
</event>
<event>
 7    1  0.6235964E-006  0.5927948E+02  0.7818608E-02  0.1501857E+00
          2   -1    0    0  502    0  0.00000000000E+00  0.00000000000E+00  0.19171346539E+03  0.19171346539E+03  0.00000000000E+00 0. -1.
          1   -1    0    0  501    0 -0.00000000000E+00 -0.00000000000E+00 -0.10951057004E+04  0.10951057004E+04  0.00000000000E+00 0. -1.
         25    2    1    2    0    0  0.58683696126E+02  0.34460163827E+02 -0.55251163776E+02  0.15267057922E+03  0.12499734229E+03 0.  0.
          2    1    1    2  501    0 -0.34171479060E+02 -0.48376004762E+02 -0.98886115410E+03  0.99063328730E+03  0.00000000000E+00 0. -1.
          1    1    1    2  502    0 -0.24512217066E+02  0.13915840935E+02  0.14072008284E+03  0.14351529929E+03  0.00000000000E+00 0. -1.
         22    1    3    3    0    0  0.36267704144E+02  0.53551561771E+02 -0.87625130394E+02  0.10890950192E+03  0.00000000000E+00 0. -1.
         22    1    3    3    0    0  0.22415991982E+02 -0.19091397944E+02  0.32373966618E+02  0.43761077302E+02  0.00000000000E+00 0. -1.
</event>
<event>
 7    1  0.6235964E-006  0.1027205E+03  0.7818608E-02  0.1377423E+00
          2   -1    0    0  502    0  0.00000000000E+00  0.00000000000E+00  0.16487706161E+04  0.16487706161E+04  0.00000000000E+00 0. -1.
          1   -1    0    0  501    0 -0.00000000000E+00 -0.00000000000E+00 -0.80224570866E+03  0.80224570866E+03  0.00000000000E+00 0. -1.
         25    2    1    2    0    0 -0.73449287234E+02  0.91438945887E+02  0.63484663038E+03  0.65758061341E+03  0.12500456154E+03 0.  0.
          2    1    1    2  501    0  0.32562809188E+02 -0.97382668403E+02 -0.78711691294E+03  0.79378634108E+03  0.00000000000E+00 0. -1.
          1    1    1    2  502    0  0.40886478045E+02  0.59437225161E+01  0.99879518996E+03  0.99964937024E+03  0.00000000000E+00 0. -1.
         22    1    3    3    0    0  0.19188465409E+02  0.10273166977E+02  0.17110734428E+02  0.27685960290E+02  0.00000000000E+00 0.  1.
         22    1    3    3    0    0 -0.92637752643E+02  0.81165778910E+02  0.61773589595E+03  0.62989465312E+03  0.00000000000E+00 0.  1.
</event>
<event>
 7    1  0.6235964E-006  0.1963537E+03  0.7818608E-02  0.1360465E+00
          2   -1    0    0  502    0  0.00000000000E+00  0.00000000000E+00  0.74495274311E+03  0.74495274311E+03  0.00000000000E+00 0. -1.
          1   -1    0    0  501    0 -0.00000000000E+00 -0.00000000000E+00 -0.53262462874E+03  0.53262462874E+03  0.00000000000E+00 0. -1.
         25    2    1    2    0    0 -0.17014951785E+03 -0.43435036384E+02  0.28812558873E+02  0.21747011128E+03  0.12500249973E+03 0.  0.
          2    1    1    2  501    0  0.19492007387E+03  0.45734893123E+02 -0.41515963078E+03  0.46091543115E+03  0.00000000000E+00 0. -1.
          1    1    1    2  502    0 -0.24770556019E+02 -0.22998567392E+01  0.59867518628E+03  0.59919182943E+03  0.00000000000E+00 0. -1.
         22    1    3    3    0    0 -0.57189380190E+01 -0.16298555210E+01 -0.35524989920E+02  0.36019266926E+02  0.00000000000E+00 0. -1.
         22    1    3    3    0    0 -0.16443057983E+03 -0.41805180863E+02  0.64337548792E+02  0.18145084435E+03  0.00000000000E+00 0. -1.
</event>
<event>
 7    1  0.6235964E-006  0.1022427E+03  0.7818608E-02  0.1353682E+00
          2   -1    0    0  502    0  0.00000000000E+00  0.00000000000E+00  0.13966447536E+04  0.13966447536E+04  0.00000000000E+00 0. -1.
          1   -1    0    0  501    0 -0.00000000000E+00 -0.00000000000E+00 -0.25558398554E+02  0.25558398554E+02  0.00000000000E+00 0. -1.
         25    2    1    2    0    0  0.64078093856E+02 -0.24790936118E+02  0.80989756014E+03  0.82236248649E+03  0.12500163455E+03 0.  0.
          2    1    1    2  501    0 -0.83545075684E+02  0.71486408943E+02  0.15235507981E+03  0.18788868161E+03  0.00000000000E+00 0. -1.
          1    1    1    2  502    0  0.19466981827E+02 -0.46695472825E+02  0.40883371512E+03  0.41195198407E+03  0.00000000000E+00 0. -1.
         22    1    3    3    0    0  0.60674338749E+02  0.18021967414E+02  0.17641568555E+03  0.18742641436E+03  0.00000000000E+00 0.  1.
         22    1    3    3    0    0  0.34037551077E+01 -0.42812903531E+02  0.63348187459E+03  0.63493607213E+03  0.00000000000E+00 0.  1.
</event>
<event>
 7    1  0.6235964E-006  0.9486000E+02  0.7818608E-02  0.1337871E+00
          2   -1    0    0  502    0  0.00000000000E+00  0.00000000000E+00  0.18182706808E+03  0.18182706808E+03  0.00000000000E+00 0. -1.
          1   -1    0    0  501    0 -0.00000000000E+00 -0.00000000000E+00 -0.74214289850E+03  0.74214289850E+03  0.00000000000E+00 0. -1.
         25    2    1    2    0    0  0.46624757130E+02 -0.43202409387E+02 -0.34944038431E+02  0.14452018766E+03  0.12499873066E+03 0.  0.
          2    1    1    2  501    0  0.56716263652E+02  0.26156755958E+02 -0.62901041377E+03  0.63210363951E+03  0.00000000000E+00 0. -1.
          1    1    1    2  502    0 -0.10334102078E+03  0.17045653429E+02  0.10363862177E+03  0.14734613941E+03  0.00000000000E+00 0. -1.
         22    1    3    3    0    0  0.71781515600E+02 -0.71987511108E+02 -0.20851532818E+02  0.10377655881E+03  0.00000000000E+00 0. -1.
         22    1    3    3    0    0 -0.25156758470E+02  0.28785101721E+02 -0.14092505612E+02  0.40743628854E+02  0.00000000000E+00 0. -1.
</event>
<event>
 7    1  0.6235964E-006  0.1299889E+03  0.7818608E-02  0.1394389E+00
          2   -1    0    0  502    0  0.00000000000E+00  0.00000000000E+00  0.36218224920E+03  0.36218224920E+03  0.00000000000E+00 0. -1.
          1   -1    0    0  501    0 -0.00000000000E+00 -0.00000000000E+00 -0.61260633171E+03  0.61260633171E+03  0.00000000000E+00 0. -1.
         25    2    1    2    0    0  0.42745331306E+02  0.13551872132E+03 -0.31203935295E+03  0.36494683644E+03  0.12500059385E+03 0.  0.
          2    1    1    2  501    0  0.18759101731E+02 -0.21408369997E+02 -0.26079686526E+03  0.26234562534E+03  0.00000000000E+00 0. -1.
          1    1    1    2  502    0 -0.61504433037E+02 -0.11411035133E+03  0.32241213570E+03  0.34749611913E+03  0.00000000000E+00 0. -1.
         22    1    3    3    0    0 -0.34967880030E+02  0.11756203760E+02 -0.10682314951E+03  0.11301392052E+03  0.00000000000E+00 0.  1.
         22    1    3    3    0    0  0.77713211335E+02  0.12376251756E+03 -0.20521620344E+03  0.25193291592E+03  0.00000000000E+00 0.  1.
</event>
<event>
 7    1  0.6235964E-006  0.1357655E+03  0.7818608E-02  0.1263338E+00
          2   -1    0    0  502    0  0.00000000000E+00  0.00000000000E+00  0.13504094811E+04  0.13504094811E+04  0.00000000000E+00 0. -1.
          1   -1    0    0  501    0 -0.00000000000E+00 -0.00000000000E+00 -0.86336220416E+03  0.86336220416E+03  0.00000000000E+00 0. -1.
         25    2    1    2    0    0 -0.27326470302E+02 -0.16166946805E+03  0.34834359928E+03  0.40478438928E+03  0.12499354289E+03 0.  0.
          2    1    1    2  501    0  0.78368138131E+02  0.37178721479E+02 -0.82821873508E+03  0.83274851879E+03  0.00000000000E+00 0. -1.
          1    1    1    2  502    0 -0.51041667829E+02  0.12449074657E+03  0.96692241276E+03  0.97623877721E+03  0.00000000000E+00 0. -1.
         22    1    3    3    0    0 -0.57547917690E+02 -0.12589219226E+03  0.32327557748E+03  0.35166419479E+03  0.00000000000E+00 0. -1.
         22    1    3    3    0    0  0.30221447388E+02 -0.35777275788E+02  0.25068021797E+02  0.53120194482E+02  0.00000000000E+00 0. -1.
</event>
<event>
 7    1  0.6235964E-006  0.9906863E+02  0.7818608E-02  0.1327766E+00
          2   -1    0    0  502    0  0.00000000000E+00  0.00000000000E+00  0.14729183284E+04  0.14729183284E+04  0.00000000000E+00 0. -1.
          1   -1    0    0  501    0 -0.00000000000E+00 -0.00000000000E+00 -0.10201170727E+04  0.10201170727E+04  0.00000000000E+00 0. -1.
         25    2    1    2    0    0  0.42241516339E+02  0.15631933101E+03 -0.91372830341E+02  0.22404033963E+03  0.12500000283E+03 0.  0.
          2    1    1    2  501    0 -0.28222381967E+02 -0.58928288667E+02 -0.85944820465E+03  0.86192822353E+03  0.00000000000E+00 0. -1.
          1    1    1    2  502    0 -0.14019134371E+02 -0.97391042343E+02  0.14036222907E+04  0.14070668379E+04  0.00000000000E+00 0. -1.
         22    1    3    3    0    0 -0.29131760909E+02  0.10351729116E+03 -0.81048861352E+02  0.13466033933E+03  0.00000000000E+00 0.  1.
         22    1    3    3    0    0  0.71373277248E+02  0.52802039853E+02 -0.10323968989E+02  0.89380000299E+02  0.00000000000E+00 0.  1.
</event>
<event>
 7    1  0.6235964E-006  0.8639968E+02  0.7818608E-02  0.1384816E+00
          2   -1    0    0  502    0  0.00000000000E+00  0.00000000000E+00  0.13474801738E+04  0.13474801738E+04  0.00000000000E+00 0. -1.
          1   -1    0    0  501    0 -0.00000000000E+00 -0.00000000000E+00 -0.40092621168E+03  0.40092621168E+03  0.00000000000E+00 0. -1.
         25    2    1    2    0    0 -0.15390935738E+02 -0.84258021500E+02 -0.38952208659E+01  0.15157861316E+03  0.12499843252E+03 0.  0.
          2    1    1    2  501    0 -0.30792883818E+02  0.81765468281E+02 -0.31685467914E+03  0.32868021113E+03  0.00000000000E+00 0. -1.
          1    1    1    2  502    0  0.46183819555E+02  0.24925532186E+01  0.12673038622E+04  0.12681475612E+04  0.00000000000E+00 0. -1.
         22    1    3    3    0    0  0.23946475278E+02  0.16511109084E+02 -0.28411325876E+02  0.40660224292E+02  0.00000000000E+00 0. -1.
         22    1    3    3    0    0 -0.39337411016E+02 -0.10076913058E+03  0.24516105010E+02  0.11091838887E+03  0.00000000000E+00 0. -1.
</event>
<event>
 7    1  0.6235964E-006  0.1154146E+03  0.7818608E-02  0.1326402E+00
          2   -1    0    0  502    0  0.00000000000E+00  0.00000000000E+00  0.12049937862E+04  0.12049937862E+04  0.00000000000E+00 0. -1.
          1   -1    0    0  501    0 -0.00000000000E+00 -0.00000000000E+00 -0.34582732712E+03  0.34582732712E+03  0.00000000000E+00 0. -1.
         25    2    1    2    0    0 -0.85932340982E+02  0.12574618535E+02 -0.11411441434E+03  0.19023443924E+03  0.12499821621E+03 0.  0.
          2    1    1    2  501    0  0.13326878083E+03  0.18753595384E+02 -0.16948066505E+03  0.21641617571E+03  0.00000000000E+00 0. -1.
          1    1    1    2  502    0 -0.47336439846E+02 -0.31328213919E+02  0.11427615385E+04  0.11441704984E+04  0.00000000000E+00 0. -1.
         22    1    3    3    0    0  0.93087296279E+01  0.49255115764E+02 -0.39034975181E+02  0.63533047807E+02  0.00000000000E+00 0.  1.
         22    1    3    3    0    0 -0.95241070610E+02 -0.36680497230E+02 -0.75079439155E+02  0.12670139144E+03  0.00000000000E+00 0.  1.
</event>
<event>
 7    1  0.9567273E-006  0.6690440E+02  0.7818608E-02  0.1430795E+00
          2   -1    0    0  502    0  0.00000000000E+00  0.00000000000E+00  0.21945997379E+04  0.21945997379E+04  0.00000000000E+00 0. -1.
          1   -1    0    0  501    0 -0.00000000000E+00 -0.00000000000E+00 -0.67222154526E+03  0.67222154526E+03  0.00000000000E+00 0. -1.
         25    2    1    2    0    0 -0.53608612539E+02  0.25534491969E+01 -0.28265633139E+03  0.31368835668E+03  0.12500151998E+03 0.  0.
          2    1    1    2  501    0 -0.72653368529E+00 -0.41663998836E+02 -0.37237257432E+03  0.37469687850E+03  0.00000000000E+00 0. -1.
          1    1    1    2  502    0  0.54335146224E+02  0.39110549639E+02  0.21774070983E+04  0.21784360480E+04  0.00000000000E+00 0. -1.
         22    1    3    3    0    0  0.35638756834E+02 -0.17951926821E+01 -0.14685042612E+03  0.15112376172E+03  0.00000000000E+00 0. -1.
         22    1    3    3    0    0 -0.89247369373E+02  0.43486418790E+01 -0.13580590527E+03  0.16256459496E+03  0.00000000000E+00 0. -1.
</event>
<event>
 7    1  0.6235964E-006  0.9394213E+02  0.7818608E-02  0.1405042E+00
          2   -1    0    0  502    0  0.00000000000E+00  0.00000000000E+00  0.15539247782E+03  0.15539247782E+03  0.00000000000E+00 0. -1.
          1   -1    0    0  501    0 -0.00000000000E+00 -0.00000000000E+00 -0.21443966019E+04  0.21443966019E+04  0.00000000000E+00 0. -1.
         25    2    1    2    0    0  0.96478697546E+02 -0.29100031552E+02 -0.80930106511E+03  0.82507646094E+03  0.12501200538E+03 0.  0.
          2    1    1    2  501    0 -0.28012385215E+01  0.36090650754E+02 -0.13119768191E+04  0.13124761163E+04  0.00000000000E+00 0. -1.
          1    1    1    2  502    0 -0.93677459024E+02 -0.69906192021E+01  0.13227376018E+03  0.16223650242E+03  0.00000000000E+00 0. -1.
         22    1    3    3    0    0  0.39109051985E+02 -0.75322611805E+02 -0.49768754528E+03  0.50487216849E+03  0.00000000000E+00 0. -1.
         22    1    3    3    0    0  0.57369645561E+02  0.46222580253E+02 -0.31161351983E+03  0.32020429245E+03  0.00000000000E+00 0. -1.
</event>
<event>
 7    1  0.6235964E-006  0.1250422E+03  0.7818608E-02  0.1306504E+00
          2   -1    0    0  502    0  0.00000000000E+00  0.00000000000E+00  0.17121632578E+03  0.17121632578E+03  0.00000000000E+00 0. -1.
          1   -1    0    0  501    0 -0.00000000000E+00 -0.00000000000E+00 -0.69863321864E+03  0.69863321864E+03  0.00000000000E+00 0. -1.
         25    2    1    2    0    0  0.43370623342E+01  0.14005842359E+03 -0.28568106124E+03  0.34186751761E+03  0.12499823488E+03 0.  0.
          2    1    1    2  501    0  0.51716500931E+02 -0.11207832630E+03 -0.36739250677E+03  0.38757373715E+03  0.00000000000E+00 0. -1.
          1    1    1    2  502    0 -0.56053563265E+02 -0.27980097290E+02  0.12565667514E+03  0.14040828966E+03  0.00000000000E+00 0. -1.
         22    1    3    3    0    0  0.32518921331E+02  0.15310937967E+03 -0.24396402907E+03  0.28985929322E+03  0.00000000000E+00 0. -1.
         22    1    3    3    0    0 -0.28181858997E+02 -0.13050956088E+02 -0.41717032168E+02  0.52008224390E+02  0.00000000000E+00 0. -1.
</event>
<event>
 7    1  0.6235964E-006  0.1168667E+03  0.7818608E-02  0.1306629E+00
          2   -1    0    0  502    0  0.00000000000E+00  0.00000000000E+00  0.22667465874E+04  0.22667465874E+04  0.00000000000E+00 0. -1.
          1   -1    0    0  501    0 -0.00000000000E+00 -0.00000000000E+00 -0.21802434133E+03  0.21802434133E+03  0.00000000000E+00 0. -1.
         25    2    1    2    0    0 -0.43766752731E+02  0.31005749914E+02  0.31341431058E+03  0.34165841917E+03  0.12500024056E+03 0.  0.
          2    1    1    2  501    0  0.92582901804E+02 -0.76831699425E+02 -0.18552096508E+03  0.22111701026E+03  0.00000000000E+00 0. -1.
          1    1    1    2  502    0 -0.48816149073E+02  0.45825949511E+02  0.19208289006E+04  0.19219954993E+04  0.00000000000E+00 0. -1.
         22    1    3    3    0    0 -0.33500520441E+02  0.16215072970E+02  0.11142103161E+02  0.38850481646E+02  0.00000000000E+00 0.  1.
         22    1    3    3    0    0 -0.10266232290E+02  0.14790676944E+02  0.30227220742E+03  0.30280793752E+03  0.00000000000E+00 0.  1.
</event>
<event>
 7    1  0.6235964E-006  0.5684503E+02  0.7818608E-02  0.1493044E+00
          2   -1    0    0  502    0  0.00000000000E+00  0.00000000000E+00  0.34581040884E+03  0.34581040884E+03  0.00000000000E+00 0. -1.
          1   -1    0    0  501    0 -0.00000000000E+00 -0.00000000000E+00 -0.23746997813E+03  0.23746997813E+03  0.00000000000E+00 0. -1.
         25    2    1    2    0    0 -0.33709137507E+02 -0.21969948088E+02 -0.22804129794E+02  0.13327923158E+03  0.12499736263E+03 0.  0.
          2    1    1    2  501    0 -0.23926771725E+02  0.20079247347E+02 -0.15499368047E+03  0.15810979592E+03  0.00000000000E+00 0. -1.
          1    1    1    2  502    0  0.57635909232E+02  0.18907007413E+01  0.28613824098E+03  0.29189135947E+03  0.00000000000E+00 0. -1.
         22    1    3    3    0    0 -0.72955056547E+02 -0.98940772824E+01  0.17573101403E+02  0.75691128502E+02  0.00000000000E+00 0. -1.
         22    1    3    3    0    0  0.39245919040E+02 -0.12075870806E+02 -0.40377231197E+02  0.57588103078E+02  0.00000000000E+00 0. -1.
</event>
<event>
 7    1  0.6235964E-006  0.6265355E+02  0.7818608E-02  0.1443213E+00
          2   -1    0    0  502    0  0.00000000000E+00  0.00000000000E+00  0.56636669641E+03  0.56636669641E+03  0.00000000000E+00 0. -1.
          1   -1    0    0  501    0 -0.00000000000E+00 -0.00000000000E+00 -0.11336165190E+03  0.11336165190E+03  0.00000000000E+00 0. -1.
         25    2    1    2    0    0 -0.13044808706E+02  0.35355635739E+02  0.11060707335E+03  0.17111141841E+03  0.12500001929E+03 0.  0.
          2    1    1    2  501    0  0.53503613049E+02 -0.37884559021E+02 -0.69028151465E+02  0.95198540515E+02  0.00000000000E+00 0. -1.
          1    1    1    2  502    0 -0.40458804343E+02  0.25289232818E+01  0.41142612262E+03  0.41341838938E+03  0.00000000000E+00 0. -1.
         22    1    3    3    0    0 -0.15414573103E+01 -0.24025513477E+02 -0.17285192870E+02  0.29637464146E+02  0.00000000000E+00 0.  1.
         22    1    3    3    0    0 -0.11503351396E+02  0.59381149216E+02  0.12789226622E+03  0.14147395427E+03  0.00000000000E+00 0.  1.
</event>
<event>
 7    1  0.6235964E-006  0.5985480E+02  0.7818608E-02  0.1445428E+00
          2   -1    0    0  502    0  0.00000000000E+00  0.00000000000E+00  0.74912039540E+03  0.74912039540E+03  0.00000000000E+00 0. -1.
          1   -1    0    0  501    0 -0.00000000000E+00 -0.00000000000E+00 -0.42295517477E+03  0.42295517477E+03  0.00000000000E+00 0. -1.
         25    2    1    2    0    0  0.60684081348E+02 -0.38687548794E+00  0.10752360172E+03  0.17569708378E+03  0.12500173167E+03 0.  0.
          2    1    1    2  501    0 -0.14359694972E+02  0.39193154608E+02 -0.38623837695E+03  0.38848730743E+03  0.00000000000E+00 0. -1.
          1    1    1    2  502    0 -0.46324386377E+02 -0.38806279120E+02  0.60487999585E+03  0.60789117896E+03  0.00000000000E+00 0. -1.
         22    1    3    3    0    0  0.79845581309E+02  0.17077644556E+02  0.12138972757E+03  0.14629568947E+03  0.00000000000E+00 0.  1.
         22    1    3    3    0    0 -0.19161499961E+02 -0.17464520043E+02 -0.13866125855E+02  0.29401394309E+02  0.00000000000E+00 0.  1.
</event>
<event>
 7    1  0.6235964E-006  0.1752785E+03  0.7818608E-02  0.1295901E+00
          2   -1    0    0  502    0  0.00000000000E+00  0.00000000000E+00  0.89921831793E+02  0.89921831793E+02  0.00000000000E+00 0. -1.
          1   -1    0    0  501    0 -0.00000000000E+00 -0.00000000000E+00 -0.95689757178E+03  0.95689757178E+03  0.00000000000E+00 0. -1.
         25    2    1    2    0    0  0.32277366260E+02 -0.13002927953E+03 -0.58101081563E+03  0.60921953761E+03  0.12500174085E+03 0.  0.
          2    1    1    2  501    0  0.99315425464E+01 -0.48261618318E+02 -0.24493627212E+03  0.24984314427E+03  0.00000000000E+00 0. -1.
          1    1    1    2  502    0 -0.42208908806E+02  0.17829089785E+03 -0.41028652241E+02  0.18775672170E+03  0.00000000000E+00 0. -1.
         22    1    3    3    0    0 -0.38747903279E+02 -0.89723180935E+02 -0.25367460516E+03  0.27185005887E+03  0.00000000000E+00 0. -1.
         22    1    3    3    0    0  0.71025269539E+02 -0.40306098594E+02 -0.32733621047E+03  0.33736947873E+03  0.00000000000E+00 0. -1.
</event>
<event>
 7    1  0.6235964E-006  0.8578169E+02  0.7818608E-02  0.1467806E+00
          2   -1    0    0  502    0  0.00000000000E+00  0.00000000000E+00  0.43597955089E+03  0.43597955089E+03  0.00000000000E+00 0. -1.
          1   -1    0    0  501    0 -0.00000000000E+00 -0.00000000000E+00 -0.22006655305E+04  0.22006655305E+04  0.00000000000E+00 0. -1.
         25    2    1    2    0    0 -0.52998944184E+02 -0.92583967890E+02 -0.16626942044E+03  0.23377554619E+03  0.12499922650E+03 0.  0.
          2    1    1    2  501    0  0.32440085733E+02  0.78828606868E+02 -0.19993537109E+04  0.20011700502E+04  0.00000000000E+00 0. -1.
          1    1    1    2  502    0  0.20558858452E+02  0.13755361022E+02  0.40093715174E+03  0.40169948502E+03  0.00000000000E+00 0. -1.
         22    1    3    3    0    0 -0.45047804303E+02 -0.10088825725E+03 -0.18282574616E+03  0.21361881608E+03  0.00000000000E+00 0. -1.
         22    1    3    3    0    0 -0.79511398808E+01  0.83042893564E+01  0.16556325725E+02  0.20156730107E+02  0.00000000000E+00 0. -1.
</event>
<event>
 7    1  0.6235964E-006  0.9053279E+02  0.7818608E-02  0.1428975E+00
          2   -1    0    0  502    0  0.00000000000E+00  0.00000000000E+00  0.19681166736E+04  0.19681166736E+04  0.00000000000E+00 0. -1.
          1   -1    0    0  501    0 -0.00000000000E+00 -0.00000000000E+00 -0.44726780422E+03  0.44726780422E+03  0.00000000000E+00 0. -1.
         25    2    1    2    0    0 -0.46987520219E+02  0.10284840438E+03 -0.70080805569E+02  0.18254044714E+03  0.12499629673E+03 0.  0.
          2    1    1    2  501    0 -0.70433773030E+01 -0.30417664314E+02 -0.31912715705E+03  0.32065087843E+03  0.00000000000E+00 0. -1.
          1    1    1    2  502    0  0.54030897522E+02 -0.72430740062E+02  0.19100568320E+04  0.19121931523E+04  0.00000000000E+00 0. -1.
         22    1    3    3    0    0 -0.71319127541E+02  0.67001155152E+02 -0.91713134148E+02  0.13411514352E+03  0.00000000000E+00 0.  1.
         22    1    3    3    0    0  0.24331607322E+02  0.35847249224E+02  0.21632328579E+02  0.48425303629E+02  0.00000000000E+00 0.  1.
</event>
<event>
 7    1  0.6235964E-006  0.9349203E+02  0.7818608E-02  0.1405661E+00
          2   -1    0    0  502    0  0.00000000000E+00  0.00000000000E+00  0.55018333579E+03  0.55018333579E+03  0.00000000000E+00 0. -1.
          1   -1    0    0  501    0 -0.00000000000E+00 -0.00000000000E+00 -0.62334580049E+02  0.62334580049E+02  0.00000000000E+00 0. -1.
         25    2    1    2    0    0 -0.50381712371E+02 -0.72631614306E+02  0.15956559641E+03  0.22113243584E+03  0.12499882514E+03 0.  0.
          2    1    1    2  501    0  0.81293818605E+02  0.53798826395E+02  0.47791873686E+02  0.10856823594E+03  0.00000000000E+00 0. -1.
          1    1    1    2  502    0 -0.30912106234E+02  0.18832787911E+02  0.28049128565E+03  0.28281724406E+03  0.00000000000E+00 0. -1.
         22    1    3    3    0    0 -0.86574931535E+02 -0.28205549629E+02  0.70200566171E+02  0.11497343733E+03  0.00000000000E+00 0. -1.
         22    1    3    3    0    0  0.36193219164E+02 -0.44426064677E+02  0.89365030237E+02  0.10615899851E+03  0.00000000000E+00 0. -1.
</event>
<event>
 7    1  0.6235964E-006  0.2819378E+03  0.7818608E-02  0.1174462E+00
          2   -1    0    0  502    0  0.00000000000E+00  0.00000000000E+00  0.13484541185E+04  0.13484541185E+04  0.00000000000E+00 0. -1.
          1   -1    0    0  501    0 -0.00000000000E+00 -0.00000000000E+00 -0.19194941789E+04  0.19194941789E+04  0.00000000000E+00 0. -1.
         25    2    1    2    0    0 -0.22031008520E+03 -0.26562521846E+02  0.22275326942E+03  0.33835766680E+03  0.12499916175E+03 0.  0.
          2    1    1    2  501    0 -0.66176574309E+02 -0.83453658813E+02 -0.18380709546E+04  0.18411541723E+04  0.00000000000E+00 0. -1.
          1    1    1    2  502    0  0.28648665951E+03  0.11001618066E+03  0.10442776248E+04  0.10884364583E+04  0.00000000000E+00 0. -1.
         22    1    3    3    0    0 -0.30706040480E+02 -0.54567989247E+02  0.46717601039E+02  0.78122087909E+02  0.00000000000E+00 0.  1.
         22    1    3    3    0    0 -0.18960404472E+03  0.28005467402E+02  0.17603566838E+03  0.26023557889E+03  0.00000000000E+00 0.  1.
</event>
<event>
 7    1  0.6235964E-006  0.7435183E+02  0.7818608E-02  0.1378681E+00
          2   -1    0    0  502    0  0.00000000000E+00  0.00000000000E+00  0.20701460754E+03  0.20701460754E+03  0.00000000000E+00 0. -1.
          1   -1    0    0  501    0 -0.00000000000E+00 -0.00000000000E+00 -0.22289783969E+04  0.22289783969E+04  0.00000000000E+00 0. -1.
         25    2    1    2    0    0  0.70572494163E+02  0.83774093324E+02 -0.34491354100E+03  0.38286939954E+03  0.12500020278E+03 0.  0.
          2    1    1    2  501    0 -0.68202484812E+02 -0.27328168985E+02 -0.18601016928E+04  0.18615522328E+04  0.00000000000E+00 0. -1.
          1    1    1    2  502    0 -0.23700093513E+01 -0.56445924340E+02  0.18305144442E+03  0.19157137214E+03  0.00000000000E+00 0. -1.
         22    1    3    3    0    0  0.67855179088E+02  0.52446866002E+02 -0.34047842404E+03  0.35111330980E+03  0.00000000000E+00 0. -1.
         22    1    3    3    0    0  0.27173150753E+01  0.31327227323E+02 -0.44351169567E+01  0.31756089737E+02  0.00000000000E+00 0. -1.
</event>
<event>
 7    1  0.6235964E-006  0.7743947E+02  0.7818608E-02  0.1348830E+00
          2   -1    0    0  502    0  0.00000000000E+00  0.00000000000E+00  0.38683102042E+03  0.38683102042E+03  0.00000000000E+00 0. -1.
          1   -1    0    0  501    0 -0.00000000000E+00 -0.00000000000E+00 -0.18082914995E+04  0.18082914995E+04  0.00000000000E+00 0. -1.
         25    2    1    2    0    0  0.11231063888E+02  0.27782843787E+02 -0.15198840906E+03  0.19905646951E+03  0.12499991344E+03 0.  0.
          2    1    1    2  501    0 -0.60996282063E+02  0.33545398203E+02 -0.16277238807E+04  0.16292117333E+04  0.00000000000E+00 0. -1.
          1    1    1    2  502    0  0.49765218175E+02 -0.61328241989E+02  0.35825181061E+03  0.36685431715E+03  0.00000000000E+00 0. -1.
         22    1    3    3    0    0  0.12696197336E+02  0.74235396238E+02 -0.12317090511E+03  0.14437160159E+03  0.00000000000E+00 0. -1.
         22    1    3    3    0    0 -0.14651334478E+01 -0.46452552451E+02 -0.28817503951E+02  0.54684867919E+02  0.00000000000E+00 0. -1.
</event>
<event>
 7    1  0.6235964E-006  0.1147781E+03  0.7818608E-02  0.1323580E+00
          2   -1    0    0  502    0  0.00000000000E+00  0.00000000000E+00  0.11024974738E+04  0.11024974738E+04  0.00000000000E+00 0. -1.
          1   -1    0    0  501    0 -0.00000000000E+00 -0.00000000000E+00 -0.47058164243E+02  0.47058164243E+02  0.00000000000E+00 0. -1.
         25    2    1    2    0    0  0.19813041075E+02 -0.10124772332E+03  0.56151109398E+03  0.58443454603E+03  0.12500148740E+03 0.  0.
          2    1    1    2  501    0 -0.54136109918E+02 -0.22236840615E+02  0.39506781873E+01  0.58658361175E+02  0.00000000000E+00 0. -1.
          1    1    1    2  502    0  0.34323068844E+02  0.12348456393E+03  0.48997753737E+03  0.50646273082E+03  0.00000000000E+00 0. -1.
         22    1    3    3    0    0  0.41501648618E+02 -0.44919120911E+02  0.88423880146E+02  0.10751231019E+03  0.00000000000E+00 0.  1.
         22    1    3    3    0    0 -0.21688607543E+02 -0.56328602410E+02  0.47308721384E+03  0.47692223584E+03  0.00000000000E+00 0.  1.
</event>
<event>
 7    1  0.6235964E-006  0.7884004E+02  0.7818608E-02  0.1336525E+00
          2   -1    0    0  502    0  0.00000000000E+00  0.00000000000E+00  0.47423512287E+03  0.47423512287E+03  0.00000000000E+00 0. -1.
          1   -1    0    0  501    0 -0.00000000000E+00 -0.00000000000E+00 -0.14944398598E+03  0.14944398598E+03  0.00000000000E+00 0. -1.
         25    2    1    2    0    0 -0.74379141042E+01 -0.10344438684E+02  0.78849516165E+02  0.14834175735E+03  0.12500280315E+03 0.  0.
          2    1    1    2  501    0  0.27733587122E+02 -0.73801086949E+02 -0.95072504227E+02  0.12350924398E+03  0.00000000000E+00 0. -1.
          1    1    1    2  502    0 -0.20295673018E+02  0.84145525633E+02  0.34101412495E+03  0.35182810752E+03  0.00000000000E+00 0. -1.
         22    1    3    3    0    0 -0.35210905027E+01 -0.34761929607E+02  0.10600417984E+03  0.11161395957E+03  0.00000000000E+00 0.  1.
         22    1    3    3    0    0 -0.39168236015E+01  0.24417490922E+02 -0.27154663675E+02  0.36727797775E+02  0.00000000000E+00 0.  1.
</event>
<event>
 7    1  0.6235964E-006  0.3490993E+02  0.7818608E-02  0.1565400E+00
          2   -1    0    0  502    0  0.00000000000E+00  0.00000000000E+00  0.18350387065E+04  0.18350387065E+04  0.00000000000E+00 0. -1.
          1   -1    0    0  501    0 -0.00000000000E+00 -0.00000000000E+00 -0.33453505109E+02  0.33453505109E+02  0.00000000000E+00 0. -1.
         25    2    1    2    0    0 -0.36391713750E+02 -0.49819830723E+02  0.44554294774E+03  0.46684149977E+03  0.12500438096E+03 0.  0.
          2    1    1    2  501    0  0.78602677107E+01  0.30537025571E+02 -0.11582570799E+02  0.33592405176E+02  0.00000000000E+00 0. -1.
          1    1    1    2  502    0  0.28531446040E+02  0.19282805152E+02  0.13676248245E+04  0.13680583067E+04  0.00000000000E+00 0. -1.
         22    1    3    3    0    0 -0.39455339386E+01 -0.40203889153E+02  0.42569881889E+03  0.42761127715E+03  0.00000000000E+00 0.  1.
         22    1    3    3    0    0 -0.32446179812E+02 -0.96159415705E+01  0.19844128850E+02  0.39230222616E+02  0.00000000000E+00 0.  1.
</event>
<event>
 7    1  0.6235964E-006  0.8889624E+02  0.7818608E-02  0.1366632E+00
          2   -1    0    0  502    0  0.00000000000E+00  0.00000000000E+00  0.67369848345E+02  0.67369848345E+02  0.00000000000E+00 0. -1.
          1   -1    0    0  501    0 -0.00000000000E+00 -0.00000000000E+00 -0.10412713947E+04  0.10412713947E+04  0.00000000000E+00 0. -1.
         25    2    1    2    0    0 -0.38891139824E+02 -0.30274628538E+02 -0.24527871575E+03  0.27966473435E+03  0.12498656469E+03 0.  0.
          2    1    1    2  501    0 -0.14279707422E+02 -0.50196064553E+02 -0.73064355133E+03  0.73250498567E+03  0.00000000000E+00 0. -1.
          1    1    1    2  502    0  0.53170847247E+02  0.80470693090E+02  0.20207207087E+01  0.96471523029E+02  0.00000000000E+00 0. -1.
         22    1    3    3    0    0 -0.28355869288E+02  0.38896137357E+02 -0.17089518612E+03  0.17754472525E+03  0.00000000000E+00 0.  1.
         22    1    3    3    0    0 -0.10535270537E+02 -0.69170765895E+02 -0.74383529624E+02  0.10212000910E+03  0.00000000000E+00 0.  1.
</event>
<event>
 7    1  0.6235964E-006  0.7210842E+02  0.7818608E-02  0.1471998E+00
          2   -1    0    0  502    0  0.00000000000E+00  0.00000000000E+00  0.63895452691E+03  0.63895452691E+03  0.00000000000E+00 0. -1.
          1   -1    0    0  501    0 -0.00000000000E+00 -0.00000000000E+00 -0.16940593972E+03  0.16940593972E+03  0.00000000000E+00 0. -1.
         25    2    1    2    0    0 -0.55946193189E+02  0.91569909595E+01  0.14983986405E+03  0.20323849074E+03  0.12506027445E+03 0.  0.
          2    1    1    2  501    0  0.71625018865E+02  0.14709773261E+02 -0.13286071061E+03  0.15165252777E+03  0.00000000000E+00 0. -1.
          1    1    1    2  502    0 -0.15678825676E+02 -0.23866764220E+02  0.45256943375E+03  0.45346944812E+03  0.00000000000E+00 0. -1.
         22    1    3    3    0    0  0.32724116522E+02 -0.25335136277E+02  0.35792495404E+02  0.54715990895E+02  0.00000000000E+00 0.  1.
         22    1    3    3    0    0 -0.88670309712E+02  0.34492127236E+02  0.11404736865E+03  0.14852249985E+03  0.00000000000E+00 0.  1.
</event>
<event>
 7    1  0.6235964E-006  0.5375298E+02  0.7818608E-02  0.1433747E+00
          2   -1    0    0  502    0  0.00000000000E+00  0.00000000000E+00  0.90486775524E+03  0.90486775524E+03  0.00000000000E+00 0. -1.
          1   -1    0    0  501    0 -0.00000000000E+00 -0.00000000000E+00 -0.24475841436E+03  0.24475841436E+03  0.00000000000E+00 0. -1.
         25    2    1    2    0    0 -0.27486174345E+02 -0.15742745409E+02  0.32324787653E+03  0.34801941108E+03  0.12499998797E+03 0.  0.
          2    1    1    2  501    0 -0.60413339040E+01  0.53802952184E+02 -0.22806732725E+03  0.23440554844E+03  0.00000000000E+00 0. -1.
          1    1    1    2  502    0  0.33527508249E+02 -0.38060206775E+02  0.56492879159E+03  0.56720121008E+03  0.00000000000E+00 0. -1.
         22    1    3    3    0    0 -0.57223863014E+02 -0.22564174370E+02  0.30767726859E+03  0.31376585868E+03  0.00000000000E+00 0. -1.
         22    1    3    3    0    0  0.29737688670E+02  0.68214289604E+01  0.15570607940E+02  0.34253552401E+02  0.00000000000E+00 0. -1.
</event>
<event>
 7    1  0.6235964E-006  0.6277460E+02  0.7818608E-02  0.1466781E+00
          2   -1    0    0  502    0  0.00000000000E+00  0.00000000000E+00  0.90971254929E+03  0.90971254929E+03  0.00000000000E+00 0. -1.
          1   -1    0    0  501    0 -0.00000000000E+00 -0.00000000000E+00 -0.74859817994E+02  0.74859817994E+02  0.00000000000E+00 0. -1.
         25    2    1    2    0    0  0.50486383185E+02  0.85941295916E+01  0.59838832376E+03  0.61344607498E+03  0.12499906779E+03 0.  0.
          2    1    1    2  501    0 -0.58300624162E+02  0.24549065362E+02 -0.51243940312E+02  0.81409832370E+02  0.00000000000E+00 0. -1.
          1    1    1    2  502    0  0.78142409768E+01 -0.33143194953E+02  0.28770834785E+03  0.28971645993E+03  0.00000000000E+00 0. -1.
         22    1    3    3    0    0 -0.10216323786E+02  0.56708750426E+02  0.25729643412E+03  0.26366969992E+03  0.00000000000E+00 0. -1.
         22    1    3    3    0    0  0.60702706971E+02 -0.48114620835E+02  0.34109188964E+03  0.34977637506E+03  0.00000000000E+00 0. -1.
</event>
<event>
 7    1  0.6235964E-006  0.3702669E+02  0.7818608E-02  0.1582102E+00
          2   -1    0    0  502    0  0.00000000000E+00  0.00000000000E+00  0.27483083630E+03  0.27483083630E+03  0.00000000000E+00 0. -1.
          1   -1    0    0  501    0 -0.00000000000E+00 -0.00000000000E+00 -0.56024779215E+03  0.56024779215E+03  0.00000000000E+00 0. -1.
         25    2    1    2    0    0 -0.14388930505E+02 -0.49151232202E+01 -0.33563921360E+03  0.35848311548E+03  0.12500105050E+03 0.  0.
          2    1    1    2  501    0  0.32932675934E+02  0.24255525009E+02 -0.21053201590E+03  0.21446822925E+03  0.00000000000E+00 0. -1.
          1    1    1    2  502    0 -0.18543745429E+02 -0.19340401789E+02  0.26075427365E+03  0.26212728371E+03  0.00000000000E+00 0. -1.
         22    1    3    3    0    0 -0.67225511248E+02  0.49645085653E+01 -0.23386725748E+03  0.24338818753E+03  0.00000000000E+00 0.  1.
         22    1    3    3    0    0  0.52836580744E+02 -0.98796317855E+01 -0.10177195612E+03  0.11509492796E+03  0.00000000000E+00 0.  1.
</event>
<event>
 7    1  0.6235964E-006  0.1496304E+03  0.7818608E-02  0.1245023E+00
          2   -1    0    0  502    0  0.00000000000E+00  0.00000000000E+00  0.10373771279E+04  0.10373771279E+04  0.00000000000E+00 0. -1.
          1   -1    0    0  501    0 -0.00000000000E+00 -0.00000000000E+00 -0.62035001989E+03  0.62035001989E+03  0.00000000000E+00 0. -1.
         25    2    1    2    0    0 -0.22074643192E+02  0.11108873627E+03 -0.11238579850E+03  0.20268873100E+03  0.12499662704E+03 0.  0.
          2    1    1    2  501    0  0.11605775382E+03 -0.11979474147E+03 -0.44543130745E+03  0.47563560838E+03  0.00000000000E+00 0. -1.
          1    1    1    2  502    0 -0.93983110629E+02  0.87060052045E+01  0.97484421397E+03  0.97940280841E+03  0.00000000000E+00 0. -1.
         22    1    3    3    0    0  0.18684505275E+02  0.11298505123E+03 -0.43258597177E+02  0.12241747738E+03  0.00000000000E+00 0.  1.
         22    1    3    3    0    0 -0.40759148467E+02 -0.18963149618E+01 -0.69127201324E+02  0.80271253616E+02  0.00000000000E+00 0.  1.
</event>
<event>
 7    1  0.6235964E-006  0.8132785E+02  0.7818608E-02  0.1469552E+00
          2   -1    0    0  502    0  0.00000000000E+00  0.00000000000E+00  0.87147107670E+03  0.87147107670E+03  0.00000000000E+00 0. -1.
          1   -1    0    0  501    0 -0.00000000000E+00 -0.00000000000E+00 -0.94364124323E+02  0.94364124323E+02  0.00000000000E+00 0. -1.
         25    2    1    2    0    0 -0.56453383610E+02 -0.14466200844E+02  0.19060206518E+03  0.23526628170E+03  0.12499928226E+03 0.  0.
          2    1    1    2  501    0  0.81833170159E+02  0.18909956677E+02 -0.47197860350E+02  0.96342577407E+02  0.00000000000E+00 0. -1.
          1    1    1    2  502    0 -0.25379786549E+02 -0.44437558321E+01  0.63370274755E+03  0.63422634192E+03  0.00000000000E+00 0. -1.
         22    1    3    3    0    0 -0.11855379171E+02 -0.50555344388E+02  0.20632873919E+02  0.55875829726E+02  0.00000000000E+00 0. -1.
         22    1    3    3    0    0 -0.44598004439E+02  0.36089143543E+02  0.16996919126E+03  0.17939045198E+03  0.00000000000E+00 0. -1.
</event>
<event>
 7    1  0.6235964E-006  0.9016678E+02  0.7818608E-02  0.1419814E+00
          2   -1    0    0  502    0  0.00000000000E+00  0.00000000000E+00  0.16887288837E+04  0.16887288837E+04  0.00000000000E+00 0. -1.
          1   -1    0    0  501    0 -0.00000000000E+00 -0.00000000000E+00 -0.44574882338E+02  0.44574882338E+02  0.00000000000E+00 0. -1.
         25    2    1    2    0    0  0.38643578991E+01 -0.58199670074E+02  0.11415595118E+04  0.11498634477E+04  0.12500277803E+03 0.  0.
          2    1    1    2  501    0 -0.11793991588E+02  0.90873849572E+02  0.12837823836E+02  0.92530884004E+02  0.00000000000E+00 0. -1.
          1    1    1    2  502    0  0.79296336890E+01 -0.32674179498E+02  0.48975666580E+03  0.49090943441E+03  0.00000000000E+00 0. -1.
         22    1    3    3    0    0 -0.23590904614E+02  0.23063765640E+02  0.65288046202E+03  0.65371351964E+03  0.00000000000E+00 0.  1.
         22    1    3    3    0    0  0.27455262513E+02 -0.81263435714E+02  0.48867904973E+03  0.49614992802E+03  0.00000000000E+00 0.  1.
</event>
<event>
 7    1  0.7497362E-006  0.1860497E+03  0.7818608E-02  0.1179481E+00
          2   -1    0    0  502    0  0.00000000000E+00  0.00000000000E+00  0.25244860797E+04  0.25244860797E+04  0.00000000000E+00 0. -1.
          1   -1    0    0  501    0 -0.00000000000E+00 -0.00000000000E+00 -0.17776914446E+04  0.17776914446E+04  0.00000000000E+00 0. -1.
         25    2    1    2    0    0  0.12523614024E+03  0.18158256459E+02 -0.72992277422E+03  0.75128313685E+03  0.12500112917E+03 0.  0.
          2    1    1    2  501    0 -0.39180060707E+02  0.14738463579E+03 -0.10279936191E+04  0.10392440468E+04  0.00000000000E+00 0. -1.
          1    1    1    2  502    0 -0.86056079533E+02 -0.16554289225E+03  0.25047110283E+04  0.25116503406E+04  0.00000000000E+00 0. -1.
         22    1    3    3    0    0  0.11156808249E+03 -0.27180091225E+02 -0.63392282973E+03  0.64423935649E+03  0.00000000000E+00 0. -1.
         22    1    3    3    0    0  0.13668057745E+02  0.45338347684E+02 -0.95999944483E+02  0.10704378036E+03  0.00000000000E+00 0. -1.
</event>
<event>
 7    1  0.6235964E-006  0.9297839E+02  0.7818608E-02  0.1459402E+00
          2   -1    0    0  502    0  0.00000000000E+00  0.00000000000E+00  0.92344102978E+03  0.92344102978E+03  0.00000000000E+00 0. -1.
          1   -1    0    0  501    0 -0.00000000000E+00 -0.00000000000E+00 -0.21650763470E+03  0.21650763470E+03  0.00000000000E+00 0. -1.
         25    2    1    2    0    0 -0.10009473083E+03 -0.12058133777E+02  0.21715968787E+03  0.27008448952E+03  0.12499179059E+03 0.  0.
          2    1    1    2  501    0  0.86894404309E+02  0.32401076984E+02 -0.17849848583E+03  0.20115212336E+03  0.00000000000E+00 0. -1.
          1    1    1    2  502    0  0.13200326524E+02 -0.20342943206E+02  0.66827219304E+03  0.66871205160E+03  0.00000000000E+00 0. -1.
         22    1    3    3    0    0 -0.10500249757E+03 -0.15106047604E+02  0.80161625878E+02  0.13296466987E+03  0.00000000000E+00 0. -1.
         22    1    3    3    0    0  0.49077667341E+01  0.30479138266E+01  0.13699806199E+03  0.13711981966E+03  0.00000000000E+00 0. -1.
</event>
<event>
 7    1  0.6235964E-006  0.1491415E+03  0.7818608E-02  0.1294848E+00
          2   -1    0    0  502    0  0.00000000000E+00  0.00000000000E+00  0.45351014248E+03  0.45351014248E+03  0.00000000000E+00 0. -1.
          1   -1    0    0  501    0 -0.00000000000E+00 -0.00000000000E+00 -0.11582754449E+04  0.11582754449E+04  0.00000000000E+00 0. -1.
         25    2    1    2    0    0  0.47286510841E+02  0.85239348298E+02 -0.13719545618E+03  0.20962695277E+03  0.12497641988E+03 0.  0.
          2    1    1    2  501    0  0.45037948738E+02  0.37298100237E+02 -0.96985145572E+03  0.97161278875E+03  0.00000000000E+00 0. -1.
          1    1    1    2  502    0 -0.92324459579E+02 -0.12253744853E+03  0.40228160944E+03  0.43054584590E+03  0.00000000000E+00 0. -1.
         22    1    3    3    0    0  0.70548950965E+02  0.43687395428E+02 -0.13909733711E+03  0.16196855310E+03  0.00000000000E+00 0.  1.
         22    1    3    3    0    0 -0.23262440124E+02  0.41551952870E+02  0.19018809342E+01  0.47658399668E+02  0.00000000000E+00 0.  1.
</event>
<event>
 7    1  0.6235964E-006  0.1025900E+03  0.7818608E-02  0.1419444E+00
          2   -1    0    0  502    0  0.00000000000E+00  0.00000000000E+00  0.52436630022E+03  0.52436630022E+03  0.00000000000E+00 0. -1.
          1   -1    0    0  501    0 -0.00000000000E+00 -0.00000000000E+00 -0.34549651274E+03  0.34549651274E+03  0.00000000000E+00 0. -1.
         25    2    1    2    0    0 -0.11326979745E+03 -0.55017972991E+02 -0.10965321462E+02  0.17776573649E+03  0.12499357755E+03 0.  0.
          2    1    1    2  501    0  0.83636755901E+02  0.54650360648E+02 -0.24066455438E+03  0.26057858045E+03  0.00000000000E+00 0. -1.
          1    1    1    2  502    0  0.29633041550E+02  0.36761234280E+00  0.43049966331E+03  0.43151849601E+03  0.00000000000E+00 0. -1.
         22    1    3    3    0    0 -0.64296661823E+02 -0.93421078767E+02  0.49890284050E+01  0.11351849666E+03  0.00000000000E+00 0. -1.
         22    1    3    3    0    0 -0.48973135629E+02  0.38403105776E+02 -0.15954349867E+02  0.64247239833E+02  0.00000000000E+00 0. -1.
</event>
<event>
 7    1  0.6235964E-006  0.7556139E+02  0.7818608E-02  0.1378643E+00
          2   -1    0    0  502    0  0.00000000000E+00  0.00000000000E+00  0.44210660316E+03  0.44210660316E+03  0.00000000000E+00 0. -1.
          1   -1    0    0  501    0 -0.00000000000E+00 -0.00000000000E+00 -0.13431604064E+04  0.13431604064E+04  0.00000000000E+00 0. -1.
         25    2    1    2    0    0  0.86308005785E+01 -0.30868694680E+02 -0.92450893650E+03  0.93347171227E+03  0.12500118769E+03 0.  0.
          2    1    1    2  501    0 -0.40932401684E+02 -0.37641429745E+02 -0.40899702461E+03  0.41276010572E+03  0.00000000000E+00 0. -1.
          1    1    1    2  502    0  0.32301601105E+02  0.68510124424E+02  0.43245215787E+03  0.43903519156E+03  0.00000000000E+00 0. -1.
         22    1    3    3    0    0  0.31996410766E+02 -0.38233051889E+02 -0.14055346535E+03  0.14913354143E+03  0.00000000000E+00 0. -1.
         22    1    3    3    0    0 -0.23365610187E+02  0.73643572089E+01 -0.78395547115E+03  0.78433817085E+03  0.00000000000E+00 0. -1.
</event>
<event>
 7    1  0.6235964E-006  0.1125647E+03  0.7818608E-02  0.1279356E+00
          2   -1    0    0  502    0  0.00000000000E+00  0.00000000000E+00  0.37570868070E+03  0.37570868070E+03  0.00000000000E+00 0. -1.
          1   -1    0    0  501    0 -0.00000000000E+00 -0.00000000000E+00 -0.25235237969E+04  0.25235237969E+04  0.00000000000E+00 0. -1.
         25    2    1    2    0    0  0.10443444559E+03 -0.15620357505E+03 -0.39332943127E+03  0.45347279037E+03  0.12499367911E+03 0.  0.
          2    1    1    2  501    0 -0.30934654530E+02  0.10489692513E+03 -0.20928594120E+04  0.20957148747E+04  0.00000000000E+00 0. -1.
          1    1    1    2  502    0 -0.73499791062E+02  0.51306649914E+02  0.33837372706E+03  0.35004481252E+03  0.00000000000E+00 0. -1.
         22    1    3    3    0    0  0.74981130444E+02 -0.13700926249E+03 -0.18461803925E+03  0.24182127356E+03  0.00000000000E+00 0.  1.
         22    1    3    3    0    0  0.29453315147E+02 -0.19194312558E+02 -0.20871139202E+03  0.21165151681E+03  0.00000000000E+00 0.  1.
</event>
<event>
 7    1  0.6235964E-006  0.4259689E+02  0.7818608E-02  0.1521396E+00
          2   -1    0    0  502    0  0.00000000000E+00  0.00000000000E+00  0.24514534159E+03  0.24514534159E+03  0.00000000000E+00 0. -1.
          1   -1    0    0  501    0 -0.00000000000E+00 -0.00000000000E+00 -0.13215458271E+04  0.13215458271E+04  0.00000000000E+00 0. -1.
         25    2    1    2    0    0  0.88199224124E+01  0.34111379534E+02 -0.13690206485E+03  0.18870190600E+03  0.12499942688E+03 0.  0.
          2    1    1    2  501    0  0.30206934597E+02 -0.16396862788E+02 -0.11563914973E+04  0.11569021614E+04  0.00000000000E+00 0. -1.
          1    1    1    2  502    0 -0.39026857010E+02 -0.17714516746E+02  0.21689307664E+03  0.22108710131E+03  0.00000000000E+00 0. -1.
         22    1    3    3    0    0  0.61144251336E+02  0.45525066816E+02 -0.83744872444E+02  0.11324466805E+03  0.00000000000E+00 0.  1.
         22    1    3    3    0    0 -0.52324328923E+02 -0.11413687282E+02 -0.53157192405E+02  0.75457237950E+02  0.00000000000E+00 0.  1.
</event>
<event>
 7    1  0.6235964E-006  0.1085965E+03  0.7818608E-02  0.1385038E+00
          2   -1    0    0  502    0  0.00000000000E+00  0.00000000000E+00  0.15923710912E+04  0.15923710912E+04  0.00000000000E+00 0. -1.
          1   -1    0    0  501    0 -0.00000000000E+00 -0.00000000000E+00 -0.31394543524E+03  0.31394543524E+03  0.00000000000E+00 0. -1.
         25    2    1    2    0    0  0.12430204563E+02  0.92097354476E+02  0.52436971509E+03  0.54701580542E+03  0.12500504226E+03 0.  0.
          2    1    1    2  501    0 -0.48769269026E+02 -0.97452188157E+02 -0.29247934434E+03  0.31212103012E+03  0.00000000000E+00 0. -1.
          1    1    1    2  502    0  0.36339064464E+02  0.53548336810E+01  0.10465352852E+04  0.10471796909E+04  0.00000000000E+00 0. -1.
         22    1    3    3    0    0  0.89069301158E+01 -0.28813540926E+02  0.16775892791E+03  0.17044826616E+03  0.00000000000E+00 0. -1.
         22    1    3    3    0    0  0.35232744469E+01  0.12091089540E+03  0.35661078718E+03  0.37656753926E+03  0.00000000000E+00 0. -1.
</event>
<event>
 7    1  0.6235964E-006  0.2728933E+03  0.7818608E-02  0.1209108E+00
          2   -1    0    0  502    0  0.00000000000E+00  0.00000000000E+00  0.13348329935E+04  0.13348329935E+04  0.00000000000E+00 0. -1.
          1   -1    0    0  501    0 -0.00000000000E+00 -0.00000000000E+00 -0.33040119098E+03  0.33040119098E+03  0.00000000000E+00 0. -1.
         25    2    1    2    0    0 -0.24098316756E+03  0.13156232067E+02  0.25863975442E+03  0.37518741727E+03  0.12500040809E+03 0.  0.
          2    1    1    2  501    0 -0.40060737759E+02 -0.63554190958E+02 -0.24639465859E+03  0.25759333392E+03  0.00000000000E+00 0. -1.
          1    1    1    2  502    0  0.28104390532E+03  0.50397958891E+02  0.99218670671E+03  0.10324534333E+04  0.00000000000E+00 0. -1.
         22    1    3    3    0    0 -0.23602805938E+03  0.43447411363E+02  0.23928116039E+03  0.33889879918E+03  0.00000000000E+00 0.  1.
         22    1    3    3    0    0 -0.49551081842E+01 -0.30291179296E+02  0.19358594027E+02  0.36288618091E+02  0.00000000000E+00 0.  1.
</event>
<event>
 7    1  0.6235964E-006  0.1571296E+03  0.7818608E-02  0.1243924E+00
          2   -1    0    0  502    0  0.00000000000E+00  0.00000000000E+00  0.15125572098E+04  0.15125572098E+04  0.00000000000E+00 0. -1.
          1   -1    0    0  501    0 -0.00000000000E+00 -0.00000000000E+00 -0.23060862605E+03  0.23060862605E+03  0.00000000000E+00 0. -1.
         25    2    1    2    0    0  0.17031863246E+03 -0.85377300382E+02  0.94506330695E+00  0.22786923858E+03  0.12500310702E+03 0.  0.
          2    1    1    2  501    0 -0.86835158153E+02  0.12129554437E+03 -0.67499200759E+02  0.16373483404E+03  0.00000000000E+00 0. -1.
          1    1    1    2  502    0 -0.83483474303E+02 -0.35918243983E+02  0.13485027212E+04  0.13515617632E+04  0.00000000000E+00 0. -1.
         22    1    3    3    0    0  0.10700494654E+03  0.13087685918E+02  0.18868305126E+02  0.10944112136E+03  0.00000000000E+00 0.  1.
         22    1    3    3    0    0  0.63313685917E+02 -0.98464986300E+02 -0.17923241819E+02  0.11842811722E+03  0.00000000000E+00 0.  1.
</event>
<event>
 7    1  0.6235964E-006  0.5835229E+02  0.7818608E-02  0.1485553E+00
          2   -1    0    0  502    0  0.00000000000E+00  0.00000000000E+00  0.36575907904E+02  0.36575907904E+02  0.00000000000E+00 0. -1.
          1   -1    0    0  501    0 -0.00000000000E+00 -0.00000000000E+00 -0.10429043530E+04  0.10429043530E+04  0.00000000000E+00 0. -1.
         25    2    1    2    0    0 -0.41065218655E+02 -0.32650953623E+02 -0.18860989708E+03  0.23227041692E+03  0.12499366522E+03 0.  0.
          2    1    1    2  501    0  0.58738666728E+02  0.59014492079E+01 -0.81260188597E+03  0.81474344621E+03  0.00000000000E+00 0. -1.
          1    1    1    2  502    0 -0.17673448073E+02  0.26749504415E+02 -0.51166620460E+01  0.32466397763E+02  0.00000000000E+00 0. -1.
         22    1    3    3    0    0 -0.61349529136E+01  0.47619809256E+02 -0.66109726581E+02  0.81705445531E+02  0.00000000000E+00 0. -1.
         22    1    3    3    0    0 -0.34930265741E+02 -0.80270762879E+02 -0.12250017049E+03  0.15056497139E+03  0.00000000000E+00 0. -1.
</event>
<event>
 7    1  0.6235964E-006  0.6976608E+02  0.7818608E-02  0.1423764E+00
          2   -1    0    0  502    0  0.00000000000E+00  0.00000000000E+00  0.23451095345E+04  0.23451095345E+04  0.00000000000E+00 0. -1.
          1   -1    0    0  501    0 -0.00000000000E+00 -0.00000000000E+00 -0.36792540900E+03  0.36792540900E+03  0.00000000000E+00 0. -1.
         25    2    1    2    0    0  0.95207631478E+02  0.11164543024E+02  0.19552303941E+04  0.19615653533E+04  0.12499440382E+03 0.  0.
          2    1    1    2  501    0 -0.42157205738E+02 -0.12055839763E+00 -0.36162914822E+03  0.36407813086E+03  0.00000000000E+00 0. -1.
          1    1    1    2  502    0 -0.53050425741E+02 -0.11043984627E+02  0.38358287957E+03  0.38739145934E+03  0.00000000000E+00 0. -1.
         22    1    3    3    0    0 -0.39734296090E+01  0.27943245330E+02  0.11117369869E+04  0.11120952032E+04  0.00000000000E+00 0. -1.
         22    1    3    3    0    0  0.99181061087E+02 -0.16778702306E+02  0.84349340728E+03  0.84947015007E+03  0.00000000000E+00 0. -1.
</event>
<event>
 7    1  0.6235964E-006  0.8859390E+02  0.7818608E-02  0.1338299E+00
          2   -1    0    0  502    0  0.00000000000E+00  0.00000000000E+00  0.47429360650E+03  0.47429360650E+03  0.00000000000E+00 0. -1.
          1   -1    0    0  501    0 -0.00000000000E+00 -0.00000000000E+00 -0.54692013744E+03  0.54692013744E+03  0.00000000000E+00 0. -1.
         25    2    1    2    0    0  0.66986914920E+02 -0.32264285877E+02  0.60736373034E+02  0.15761515647E+03  0.12500159850E+03 0.  0.
          2    1    1    2  501    0 -0.84039781901E+02 -0.32142759170E+02 -0.49132142398E+03  0.49949232583E+03  0.00000000000E+00 0. -1.
          1    1    1    2  502    0  0.17052866981E+02  0.64407045046E+02  0.35795852000E+03  0.36410626164E+03  0.00000000000E+00 0. -1.
         22    1    3    3    0    0  0.16698089170E+02 -0.50614395555E+02  0.83810458152E+02  0.99321881350E+02  0.00000000000E+00 0. -1.
         22    1    3    3    0    0  0.50288825750E+02  0.18350109678E+02 -0.23074085118E+02  0.58293275123E+02  0.00000000000E+00 0. -1.
</event>
<event>
 7    1  0.6235964E-006  0.2598454E+03  0.7818608E-02  0.1288525E+00
          2   -1    0    0  502    0  0.00000000000E+00  0.00000000000E+00  0.26611400847E+03  0.26611400847E+03  0.00000000000E+00 0. -1.
          1   -1    0    0  501    0 -0.00000000000E+00 -0.00000000000E+00 -0.46768092021E+03  0.46768092021E+03  0.00000000000E+00 0. -1.
         25    2    1    2    0    0 -0.25039992477E+03 -0.11945476299E+03 -0.71337463328E+02  0.31254937564E+03  0.12501406245E+03 0.  0.
          2    1    1    2  501    0  0.16033748035E+02  0.31791056121E+02 -0.16483725326E+03  0.16863888160E+03  0.00000000000E+00 0. -1.
          1    1    1    2  502    0  0.23436617674E+03  0.87663706864E+02  0.34607804845E+02  0.25260667144E+03  0.00000000000E+00 0. -1.
         22    1    3    3    0    0 -0.16428780657E+03 -0.11581747791E+03 -0.96205651535E+02  0.22284456234E+03  0.00000000000E+00 0. -1.
         22    1    3    3    0    0 -0.86112118209E+02 -0.36372850767E+01  0.24868188207E+02  0.89704813303E+02  0.00000000000E+00 0. -1.
</event>
<event>
 7    1  0.6235964E-006  0.9803540E+02  0.7818608E-02  0.1405402E+00
          2   -1    0    0  502    0  0.00000000000E+00  0.00000000000E+00  0.86637479930E+03  0.86637479930E+03  0.00000000000E+00 0. -1.
          1   -1    0    0  501    0 -0.00000000000E+00 -0.00000000000E+00 -0.53173109838E+02  0.53173109838E+02  0.00000000000E+00 0. -1.
         25    2    1    2    0    0 -0.71282499855E+02  0.64665495277E+02  0.59608651822E+03  0.61661499530E+03  0.12502837344E+03 0.  0.
          2    1    1    2  501    0  0.45446736947E+02 -0.87665096622E+02  0.17426959472E+02  0.10027100269E+03  0.00000000000E+00 0. -1.
          1    1    1    2  502    0  0.25835762908E+02  0.22999601345E+02  0.19968821177E+03  0.20266191114E+03  0.00000000000E+00 0. -1.
         22    1    3    3    0    0 -0.65004923466E+02  0.98460444822E+02  0.51852024354E+03  0.53177376979E+03  0.00000000000E+00 0.  1.
         22    1    3    3    0    0 -0.62775763894E+01 -0.33794949545E+02  0.77566274674E+02  0.84841225515E+02  0.00000000000E+00 0.  1.
</event>
<event>
 7    1  0.6235964E-006  0.1013314E+03  0.7818608E-02  0.1313001E+00
          2   -1    0    0  502    0  0.00000000000E+00  0.00000000000E+00  0.83857933306E+03  0.83857933306E+03  0.00000000000E+00 0. -1.
          1   -1    0    0  501    0 -0.00000000000E+00 -0.00000000000E+00 -0.36742399172E+04  0.36742399172E+04  0.00000000000E+00 0. -1.
         25    2    1    2    0    0  0.33193928452E+02  0.10638668685E+02 -0.72990025623E+02  0.14888796023E+03  0.12500025082E+03 0.  0.
          2    1    1    2  501    0 -0.10170661111E+03  0.14214260409E+02 -0.35609005354E+04  0.35623810722E+04  0.00000000000E+00 0. -1.
          1    1    1    2  502    0  0.68512682658E+02 -0.24852929094E+02  0.79822997691E+03  0.80155021789E+03  0.00000000000E+00 0. -1.
         22    1    3    3    0    0  0.61898879068E+01  0.49519387487E+02 -0.86320720694E+02  0.99708330999E+02  0.00000000000E+00 0.  1.
         22    1    3    3    0    0  0.27004040545E+02 -0.38880718802E+02  0.13330695071E+02  0.49179629232E+02  0.00000000000E+00 0.  1.
</event>
<event>
 7    1  0.6235964E-006  0.1070808E+03  0.7818608E-02  0.1305110E+00
          2   -1    0    0  502    0  0.00000000000E+00  0.00000000000E+00  0.26509919708E+04  0.26509919708E+04  0.00000000000E+00 0. -1.
          1   -1    0    0  501    0 -0.00000000000E+00 -0.00000000000E+00 -0.87064769511E+02  0.87064769511E+02  0.00000000000E+00 0. -1.
         25    2    1    2    0    0 -0.39426422162E+02  0.25137856925E+02  0.49058848240E+03  0.50841387060E+03  0.12498499963E+03 0.  0.
          2    1    1    2  501    0 -0.41470318317E+02  0.61402982941E+02 -0.58567934210E+02  0.94447427350E+02  0.00000000000E+00 0. -1.
          1    1    1    2  502    0  0.80896740479E+02 -0.86540839866E+02  0.21319066531E+04  0.21351954423E+04  0.00000000000E+00 0. -1.
         22    1    3    3    0    0 -0.61461834210E+01  0.37972921500E+02  0.36830335392E+02  0.53255909935E+02  0.00000000000E+00 0.  1.
         22    1    3    3    0    0 -0.33280238741E+02 -0.12835064575E+02  0.45375814701E+03  0.45515796066E+03  0.00000000000E+00 0.  1.
</event>
<event>
 7    1  0.6235964E-006  0.5000793E+02  0.7818608E-02  0.1482522E+00
          2   -1    0    0  502    0  0.00000000000E+00  0.00000000000E+00  0.82532547444E+03  0.82532547444E+03  0.00000000000E+00 0. -1.
          1   -1    0    0  501    0 -0.00000000000E+00 -0.00000000000E+00 -0.10379362437E+04  0.10379362437E+04  0.00000000000E+00 0. -1.
         25    2    1    2    0    0  0.59331709228E+02 -0.46294555432E+02  0.10862228725E+02  0.14631018783E+03  0.12500098187E+03 0.  0.
          2    1    1    2  501    0 -0.38196274719E+02  0.12058314751E+01 -0.96900503510E+03  0.96975830364E+03  0.00000000000E+00 0. -1.
          1    1    1    2  502    0 -0.21135434509E+02  0.45088723957E+02  0.74553203711E+03  0.74719322667E+03  0.00000000000E+00 0. -1.
         22    1    3    3    0    0  0.16792034029E+02 -0.83697311583E+02  0.22937241701E+02  0.88393039488E+02  0.00000000000E+00 0. -1.
         22    1    3    3    0    0  0.42539675199E+02  0.37402756152E+02 -0.12075012976E+02  0.57917148342E+02  0.00000000000E+00 0. -1.
</event>
<event>
 7    1  0.6235964E-006  0.6070648E+02  0.7818608E-02  0.1463102E+00
          2   -1    0    0  502    0  0.00000000000E+00  0.00000000000E+00  0.47250505800E+02  0.47250505800E+02  0.00000000000E+00 0. -1.
          1   -1    0    0  501    0 -0.00000000000E+00 -0.00000000000E+00 -0.45251899680E+03  0.45251899680E+03  0.00000000000E+00 0. -1.
         25    2    1    2    0    0  0.21014999836E+02  0.74217253977E+02 -0.29146100825E+03  0.32638092252E+03  0.12500062500E+03 0.  0.
          2    1    1    2  501    0 -0.37916265257E+02 -0.42251492170E+02 -0.12352579797E+03  0.13594651348E+03  0.00000000000E+00 0. -1.
          1    1    1    2  502    0  0.16901265420E+02 -0.31965761807E+02  0.97183152211E+01  0.37442066602E+02  0.00000000000E+00 0. -1.
         22    1    3    3    0    0 -0.21055911033E+02 -0.25918668241E+02 -0.37762150096E+02  0.50409411152E+02  0.00000000000E+00 0. -1.
         22    1    3    3    0    0  0.42070910869E+02  0.10013592222E+03 -0.25369885815E+03  0.27597151137E+03  0.00000000000E+00 0. -1.
</event>
<event>
 7    1  0.6235964E-006  0.1356077E+03  0.7818608E-02  0.1302665E+00
          2   -1    0    0  502    0  0.00000000000E+00  0.00000000000E+00  0.44959059681E+03  0.44959059681E+03  0.00000000000E+00 0. -1.
          1   -1    0    0  501    0 -0.00000000000E+00 -0.00000000000E+00 -0.70383699428E+03  0.70383699428E+03  0.00000000000E+00 0. -1.
         25    2    1    2    0    0 -0.78988618610E+02  0.93889203768E+02  0.13006981638E+03  0.21816754855E+03  0.12499815059E+03 0.  0.
          2    1    1    2  501    0  0.39244138285E+02  0.45165908154E+02 -0.63931254344E+03  0.64210636957E+03  0.00000000000E+00 0. -1.
          1    1    1    2  502    0  0.39744480326E+02 -0.13905511192E+03  0.25499632960E+03  0.29315367297E+03  0.00000000000E+00 0. -1.
         22    1    3    3    0    0 -0.73127581476E+02  0.11551552712E+03  0.69051248486E+02  0.15316512363E+03  0.00000000000E+00 0.  1.
         22    1    3    3    0    0 -0.58610371344E+01 -0.21626323349E+02  0.61018567892E+02  0.65002424920E+02  0.00000000000E+00 0.  1.
</event>
<event>
 7    1  0.6235964E-006  0.5400800E+02  0.7818608E-02  0.1518657E+00
          2   -1    0    0  502    0  0.00000000000E+00  0.00000000000E+00  0.36297627211E+02  0.36297627211E+02  0.00000000000E+00 0. -1.
          1   -1    0    0  501    0 -0.00000000000E+00 -0.00000000000E+00 -0.12788192742E+04  0.12788192742E+04  0.00000000000E+00 0. -1.
         25    2    1    2    0    0  0.33056335342E+02 -0.31497454647E+01 -0.26058277250E+03  0.29091412947E+03  0.12500002879E+03 0.  0.
          2    1    1    2  501    0 -0.52751942691E+02 -0.16198733024E+02 -0.99294737328E+03  0.99447958878E+03  0.00000000000E+00 0. -1.
          1    1    1    2  502    0  0.19695607349E+02  0.19348478489E+02  0.11008498825E+02  0.29723183125E+02  0.00000000000E+00 0. -1.
         22    1    3    3    0    0  0.67143399683E+02  0.46130177167E+01 -0.24227801791E+03  0.25145209090E+03  0.00000000000E+00 0. -1.
         22    1    3    3    0    0 -0.34087064341E+02 -0.77627631814E+01 -0.18304754589E+02  0.39462038571E+02  0.00000000000E+00 0. -1.
</event>
<event>
 7    1  0.6235964E-006  0.1087547E+03  0.7818608E-02  0.1284397E+00
          2   -1    0    0  502    0  0.00000000000E+00  0.00000000000E+00  0.19598986265E+03  0.19598986265E+03  0.00000000000E+00 0. -1.
          1   -1    0    0  501    0 -0.00000000000E+00 -0.00000000000E+00 -0.17248035927E+04  0.17248035927E+04  0.00000000000E+00 0. -1.
         25    2    1    2    0    0  0.95324708309E+02 -0.10407645191E+03 -0.65325947443E+03  0.67991021787E+03  0.12494501025E+03 0.  0.
          2    1    1    2  501    0 -0.10598183210E+03  0.16277265299E+02 -0.10446053282E+04  0.10500939910E+04  0.00000000000E+00 0. -1.
          1    1    1    2  502    0  0.10657123787E+02  0.87799186615E+02  0.16905107257E+03  0.19078924654E+03  0.00000000000E+00 0. -1.
         22    1    3    3    0    0  0.24605839068E+02 -0.11320021400E+03 -0.36386077024E+03  0.38185651217E+03  0.00000000000E+00 0. -1.
         22    1    3    3    0    0  0.70718869240E+02  0.91237620825E+01 -0.28939870418E+03  0.29805370571E+03  0.00000000000E+00 0. -1.
</event>
<event>
 7    1  0.6235964E-006  0.8981171E+02  0.7818608E-02  0.1399552E+00
          2   -1    0    0  502    0  0.00000000000E+00  0.00000000000E+00  0.16900063738E+03  0.16900063738E+03  0.00000000000E+00 0. -1.
          1   -1    0    0  501    0 -0.00000000000E+00 -0.00000000000E+00 -0.36087481472E+03  0.36087481472E+03  0.00000000000E+00 0. -1.
         25    2    1    2    0    0  0.62171032959E+02  0.17494285253E+02 -0.22727261100E+02  0.14252515417E+03  0.12500241525E+03 0.  0.
          2    1    1    2  501    0  0.20109784116E+02  0.34044764647E+02 -0.25481764030E+03  0.25786717361E+03  0.00000000000E+00 0. -1.
          1    1    1    2  502    0 -0.82280817075E+02 -0.51539049900E+02  0.85670724063E+02  0.12948312432E+03  0.00000000000E+00 0. -1.
         22    1    3    3    0    0  0.77159052195E+02  0.58090127356E+02 -0.84232328060E+01  0.96948094786E+02  0.00000000000E+00 0. -1.
         22    1    3    3    0    0 -0.14988019235E+02 -0.40595842103E+02 -0.14304028294E+02  0.45577059384E+02  0.00000000000E+00 0. -1.
</event>
<event>
 7    1  0.6235964E-006  0.6820069E+02  0.7818608E-02  0.1456111E+00
          2   -1    0    0  502    0  0.00000000000E+00  0.00000000000E+00  0.53244032637E+03  0.53244032637E+03  0.00000000000E+00 0. -1.
          1   -1    0    0  501    0 -0.00000000000E+00 -0.00000000000E+00 -0.78787705893E+03  0.78787705893E+03  0.00000000000E+00 0. -1.
         25    2    1    2    0    0  0.82833532489E+02  0.16495227991E+02  0.13653964756E+03  0.20347499352E+03  0.12500204390E+03 0.  0.
          2    1    1    2  501    0 -0.56593002199E+02 -0.37899654697E+02 -0.75207606287E+03  0.75515399493E+03  0.00000000000E+00 0. -1.
          1    1    1    2  502    0 -0.26240530289E+02  0.21404426706E+02  0.36009968274E+03  0.36168839686E+03  0.00000000000E+00 0. -1.
         22    1    3    3    0    0  0.11474617148E+03  0.21012481086E+02  0.11957550122E+03  0.16705241310E+03  0.00000000000E+00 0. -1.
         22    1    3    3    0    0 -0.31912638991E+02 -0.45172530949E+01  0.16964146345E+02  0.36422580416E+02  0.00000000000E+00 0. -1.
</event>
<event>
 7    1  0.6235964E-006  0.7071452E+02  0.7818608E-02  0.1519579E+00
          2   -1    0    0  502    0  0.00000000000E+00  0.00000000000E+00  0.79746201090E+02  0.79746201090E+02  0.00000000000E+00 0. -1.
          1   -1    0    0  501    0 -0.00000000000E+00 -0.00000000000E+00 -0.18712154388E+04  0.18712154388E+04  0.00000000000E+00 0. -1.
         25    2    1    2    0    0 -0.42452955434E+02 -0.73885643361E+02 -0.36958285244E+03  0.39934685532E+03  0.12500033726E+03 0.  0.
          2    1    1    2  501    0  0.19497857134E+02  0.76827108613E+01 -0.14677306868E+04  0.14678802947E+04  0.00000000000E+00 0. -1.
          1    1    1    2  502    0  0.22955098300E+02  0.66202932499E+02  0.45844301563E+02  0.83734489879E+02  0.00000000000E+00 0. -1.
         22    1    3    3    0    0 -0.31012895671E+02 -0.83218331467E+02 -0.37362885207E+03  0.38403855209E+03  0.00000000000E+00 0. -1.
         22    1    3    3    0    0 -0.11440059763E+02  0.93326881066E+01  0.40459996337E+01  0.15308303228E+02  0.00000000000E+00 0. -1.
</event>
<event>
 7    1  0.6235964E-006  0.5274972E+02  0.7818608E-02  0.1445660E+00
          2   -1    0    0  502    0  0.00000000000E+00  0.00000000000E+00  0.17026759195E+03  0.17026759195E+03  0.00000000000E+00 0. -1.
          1   -1    0    0  501    0 -0.00000000000E+00 -0.00000000000E+00 -0.77850648597E+03  0.77850648597E+03  0.00000000000E+00 0. -1.
         25    2    1    2    0    0 -0.12764330341E+02  0.92751913334E+02 -0.18470098755E+03  0.24188195078E+03  0.12500631086E+03 0.  0.
          2    1    1    2  501    0 -0.10197403240E+02 -0.46169014859E+02 -0.55942458143E+03  0.56141911909E+03  0.00000000000E+00 0. -1.
          1    1    1    2  502    0  0.22961733581E+02 -0.46582898475E+02  0.13588667497E+03  0.14547300806E+03  0.00000000000E+00 0. -1.
         22    1    3    3    0    0 -0.32759872451E+02  0.54505812983E+02 -0.13088748448E+02  0.64926175214E+02  0.00000000000E+00 0.  1.
         22    1    3    3    0    0  0.19995542110E+02  0.38246100351E+02 -0.17161223910E+03  0.17695577556E+03  0.00000000000E+00 0.  1.
</event>
<event>
 7    1  0.6235964E-006  0.7345346E+02  0.7818608E-02  0.1372979E+00
          2   -1    0    0  502    0  0.00000000000E+00  0.00000000000E+00  0.21377632870E+04  0.21377632870E+04  0.00000000000E+00 0. -1.
          1   -1    0    0  501    0 -0.00000000000E+00 -0.00000000000E+00 -0.50700916375E+03  0.50700916375E+03  0.00000000000E+00 0. -1.
         25    2    1    2    0    0  0.59646729994E+02 -0.74286428365E+01  0.16220371908E+03  0.21342109046E+03  0.12500239291E+03 0.  0.
          2    1    1    2  501    0 -0.20926292170E+02 -0.56153429420E+02 -0.47882158063E+03  0.48255696391E+03  0.00000000000E+00 0. -1.
          1    1    1    2  502    0 -0.38720437824E+02  0.63582072257E+02  0.19473719848E+04  0.19487943964E+04  0.00000000000E+00 0. -1.
         22    1    3    3    0    0  0.92298616670E+01 -0.24201579976E+02  0.15801353882E+03  0.16012240714E+03  0.00000000000E+00 0. -1.
         22    1    3    3    0    0  0.50416868327E+02  0.16772937139E+02  0.41901802651E+01  0.53298683312E+02  0.00000000000E+00 0. -1.
</event>
<event>
 7    1  0.6235964E-006  0.6823929E+02  0.7818608E-02  0.1369110E+00
          2   -1    0    0  502    0  0.00000000000E+00  0.00000000000E+00  0.87178442506E+03  0.87178442506E+03  0.00000000000E+00 0. -1.
          1   -1    0    0  501    0 -0.00000000000E+00 -0.00000000000E+00 -0.65005504871E+02  0.65005504871E+02  0.00000000000E+00 0. -1.
         25    2    1    2    0    0  0.74652402335E+02 -0.22108786647E+01  0.19265743911E+03  0.24149491363E+03  0.12500014123E+03 0.  0.
          2    1    1    2  501    0 -0.35828514883E+02 -0.56142874856E+02 -0.99147944619E+01  0.67335043068E+02  0.00000000000E+00 0. -1.
          1    1    1    2  502    0 -0.38823887452E+02  0.58353753520E+02  0.62403627554E+03  0.62795997323E+03  0.00000000000E+00 0. -1.
         22    1    3    3    0    0  0.10185634041E+03 -0.17124173158E+02  0.99927907702E+02  0.14371338882E+03  0.00000000000E+00 0.  1.
         22    1    3    3    0    0 -0.27203938078E+02  0.14913294494E+02  0.92729531409E+02  0.97781524813E+02  0.00000000000E+00 0.  1.
</event>
<event>
 7    1  0.6235964E-006  0.1129724E+03  0.7818608E-02  0.1306125E+00
          2   -1    0    0  502    0  0.00000000000E+00  0.00000000000E+00  0.13777805778E+04  0.13777805778E+04  0.00000000000E+00 0. -1.
          1   -1    0    0  501    0 -0.00000000000E+00 -0.00000000000E+00 -0.10994439194E+04  0.10994439194E+04  0.00000000000E+00 0. -1.
         25    2    1    2    0    0  0.38319853962E+02  0.12239703793E+03  0.50086918079E+03  0.53192446777E+03  0.12499702813E+03 0.  0.
          2    1    1    2  501    0  0.29952856227E+02 -0.10895886123E+03 -0.10795572333E+04  0.10854552164E+04  0.00000000000E+00 0. -1.
          1    1    1    2  502    0 -0.68272710189E+02 -0.13438176697E+02  0.85702471080E+03  0.85984481302E+03  0.00000000000E+00 0. -1.
         22    1    3    3    0    0  0.26900502934E+02  0.10152341007E+03  0.16747839753E+03  0.19768574427E+03  0.00000000000E+00 0.  1.
         22    1    3    3    0    0  0.11419351027E+02  0.20873627860E+02  0.33339078326E+03  0.33423872349E+03  0.00000000000E+00 0.  1.
</event>
<event>
 7    1  0.6235964E-006  0.5648487E+02  0.7818608E-02  0.1553099E+00
          2   -1    0    0  502    0  0.00000000000E+00  0.00000000000E+00  0.68084204941E+03  0.68084204941E+03  0.00000000000E+00 0. -1.
          1   -1    0    0  501    0 -0.00000000000E+00 -0.00000000000E+00 -0.26466336277E+03  0.26466336277E+03  0.00000000000E+00 0. -1.
         25    2    1    2    0    0 -0.67311688113E+01 -0.50349285712E+02 -0.17833106971E+03  0.22362243512E+03  0.12499865543E+03 0.  0.
          2    1    1    2  501    0  0.20591283493E+02 -0.44668437862E+01 -0.60692360067E+02  0.64245748652E+02  0.00000000000E+00 0. -1.
          1    1    1    2  502    0 -0.13860114682E+02  0.54816129499E+02  0.65520211642E+03  0.65763722841E+03  0.00000000000E+00 0. -1.
         22    1    3    3    0    0 -0.36592531844E+02  0.21214937012E+02 -0.11806417231E+03  0.12541226304E+03  0.00000000000E+00 0. -1.
         22    1    3    3    0    0  0.29861363033E+02 -0.71564222724E+02 -0.60266897407E+02  0.98210172077E+02  0.00000000000E+00 0. -1.
</event>
<event>
 7    1  0.6235964E-006  0.1077255E+03  0.7818608E-02  0.1289999E+00
          2   -1    0    0  502    0  0.00000000000E+00  0.00000000000E+00  0.14563662448E+04  0.14563662448E+04  0.00000000000E+00 0. -1.
          1   -1    0    0  501    0 -0.00000000000E+00 -0.00000000000E+00 -0.49932896910E+03  0.49932896910E+03  0.00000000000E+00 0. -1.
         25    2    1    2    0    0 -0.45058103205E+01 -0.18502928104E+03  0.18969536894E+03  0.29302790245E+03  0.12499952578E+03 0.  0.
          2    1    1    2  501    0  0.21485104973E+02  0.81935514916E+02 -0.44138180377E+03  0.44943624135E+03  0.00000000000E+00 0. -1.
          1    1    1    2  502    0 -0.16979294652E+02  0.10309376612E+03  0.12087237105E+04  0.12132310701E+04  0.00000000000E+00 0. -1.
         22    1    3    3    0    0 -0.45776856631E+02 -0.15792009038E+03  0.17793049019E+03  0.24226748624E+03  0.00000000000E+00 0. -1.
         22    1    3    3    0    0  0.41271046310E+02 -0.27109190656E+02  0.11764878754E+02  0.50760416208E+02  0.00000000000E+00 0. -1.
</event>
<event>
 7    1  0.6235964E-006  0.9854121E+02  0.7818608E-02  0.1403576E+00
          2   -1    0    0  502    0  0.00000000000E+00  0.00000000000E+00  0.55409456071E+03  0.55409456071E+03  0.00000000000E+00 0. -1.
          1   -1    0    0  501    0 -0.00000000000E+00 -0.00000000000E+00 -0.15938703857E+04  0.15938703857E+04  0.00000000000E+00 0. -1.
         25    2    1    2    0    0 -0.13569263994E+02  0.68540621028E+02 -0.19974221940E+03  0.24577452443E+03  0.12500488387E+03 0.  0.
          2    1    1    2  501    0  0.37912026613E+02 -0.93563459717E+02 -0.13686772769E+04  0.13723953260E+04  0.00000000000E+00 0. -1.
          1    1    1    2  502    0 -0.24342762619E+02  0.25022838690E+02  0.52864367125E+03  0.52979509596E+03  0.00000000000E+00 0. -1.
         22    1    3    3    0    0  0.38006069651E+02  0.59367820034E+00 -0.13044573689E+03  0.13587090953E+03  0.00000000000E+00 0. -1.
         22    1    3    3    0    0 -0.51575333645E+02  0.67946942827E+02 -0.69296482517E+02  0.10990361491E+03  0.00000000000E+00 0. -1.
</event>
<event>
 7    1  0.6235964E-006  0.4920866E+02  0.7818608E-02  0.1556586E+00
          2   -1    0    0  502    0  0.00000000000E+00  0.00000000000E+00  0.11303116700E+04  0.11303116700E+04  0.00000000000E+00 0. -1.
          1   -1    0    0  501    0 -0.00000000000E+00 -0.00000000000E+00 -0.15383767258E+04  0.15383767258E+04  0.00000000000E+00 0. -1.
         25    2    1    2    0    0 -0.17759162698E+02 -0.31943736052E+02  0.60282465729E+01  0.13036899018E+03  0.12499577478E+03 0.  0.
          2    1    1    2  501    0  0.16035572201E+02 -0.17388327074E+02 -0.14755379820E+04  0.14757275595E+04  0.00000000000E+00 0. -1.
          1    1    1    2  502    0  0.17235904973E+01  0.49332063126E+02  0.10614446797E+04  0.10625918461E+04  0.00000000000E+00 0. -1.
         22    1    3    3    0    0 -0.14009967985E+01 -0.60209622587E+02 -0.41184943476E+02  0.72961366580E+02  0.00000000000E+00 0. -1.
         22    1    3    3    0    0 -0.16358165900E+02  0.28265886535E+02  0.47213190049E+02  0.57407623604E+02  0.00000000000E+00 0. -1.
</event>
<event>
 7    1  0.6235964E-006  0.1675341E+03  0.7818608E-02  0.1378100E+00
          2   -1    0    0  502    0  0.00000000000E+00  0.00000000000E+00  0.42414877161E+03  0.42414877161E+03  0.00000000000E+00 0. -1.
          1   -1    0    0  501    0 -0.00000000000E+00 -0.00000000000E+00 -0.93506176549E+03  0.93506176549E+03  0.00000000000E+00 0. -1.
         25    2    1    2    0    0  0.18131137974E+03 -0.51808929787E+02 -0.20453130942E+03  0.30498506101E+03  0.12499939712E+03 0.  0.
          2    1    1    2  501    0 -0.15751824665E+03  0.43530539065E+02 -0.67004719464E+03  0.68968844336E+03  0.00000000000E+00 0. -1.
          1    1    1    2  502    0 -0.23793133089E+02  0.82783907218E+01  0.36366551018E+03  0.36453703272E+03  0.00000000000E+00 0. -1.
         22    1    3    3    0    0  0.94934118576E+02 -0.87915534426E+02 -0.14354416216E+03  0.19325256675E+03  0.00000000000E+00 0. -1.
         22    1    3    3    0    0  0.86377261163E+02  0.36106604640E+02 -0.60987147258E+02  0.11173249427E+03  0.00000000000E+00 0. -1.
</event>
<event>
 7    1  0.6235964E-006  0.3724587E+02  0.7818608E-02  0.1541571E+00
          2   -1    0    0  502    0  0.00000000000E+00  0.00000000000E+00  0.12069258631E+04  0.12069258631E+04  0.00000000000E+00 0. -1.
          1   -1    0    0  501    0 -0.00000000000E+00 -0.00000000000E+00 -0.33292159861E+03  0.33292159861E+03  0.00000000000E+00 0. -1.
         25    2    1    2    0    0 -0.17567281005E+02 -0.59805313435E+01  0.73269203641E+03  0.74350969844E+03  0.12499870136E+03 0.  0.
          2    1    1    2  501    0  0.30061124378E+01  0.37167526681E+02 -0.32581618013E+03  0.32794305144E+03  0.00000000000E+00 0. -1.
          1    1    1    2  502    0  0.14561168567E+02 -0.31186995338E+02  0.46712840817E+03  0.46839471178E+03  0.00000000000E+00 0. -1.
         22    1    3    3    0    0 -0.29777992600E+02 -0.97194428979E+00  0.72926587631E+03  0.72987423017E+03  0.00000000000E+00 0.  1.
         22    1    3    3    0    0  0.12210711596E+02 -0.50085870537E+01  0.34261601007E+01  0.13635468271E+02  0.00000000000E+00 0.  1.
</event>
<event>
 7    1  0.6235964E-006  0.3379685E+02  0.7818608E-02  0.1590846E+00
          2   -1    0    0  502    0  0.00000000000E+00  0.00000000000E+00  0.13853450601E+04  0.13853450601E+04  0.00000000000E+00 0. -1.
          1   -1    0    0  501    0 -0.00000000000E+00 -0.00000000000E+00 -0.18511742009E+04  0.18511742009E+04  0.00000000000E+00 0. -1.
         25    2    1    2    0    0  0.35623623246E+02  0.45047945356E+02  0.31916023800E+03  0.34754325647E+03  0.12499879071E+03 0.  0.
          2    1    1    2  501    0 -0.24255779809E+02 -0.13632942820E+02 -0.18366120451E+04  0.18368228016E+04  0.00000000000E+00 0. -1.
          1    1    1    2  502    0 -0.11367843437E+02 -0.31415002536E+02  0.10516226663E+04  0.10521532030E+04  0.00000000000E+00 0. -1.
         22    1    3    3    0    0  0.32648155924E+02  0.44379449789E+02  0.39320900113E+02  0.67687301870E+02  0.00000000000E+00 0. -1.
         22    1    3    3    0    0  0.29754673220E+01  0.66849556658E+00  0.27983933789E+03  0.27985595460E+03  0.00000000000E+00 0. -1.
</event>
<event>
 7    1  0.6235964E-006  0.8868385E+02  0.7818608E-02  0.1345825E+00
          2   -1    0    0  502    0  0.00000000000E+00  0.00000000000E+00  0.17363421561E+04  0.17363421561E+04  0.00000000000E+00 0. -1.
          1   -1    0    0  501    0 -0.00000000000E+00 -0.00000000000E+00 -0.21137799487E+03  0.21137799487E+03  0.00000000000E+00 0. -1.
         25    2    1    2    0    0 -0.10088555148E+03 -0.58931490805E+02 -0.59296678291E+02  0.18108193584E+03  0.12499502520E+03 0.  0.
          2    1    1    2  501    0  0.59314530018E+02 -0.19284348187E+02 -0.79205792215E+02  0.10081496455E+03  0.00000000000E+00 0. -1.
          1    1    1    2  502    0  0.41571021466E+02  0.78215838992E+02  0.16634666318E+04  0.16658232506E+04  0.00000000000E+00 0. -1.
         22    1    3    3    0    0 -0.51280001810E+02 -0.96065349725E+02 -0.42360449033E+02  0.11684433082E+03  0.00000000000E+00 0.  1.
         22    1    3    3    0    0 -0.49605549675E+02  0.37133858920E+02 -0.16936229258E+02  0.64237605017E+02  0.00000000000E+00 0.  1.
</event>
<event>
 7    1  0.6235964E-006  0.1037794E+03  0.7818608E-02  0.1363545E+00
          2   -1    0    0  502    0  0.00000000000E+00  0.00000000000E+00  0.13013106897E+04  0.13013106897E+04  0.00000000000E+00 0. -1.
          1   -1    0    0  501    0 -0.00000000000E+00 -0.00000000000E+00 -0.22596049334E+02  0.22596049334E+02  0.00000000000E+00 0. -1.
         25    2    1    2    0    0  0.23000021649E+02  0.66818617509E+02  0.65118493751E+03  0.66682820062E+03  0.12499719060E+03 0.  0.
          2    1    1    2  501    0 -0.35217614464E+02 -0.11103063291E+03  0.23925069208E+03  0.26609955933E+03  0.00000000000E+00 0. -1.
          1    1    1    2  502    0  0.12217592814E+02  0.44212015404E+02  0.38827901082E+03  0.39097897913E+03  0.00000000000E+00 0. -1.
         22    1    3    3    0    0 -0.48315945408E+02  0.19703257960E+02  0.34551018181E+03  0.34942801074E+03  0.00000000000E+00 0.  1.
         22    1    3    3    0    0  0.71315967057E+02  0.47115359549E+02  0.30567475571E+03  0.31740018988E+03  0.00000000000E+00 0.  1.
</event>
<event>
 7    1  0.6235964E-006  0.1336137E+03  0.7818608E-02  0.1408012E+00
          2   -1    0    0  502    0  0.00000000000E+00  0.00000000000E+00  0.75462449147E+03  0.75462449147E+03  0.00000000000E+00 0. -1.
          1   -1    0    0  501    0 -0.00000000000E+00 -0.00000000000E+00 -0.14905700946E+03  0.14905700946E+03  0.00000000000E+00 0. -1.
         25    2    1    2    0    0 -0.44831671379E+02  0.10652291600E+03  0.21273545499E+03  0.27246621209E+03  0.12499781010E+03 0.  0.
          2    1    1    2  501    0 -0.16330584678E+02  0.18750801416E+02 -0.10826713401E+03  0.11108579052E+03  0.00000000000E+00 0. -1.
          1    1    1    2  502    0  0.61162256057E+02 -0.12527371742E+03  0.50109916102E+03  0.52012949832E+03  0.00000000000E+00 0. -1.
         22    1    3    3    0    0  0.26922486282E+02  0.93431906253E+02  0.12533619896E+03  0.15863008587E+03  0.00000000000E+00 0.  1.
         22    1    3    3    0    0 -0.71754157661E+02  0.13091009747E+02  0.87399256034E+02  0.11383612622E+03  0.00000000000E+00 0.  1.
</event>
<event>
 7    1  0.6235964E-006  0.7013510E+02  0.7818608E-02  0.1418420E+00
          2   -1    0    0  502    0  0.00000000000E+00  0.00000000000E+00  0.10250012046E+04  0.10250012046E+04  0.00000000000E+00 0. -1.
          1   -1    0    0  501    0 -0.00000000000E+00 -0.00000000000E+00 -0.22284159023E+03  0.22284159023E+03  0.00000000000E+00 0. -1.
         25    2    1    2    0    0 -0.36976576344E+02  0.30980147580E+02  0.77872174830E+02  0.15497074517E+03  0.12499927802E+03 0.  0.
          2    1    1    2  501    0 -0.34198096468E+02 -0.27193478228E+02 -0.18028096640E+03  0.18549992427E+03  0.00000000000E+00 0. -1.
          1    1    1    2  502    0  0.71174672812E+02 -0.37866693519E+01  0.90456840593E+03  0.90737212538E+03  0.00000000000E+00 0. -1.
         22    1    3    3    0    0 -0.52081991239E+02  0.40294404844E+02 -0.88587936790E+01  0.66442840838E+02  0.00000000000E+00 0.  1.
         22    1    3    3    0    0  0.15105414895E+02 -0.93142572644E+01  0.86730968509E+02  0.88527904335E+02  0.00000000000E+00 0.  1.
</event>
<event>
 7    1  0.6235964E-006  0.8224149E+02  0.7818608E-02  0.1483632E+00
          2   -1    0    0  502    0  0.00000000000E+00  0.00000000000E+00  0.16808725123E+03  0.16808725123E+03  0.00000000000E+00 0. -1.
          1   -1    0    0  501    0 -0.00000000000E+00 -0.00000000000E+00 -0.13021804272E+04  0.13021804272E+04  0.00000000000E+00 0. -1.
         25    2    1    2    0    0 -0.37931086719E+02  0.65083434631E+02 -0.87965280949E+02  0.17040387378E+03  0.12499987498E+03 0.  0.
          2    1    1    2  501    0  0.17065365495E+02  0.15504204419E+02 -0.11592134329E+04  0.11594427067E+04  0.00000000000E+00 0. -1.
          1    1    1    2  502    0  0.20865721224E+02 -0.80587639050E+02  0.11308553785E+03  0.14042109799E+03  0.00000000000E+00 0. -1.
         22    1    3    3    0    0 -0.65703965510E+02 -0.34781606422E+01 -0.17140198364E+02  0.67991875141E+02  0.00000000000E+00 0.  1.
         22    1    3    3    0    0  0.27772878791E+02  0.68561595273E+02 -0.70825082585E+02  0.10241199864E+03  0.00000000000E+00 0.  1.
</event>
<event>
 7    1  0.6235964E-006  0.5785902E+02  0.7818608E-02  0.1484213E+00
          2   -1    0    0  502    0  0.00000000000E+00  0.00000000000E+00  0.15348241035E+03  0.15348241035E+03  0.00000000000E+00 0. -1.
          1   -1    0    0  501    0 -0.00000000000E+00 -0.00000000000E+00 -0.19392361694E+04  0.19392361694E+04  0.00000000000E+00 0. -1.
         25    2    1    2    0    0 -0.71282453980E+01  0.38939921918E+02 -0.13085434285E+04  0.13150961136E+04  0.12499901814E+03 0.  0.
          2    1    1    2  501    0 -0.59004666208E+01 -0.68866034551E+02 -0.62371143310E+03  0.62752951963E+03  0.00000000000E+00 0. -1.
          1    1    1    2  502    0  0.13028712019E+02  0.29926112634E+02  0.14650110250E+03  0.15009294650E+03  0.00000000000E+00 0. -1.
         22    1    3    3    0    0 -0.18856033689E+02  0.75440039392E+02 -0.53701600893E+03  0.54261675555E+03  0.00000000000E+00 0.  1.
         22    1    3    3    0    0  0.11727788292E+02 -0.36500117474E+02 -0.77152741953E+03  0.77247935810E+03  0.00000000000E+00 0.  1.
</event>
<event>
 7    1  0.6235964E-006  0.1136710E+03  0.7818608E-02  0.1316353E+00
          2   -1    0    0  502    0  0.00000000000E+00  0.00000000000E+00  0.15257196219E+03  0.15257196219E+03  0.00000000000E+00 0. -1.
          1   -1    0    0  501    0 -0.00000000000E+00 -0.00000000000E+00 -0.10538749889E+04  0.10538749889E+04  0.00000000000E+00 0. -1.
         25    2    1    2    0    0  0.14821886689E+03 -0.71865968718E+02 -0.20477321169E+03  0.29101487303E+03  0.12499615249E+03 0.  0.
          2    1    1    2  501    0 -0.62834619978E+02  0.50418705347E+01 -0.77753678438E+03  0.78008785466E+03  0.00000000000E+00 0. -1.
          1    1    1    2  502    0 -0.85384246910E+02  0.66824098183E+02  0.81006969367E+02  0.13534422339E+03  0.00000000000E+00 0. -1.
         22    1    3    3    0    0  0.96370943763E+02 -0.18400877113E+02 -0.19177197397E+03  0.21541225842E+03  0.00000000000E+00 0.  1.
         22    1    3    3    0    0  0.51847923124E+02 -0.53465091604E+02 -0.13001237722E+02  0.75602614604E+02  0.00000000000E+00 0.  1.
</event>
<event>
 7    1  0.6235964E-006  0.1321865E+03  0.7818608E-02  0.1224895E+00
          2   -1    0    0  502    0  0.00000000000E+00  0.00000000000E+00  0.14572101924E+03  0.14572101924E+03  0.00000000000E+00 0. -1.
          1   -1    0    0  501    0 -0.00000000000E+00 -0.00000000000E+00 -0.23200513696E+04  0.23200513696E+04  0.00000000000E+00 0. -1.
         25    2    1    2    0    0  0.11165910149E+03  0.25134772835E+02 -0.16408806681E+02  0.17027483040E+03  0.12499902872E+03 0.  0.
          2    1    1    2  501    0 -0.16828625632E+02  0.13021465130E+03 -0.21005696797E+04  0.21046691040E+04  0.00000000000E+00 0. -1.
          1    1    1    2  502    0 -0.94830475854E+02 -0.15534942414E+03 -0.57351864021E+02  0.19082845447E+03  0.00000000000E+00 0. -1.
         22    1    3    3    0    0  0.88452296291E+01 -0.11522643420E+02 -0.53153487206E+02  0.55102655115E+02  0.00000000000E+00 0. -1.
         22    1    3    3    0    0  0.10281387186E+03  0.36657416256E+02  0.36744680525E+02  0.11517217528E+03  0.00000000000E+00 0. -1.
</event>
<event>
 7    1  0.6235964E-006  0.8929424E+02  0.7818608E-02  0.1343817E+00
          2   -1    0    0  502    0  0.00000000000E+00  0.00000000000E+00  0.17017693341E+04  0.17017693341E+04  0.00000000000E+00 0. -1.
          1   -1    0    0  501    0 -0.00000000000E+00 -0.00000000000E+00 -0.12344372682E+03  0.12344372682E+03  0.00000000000E+00 0. -1.
         25    2    1    2    0    0  0.48128294076E+01  0.31663374618E+02 -0.32862769501E+02  0.13315082723E+03  0.12499379406E+03 0.  0.
          2    1    1    2  501    0  0.46534520098E+02  0.42502500939E+02 -0.13845886599E+02  0.64526217327E+02  0.00000000000E+00 0. -1.
          1    1    1    2  502    0 -0.51347349506E+02 -0.74165875557E+02  0.16250342634E+04  0.16275360164E+04  0.00000000000E+00 0. -1.
         22    1    3    3    0    0  0.43635658566E+02 -0.30537914985E+02 -0.26677320922E+02  0.59567729532E+02  0.00000000000E+00 0.  1.
         22    1    3    3    0    0 -0.38822829158E+02  0.62201289602E+02 -0.61854485793E+01  0.73583097693E+02  0.00000000000E+00 0.  1.
</event>
<event>
 7    1  0.6235964E-006  0.1604190E+03  0.7818608E-02  0.1224549E+00
          2   -1    0    0  502    0  0.00000000000E+00  0.00000000000E+00  0.33470808689E+03  0.33470808689E+03  0.00000000000E+00 0. -1.
          1   -1    0    0  501    0 -0.00000000000E+00 -0.00000000000E+00 -0.28922213412E+03  0.28922213412E+03  0.00000000000E+00 0. -1.
         25    2    1    2    0    0 -0.42847664053E+02 -0.88453144641E+02 -0.20263380978E+01  0.15902632973E+03  0.12500154555E+03 0.  0.
          2    1    1    2  501    0 -0.10028199446E+03 -0.41633064676E+02 -0.15215118177E+03  0.18692183554E+03  0.00000000000E+00 0. -1.
          1    1    1    2  502    0  0.14312965852E+03  0.13008620932E+03  0.19966347264E+03  0.27798205573E+03  0.00000000000E+00 0. -1.
         22    1    3    3    0    0 -0.51687806581E+01  0.29745051063E+02  0.15159589552E+02  0.33783095057E+02  0.00000000000E+00 0. -1.
         22    1    3    3    0    0 -0.37678883395E+02 -0.11819819570E+03 -0.17185927650E+02  0.12524323467E+03  0.00000000000E+00 0. -1.
</event>
<event>
 7    1  0.6235964E-006  0.7734469E+02  0.7818608E-02  0.1370145E+00
          2   -1    0    0  502    0  0.00000000000E+00  0.00000000000E+00  0.24175484103E+04  0.24175484103E+04  0.00000000000E+00 0. -1.
          1   -1    0    0  501    0 -0.00000000000E+00 -0.00000000000E+00 -0.94773311410E+01  0.94773311410E+01  0.00000000000E+00 0. -1.
         25    2    1    2    0    0 -0.20427793688E+02  0.47555872553E+02  0.90529538005E+03  0.91534882024E+03  0.12499952722E+03 0.  0.
          2    1    1    2  501    0  0.69130802317E+02 -0.79526338300E+02  0.93394815766E+03  0.93987375083E+03  0.00000000000E+00 0. -1.
          1    1    1    2  502    0 -0.48703008628E+02  0.31970465747E+02  0.56882754148E+03  0.57180317039E+03  0.00000000000E+00 0. -1.
         22    1    3    3    0    0 -0.54350202375E+02 -0.21174034465E+02  0.36049939545E+03  0.36518775767E+03  0.00000000000E+00 0.  1.
         22    1    3    3    0    0  0.33922408686E+02  0.68729907018E+02  0.54479598461E+03  0.55016106257E+03  0.00000000000E+00 0.  1.
</event>
<event>
 7    1  0.6235964E-006  0.1099214E+03  0.7818608E-02  0.1270796E+00
          2   -1    0    0  502    0  0.00000000000E+00  0.00000000000E+00  0.78459558604E+03  0.78459558604E+03  0.00000000000E+00 0. -1.
          1   -1    0    0  501    0 -0.00000000000E+00 -0.00000000000E+00 -0.29812653996E+03  0.29812653996E+03  0.00000000000E+00 0. -1.
         25    2    1    2    0    0 -0.20091197856E+02 -0.16515936679E+02  0.50217085390E+02  0.13719858539E+03  0.12500105509E+03 0.  0.
          2    1    1    2  501    0  0.64371947175E+02  0.10578259283E+03 -0.23568664842E+03  0.26623655040E+03  0.00000000000E+00 0. -1.
          1    1    1    2  502    0 -0.44280749319E+02 -0.89266656149E+02  0.67193860911E+03  0.67928699021E+03  0.00000000000E+00 0. -1.
         22    1    3    3    0    0 -0.67537878553E+02  0.15495832924E+02  0.18314862564E+02  0.71672310331E+02  0.00000000000E+00 0.  1.
         22    1    3    3    0    0  0.47446680697E+02 -0.32011769604E+02  0.31902222826E+02  0.65526275062E+02  0.00000000000E+00 0.  1.
</event>
<event>
 7    1  0.6235964E-006  0.7282360E+02  0.7818608E-02  0.1422233E+00
          2   -1    0    0  502    0  0.00000000000E+00  0.00000000000E+00  0.14978482182E+04  0.14978482182E+04  0.00000000000E+00 0. -1.
          1   -1    0    0  501    0 -0.00000000000E+00 -0.00000000000E+00 -0.31253719923E+03  0.31253719923E+03  0.00000000000E+00 0. -1.
         25    2    1    2    0    0  0.59031586476E+02  0.22193028137E+02  0.35934644468E+03  0.38565795220E+03  0.12499972037E+03 0.  0.
          2    1    1    2  501    0  0.13821032314E+02 -0.38455317788E+02 -0.29674187085E+03  0.29954226799E+03  0.00000000000E+00 0. -1.
          1    1    1    2  502    0 -0.72852618790E+02  0.16262289651E+02  0.11227064452E+04  0.11251851973E+04  0.00000000000E+00 0. -1.
         22    1    3    3    0    0  0.33274239641E+02 -0.31317565602E+02  0.29330021947E+03  0.29683831235E+03  0.00000000000E+00 0. -1.
         22    1    3    3    0    0  0.25757346836E+02  0.53510593739E+02  0.66046225206E+02  0.88819639845E+02  0.00000000000E+00 0. -1.
</event>
<event>
 7    1  0.6235964E-006  0.8963703E+02  0.7818608E-02  0.1391084E+00
          2   -1    0    0  502    0  0.00000000000E+00  0.00000000000E+00  0.18155543743E+03  0.18155543743E+03  0.00000000000E+00 0. -1.
          1   -1    0    0  501    0 -0.00000000000E+00 -0.00000000000E+00 -0.22015372228E+04  0.22015372228E+04  0.00000000000E+00 0. -1.
         25    2    1    2    0    0  0.10932809579E+02 -0.57216127884E+02 -0.35860557353E+03  0.38419959879E+03  0.12497264792E+03 0.  0.
          2    1    1    2  501    0  0.37627744841E+02 -0.19509471765E+02 -0.18176555539E+04  0.18181496581E+04  0.00000000000E+00 0. -1.
          1    1    1    2  502    0 -0.48560554420E+02  0.76725599648E+02  0.15627934206E+03  0.18074340332E+03  0.00000000000E+00 0. -1.
         22    1    3    3    0    0  0.28171278176E+01 -0.71997603897E+02 -0.91038500733E+02  0.11610167868E+03  0.00000000000E+00 0. -1.
         22    1    3    3    0    0  0.81156817618E+01  0.14781476014E+02 -0.26756707279E+03  0.26809792011E+03  0.00000000000E+00 0. -1.
</event>
<event>
 7    1  0.6235964E-006  0.7472055E+02  0.7818608E-02  0.1371374E+00
          2   -1    0    0  502    0  0.00000000000E+00  0.00000000000E+00  0.34884067355E+03  0.34884067355E+03  0.00000000000E+00 0. -1.
          1   -1    0    0  501    0 -0.00000000000E+00 -0.00000000000E+00 -0.87906024923E+03  0.87906024923E+03  0.00000000000E+00 0. -1.
         25    2    1    2    0    0 -0.95058259402E+02 -0.19844614187E+02 -0.14483354275E+03  0.21455184978E+03  0.12500343893E+03 0.  0.
          2    1    1    2  501    0  0.46769770963E+02 -0.37095886284E+02 -0.69362919498E+03  0.69619320335E+03  0.00000000000E+00 0. -1.
          1    1    1    2  502    0  0.48288488439E+02  0.56940500471E+02  0.30824316204E+03  0.31715586966E+03  0.00000000000E+00 0. -1.
         22    1    3    3    0    0 -0.49051742401E+02 -0.54777892987E+02 -0.18777166712E+02  0.75889874043E+02  0.00000000000E+00 0.  1.
         22    1    3    3    0    0 -0.46006517001E+02  0.34933278799E+02 -0.12605637604E+03  0.13866197573E+03  0.00000000000E+00 0.  1.
</event>
<event>
 7    1  0.6235964E-006  0.2293821E+03  0.7818608E-02  0.1319075E+00
          2   -1    0    0  502    0  0.00000000000E+00  0.00000000000E+00  0.20963611843E+04  0.20963611843E+04  0.00000000000E+00 0. -1.
          1   -1    0    0  501    0 -0.00000000000E+00 -0.00000000000E+00 -0.10706927831E+03  0.10706927831E+03  0.00000000000E+00 0. -1.
         25    2    1    2    0    0 -0.11364155271E+03  0.17730926752E+03  0.15523454073E+04  0.15715451399E+04  0.12499953839E+03 0.  0.
          2    1    1    2  501    0  0.14391982646E+03 -0.18085311555E+03  0.40964318905E+02  0.23473142371E+03  0.00000000000E+00 0. -1.
          1    1    1    2  502    0 -0.30278273755E+02  0.35438480347E+01  0.39598217981E+03  0.39715389894E+03  0.00000000000E+00 0. -1.
         22    1    3    3    0    0 -0.81568774685E+01  0.11021107043E+03  0.94691027118E+03  0.95333733608E+03  0.00000000000E+00 0.  1.
         22    1    3    3    0    0 -0.10548467524E+03  0.67098197087E+02  0.60543513608E+03  0.61820780386E+03  0.00000000000E+00 0.  1.
</event>
<event>
 7    1  0.6235964E-006  0.7461767E+02  0.7818608E-02  0.1357862E+00
          2   -1    0    0  502    0  0.00000000000E+00  0.00000000000E+00  0.11908548498E+03  0.11908548498E+03  0.00000000000E+00 0. -1.
          1   -1    0    0  501    0 -0.00000000000E+00 -0.00000000000E+00 -0.22348627167E+03  0.22348627167E+03  0.00000000000E+00 0. -1.
         25    2    1    2    0    0 -0.11484996232E+02 -0.44676623092E+02 -0.88176232368E+01  0.13353275171E+03  0.12500135803E+03 0.  0.
          2    1    1    2  501    0 -0.61572765145E+02 -0.26193424113E+02 -0.82797105312E+02  0.10645497416E+03  0.00000000000E+00 0. -1.
          1    1    1    2  502    0  0.73057761377E+02  0.70870047205E+02 -0.12786058142E+02  0.10258403078E+03  0.00000000000E+00 0. -1.
         22    1    3    3    0    0 -0.58996561873E+02 -0.32009708161E+02  0.27363816998E+02  0.72484441159E+02  0.00000000000E+00 0. -1.
         22    1    3    3    0    0  0.47511565642E+02 -0.12666914931E+02 -0.36181440235E+02  0.61048310551E+02  0.00000000000E+00 0. -1.
</event>
<event>
 7    1  0.6235964E-006  0.9835598E+02  0.7818608E-02  0.1385778E+00
          2   -1    0    0  502    0  0.00000000000E+00  0.00000000000E+00  0.22484894585E+04  0.22484894585E+04  0.00000000000E+00 0. -1.
          1   -1    0    0  501    0 -0.00000000000E+00 -0.00000000000E+00 -0.14774506618E+02  0.14774506618E+02  0.00000000000E+00 0. -1.
         25    2    1    2    0    0  0.81778118757E+02 -0.16706515992E+02  0.73824582790E+03  0.75339431381E+03  0.12501728397E+03 0.  0.
          2    1    1    2  501    0  0.19835416383E+02  0.35096457100E+02  0.70877879883E+02  0.81540657961E+02  0.00000000000E+00 0. -1.
          1    1    1    2  502    0 -0.10161353514E+03 -0.18389941108E+02  0.14245912441E+04  0.14283289934E+04  0.00000000000E+00 0. -1.
         22    1    3    3    0    0  0.64994740069E+02 -0.61920295679E+02  0.31921256137E+03  0.33159478071E+03  0.00000000000E+00 0. -1.
         22    1    3    3    0    0  0.16783378688E+02  0.45213779686E+02  0.41903326652E+03  0.42179953311E+03  0.00000000000E+00 0. -1.
</event>
<event>
 7    1  0.6235964E-006  0.6055183E+02  0.7818608E-02  0.1427673E+00
          2   -1    0    0  502    0  0.00000000000E+00  0.00000000000E+00  0.76976208600E+03  0.76976208600E+03  0.00000000000E+00 0. -1.
          1   -1    0    0  501    0 -0.00000000000E+00 -0.00000000000E+00 -0.52663314956E+03  0.52663314956E+03  0.00000000000E+00 0. -1.
         25    2    1    2    0    0 -0.48452580581E+02 -0.11159067108E+02  0.10732826127E+03  0.17209409907E+03  0.12499938369E+03 0.  0.
          2    1    1    2  501    0  0.28476046284E+02  0.53863229585E+02 -0.49148460903E+03  0.49524665938E+03  0.00000000000E+00 0. -1.
          1    1    1    2  502    0  0.19976534297E+02 -0.42704162477E+02  0.62728528419E+03  0.62905447712E+03  0.00000000000E+00 0. -1.
         22    1    3    3    0    0  0.24503894775E+01 -0.58262180478E+02  0.76517962607E+02  0.96205429598E+02  0.00000000000E+00 0.  1.
         22    1    3    3    0    0 -0.50902970058E+02  0.47103113370E+02  0.30810298665E+02  0.75888669468E+02  0.00000000000E+00 0.  1.
</event>
<event>
 7    1  0.6235964E-006  0.2063700E+03  0.7818608E-02  0.1296856E+00
          2   -1    0    0  502    0  0.00000000000E+00  0.00000000000E+00  0.85945580520E+03  0.85945580520E+03  0.00000000000E+00 0. -1.
          1   -1    0    0  501    0 -0.00000000000E+00 -0.00000000000E+00 -0.28395787560E+03  0.28395787560E+03  0.00000000000E+00 0. -1.
         25    2    1    2    0    0  0.17381675777E+03  0.62691920833E+02 -0.36789655942E+02  0.22606663250E+03  0.12494039109E+03 0.  0.
          2    1    1    2  501    0 -0.20912989562E+03 -0.84454774627E+02 -0.68177724809E+02  0.23561859935E+03  0.00000000000E+00 0. -1.
          1    1    1    2  502    0  0.35313137854E+02  0.21762853794E+02  0.68046531035E+03  0.68172844895E+03  0.00000000000E+00 0. -1.
         22    1    3    3    0    0  0.17773208240E+03  0.70627176659E+02 -0.31438307920E+01  0.19127669714E+03  0.00000000000E+00 0. -1.
         22    1    3    3    0    0 -0.39153246354E+01 -0.79352558257E+01 -0.33645825150E+02  0.34789935355E+02  0.00000000000E+00 0. -1.
</event>
<event>
 7    1  0.6235964E-006  0.1636660E+03  0.7818608E-02  0.1281591E+00
          2   -1    0    0  502    0  0.00000000000E+00  0.00000000000E+00  0.86758743591E+03  0.86758743591E+03  0.00000000000E+00 0. -1.
          1   -1    0    0  501    0 -0.00000000000E+00 -0.00000000000E+00 -0.11776523837E+04  0.11776523837E+04  0.00000000000E+00 0. -1.
         25    2    1    2    0    0 -0.15417806945E+02  0.20279192418E+03  0.97953915220E+02  0.25803339485E+03  0.12499596019E+03 0.  0.
          2    1    1    2  501    0  0.40115642145E+02 -0.45090757568E+02 -0.10875275528E+04  0.10892009086E+04  0.00000000000E+00 0. -1.
          1    1    1    2  502    0 -0.24697835199E+02 -0.15770116661E+03  0.67950868983E+03  0.69800551614E+03  0.00000000000E+00 0. -1.
         22    1    3    3    0    0  0.48786622049E+01  0.19361228256E+03  0.42513189498E+02  0.19828486726E+03  0.00000000000E+00 0.  1.
         22    1    3    3    0    0 -0.20296469150E+02  0.91796416229E+01  0.55440725722E+02  0.59748527587E+02  0.00000000000E+00 0.  1.
</event>
<event>
 7    1  0.6235964E-006  0.9365421E+02  0.7818608E-02  0.1310889E+00
          2   -1    0    0  502    0  0.00000000000E+00  0.00000000000E+00  0.20499078120E+04  0.20499078120E+04  0.00000000000E+00 0. -1.
          1   -1    0    0  501    0 -0.00000000000E+00 -0.00000000000E+00 -0.38706332486E+03  0.38706332486E+03  0.00000000000E+00 0. -1.
         25    2    1    2    0    0 -0.22433208185E+02 -0.13004193496E+02 -0.28536036208E+02  0.13081590782E+03  0.12500455391E+03 0.  0.
          2    1    1    2  501    0  0.81197063877E+02  0.67841999352E+02 -0.29744612296E+03  0.31570507776E+03  0.00000000000E+00 0. -1.
          1    1    1    2  502    0 -0.58763855692E+02 -0.54837805856E+02  0.19888266463E+04  0.19904501513E+04  0.00000000000E+00 0. -1.
         22    1    3    3    0    0 -0.58523969323E+01  0.55584589151E+02 -0.37219666953E+01  0.56015624044E+02  0.00000000000E+00 0.  1.
         22    1    3    3    0    0 -0.16580811253E+02 -0.68588782647E+02 -0.24814069512E+02  0.74800283773E+02  0.00000000000E+00 0.  1.
</event>
<event>
 7    1  0.6235964E-006  0.7837128E+02  0.7818608E-02  0.1389286E+00
          2   -1    0    0  502    0  0.00000000000E+00  0.00000000000E+00  0.48200772212E+03  0.48200772212E+03  0.00000000000E+00 0. -1.
          1   -1    0    0  501    0 -0.00000000000E+00 -0.00000000000E+00 -0.10017317287E+03  0.10017317287E+03  0.00000000000E+00 0. -1.
         25    2    1    2    0    0 -0.94616089436E+02 -0.23661990778E+02  0.54796231474E+02  0.16774936876E+03  0.12500051819E+03 0.  0.
          2    1    1    2  501    0  0.19777148831E+02  0.45030818307E+02 -0.24100997308E+02  0.54770140446E+02  0.00000000000E+00 0. -1.
          1    1    1    2  502    0  0.74838940605E+02 -0.21368827529E+02  0.35113931509E+03  0.35966138578E+03  0.00000000000E+00 0. -1.
         22    1    3    3    0    0 -0.10666915910E+03 -0.50573544207E+02  0.67111262495E+02  0.13579364650E+03  0.00000000000E+00 0. -1.
         22    1    3    3    0    0  0.12053069661E+02  0.26911553429E+02 -0.12315031021E+02  0.31955722261E+02  0.00000000000E+00 0. -1.
</event>
<event>
 7    1  0.6235964E-006  0.5933924E+02  0.7818608E-02  0.1423378E+00
          2   -1    0    0  502    0  0.00000000000E+00  0.00000000000E+00  0.46386084395E+03  0.46386084395E+03  0.00000000000E+00 0. -1.
          1   -1    0    0  501    0 -0.00000000000E+00 -0.00000000000E+00 -0.35668385538E+03  0.35668385538E+03  0.00000000000E+00 0. -1.
         25    2    1    2    0    0 -0.70791507611E+02 -0.35015261902E+02 -0.66704464000E+02  0.16221050158E+03  0.12500102076E+03 0.  0.
          2    1    1    2  501    0  0.46000344178E+02 -0.18847110972E+02 -0.23752781052E+03  0.24267407366E+03  0.00000000000E+00 0. -1.
          1    1    1    2  502    0  0.24791163433E+02  0.53862372874E+02  0.41140926309E+03  0.41566012408E+03  0.00000000000E+00 0. -1.
         22    1    3    3    0    0 -0.61618502986E+02 -0.33764121987E+02 -0.10303890111E+03  0.12471515941E+03  0.00000000000E+00 0.  1.
         22    1    3    3    0    0 -0.91730046240E+01 -0.12511399146E+01  0.36334437108E+02  0.37495342176E+02  0.00000000000E+00 0.  1.
</event>
<event>
 7    1  0.6235964E-006  0.7093566E+02  0.7818608E-02  0.1372824E+00
          2   -1    0    0  502    0  0.00000000000E+00  0.00000000000E+00  0.81033612774E+03  0.81033612774E+03  0.00000000000E+00 0. -1.
          1   -1    0    0  501    0 -0.00000000000E+00 -0.00000000000E+00 -0.17607804714E+04  0.17607804714E+04  0.00000000000E+00 0. -1.
         25    2    1    2    0    0  0.14515494814E+02 -0.27407400406E+02  0.50363307461E+02  0.13829656771E+03  0.12501045043E+03 0.  0.
          2    1    1    2  501    0 -0.71336421127E+02  0.22711035211E+01 -0.17147221603E+04  0.17162069018E+04  0.00000000000E+00 0. -1.
          1    1    1    2  502    0  0.56820926314E+02  0.25136296885E+02  0.71391450918E+03  0.71661312959E+03  0.00000000000E+00 0. -1.
         22    1    3    3    0    0  0.66455583611E+02  0.64771045575E+01  0.27132930123E+02  0.72072833811E+02  0.00000000000E+00 0. -1.
         22    1    3    3    0    0 -0.51940088797E+02 -0.33884504964E+02  0.23230377339E+02  0.66223733904E+02  0.00000000000E+00 0. -1.
</event>
<event>
 7    1  0.6235964E-006  0.3843339E+02  0.7818608E-02  0.1541148E+00
          2   -1    0    0  502    0  0.00000000000E+00  0.00000000000E+00  0.61960848985E+03  0.61960848985E+03  0.00000000000E+00 0. -1.
          1   -1    0    0  501    0 -0.00000000000E+00 -0.00000000000E+00 -0.40741524996E+02  0.40741524996E+02  0.00000000000E+00 0. -1.
         25    2    1    2    0    0  0.11943102751E+02 -0.97336897605E+01  0.10307318123E+03  0.16274578873E+03  0.12499891456E+03 0.  0.
          2    1    1    2  501    0 -0.42642297297E+02  0.23010054223E+02  0.46987822671E+02  0.67495804266E+02  0.00000000000E+00 0. -1.
          1    1    1    2  502    0  0.30699194546E+02 -0.13276364462E+02  0.42880596095E+03  0.43010842185E+03  0.00000000000E+00 0. -1.
         22    1    3    3    0    0  0.18302775805E+02 -0.32665185647E+02 -0.16434887642E+02  0.40891459834E+02  0.00000000000E+00 0.  1.
         22    1    3    3    0    0 -0.63596730540E+01  0.22931495887E+02  0.11950806887E+03  0.12185432890E+03  0.00000000000E+00 0.  1.
</event>
<event>
 7    1  0.6235964E-006  0.4583709E+02  0.7818608E-02  0.1485283E+00
          2   -1    0    0  502    0  0.00000000000E+00  0.00000000000E+00  0.16294325367E+04  0.16294325367E+04  0.00000000000E+00 0. -1.
          1   -1    0    0  501    0 -0.00000000000E+00 -0.00000000000E+00 -0.32161781817E+04  0.32161781817E+04  0.00000000000E+00 0. -1.
         25    2    1    2    0    0 -0.42512178585E+02  0.26364475774E+02  0.30276501385E+03  0.33135258894E+03  0.12500205466E+03 0.  0.
          2    1    1    2  501    0  0.43485545929E+02  0.14515623367E+02 -0.32014017081E+04  0.32017299375E+04  0.00000000000E+00 0. -1.
          1    1    1    2  502    0 -0.97336734368E+00 -0.40880099141E+02  0.13118910492E+04  0.13125281921E+04  0.00000000000E+00 0. -1.
         22    1    3    3    0    0  0.36884335026E+02  0.30981718200E+02  0.66880477405E+02  0.82421594809E+02  0.00000000000E+00 0. -1.
         22    1    3    3    0    0 -0.79396513611E+02 -0.46172424257E+01  0.23588453645E+03  0.24893099413E+03  0.00000000000E+00 0. -1.
</event>
<event>
 7    1  0.6235964E-006  0.5535316E+02  0.7818608E-02  0.1547745E+00
          2   -1    0    0  502    0  0.00000000000E+00  0.00000000000E+00  0.75468106555E+03  0.75468106555E+03  0.00000000000E+00 0. -1.
          1   -1    0    0  501    0 -0.00000000000E+00 -0.00000000000E+00 -0.44520857754E+03  0.44520857754E+03  0.00000000000E+00 0. -1.
         25    2    1    2    0    0  0.60500008895E+02 -0.25637793586E+02 -0.50616795433E+02  0.15001886238E+03  0.12500420615E+03 0.  0.
          2    1    1    2  501    0 -0.41124685630E+02  0.36582507565E+02 -0.34251747374E+03  0.34691171707E+03  0.00000000000E+00 0. -1.
          1    1    1    2  502    0 -0.19375323266E+02 -0.10944713979E+02  0.70260675718E+03  0.70295906363E+03  0.00000000000E+00 0. -1.
         22    1    3    3    0    0  0.24311278097E+02  0.45631540222E+02  0.60247002013E+01  0.52053556250E+02  0.00000000000E+00 0.  1.
         22    1    3    3    0    0  0.36188730798E+02 -0.71269333808E+02 -0.56641495634E+02  0.97965306134E+02  0.00000000000E+00 0.  1.
</event>
<event>
 7    1  0.6235964E-006  0.8675853E+02  0.7818608E-02  0.1383781E+00
          2   -1    0    0  502    0  0.00000000000E+00  0.00000000000E+00  0.48874177947E+03  0.48874177947E+03  0.00000000000E+00 0. -1.
          1   -1    0    0  501    0 -0.00000000000E+00 -0.00000000000E+00 -0.23119207452E+03  0.23119207452E+03  0.00000000000E+00 0. -1.
         25    2    1    2    0    0 -0.41966493630E+02  0.55234258716E+02  0.11781063527E+03  0.18524688518E+03  0.12500021105E+03 0.  0.
          2    1    1    2  501    0  0.82407591563E+02 -0.32388906957E+02 -0.18581662242E+03  0.20583456854E+03  0.00000000000E+00 0. -1.
          1    1    1    2  502    0 -0.40441097933E+02 -0.22845351759E+02  0.32555569210E+03  0.32885240026E+03  0.00000000000E+00 0. -1.
         22    1    3    3    0    0 -0.84955577690E+02  0.22829560834E+02  0.61449337465E+02  0.10730638426E+03  0.00000000000E+00 0. -1.
         22    1    3    3    0    0  0.42989084060E+02  0.32404697882E+02  0.56361297803E+02  0.77940500917E+02  0.00000000000E+00 0. -1.
</event>
<event>
 7    1  0.6235964E-006  0.4234555E+02  0.7818608E-02  0.1532770E+00
          2   -1    0    0  502    0  0.00000000000E+00  0.00000000000E+00  0.41874589408E+02  0.41874589408E+02  0.00000000000E+00 0. -1.
          1   -1    0    0  501    0 -0.00000000000E+00 -0.00000000000E+00 -0.14277990102E+04  0.14277990102E+04  0.00000000000E+00 0. -1.
         25    2    1    2    0    0 -0.13900802662E+02 -0.67974330069E+01 -0.41768379755E+03  0.43626028760E+03  0.12499538548E+03 0.  0.
          2    1    1    2  501    0  0.43538958712E+02 -0.54408340883E+01 -0.99233481009E+03  0.99330439389E+03  0.00000000000E+00 0. -1.
          1    1    1    2  502    0 -0.29638156051E+02  0.12238267095E+02  0.24094186826E+02  0.40108918141E+02  0.00000000000E+00 0. -1.
         22    1    3    3    0    0  0.13926272824E+01 -0.44272816340E+02 -0.51849944057E+02  0.68194122739E+02  0.00000000000E+00 0.  1.
         22    1    3    3    0    0 -0.15293429944E+02  0.37475383333E+02 -0.36583385349E+03  0.36806616486E+03  0.00000000000E+00 0.  1.
</event>
<event>
 7    1  0.6235964E-006  0.6432817E+02  0.7818608E-02  0.1481929E+00
          2   -1    0    0  502    0  0.00000000000E+00  0.00000000000E+00  0.21010578319E+04  0.21010578319E+04  0.00000000000E+00 0. -1.
          1   -1    0    0  501    0 -0.00000000000E+00 -0.00000000000E+00 -0.15111060630E+03  0.15111060630E+03  0.00000000000E+00 0. -1.
         25    2    1    2    0    0 -0.54920610540E+02 -0.65143341872E+02  0.98173253490E+03  0.99332067313E+03  0.12500904416E+03 0.  0.
          2    1    1    2  501    0  0.53601234118E+02  0.35340160836E+02 -0.13801417081E+03  0.15221672251E+03  0.00000000000E+00 0. -1.
          1    1    1    2  502    0  0.13193764218E+01  0.29803181036E+02  0.11062288615E+04  0.11066310426E+04  0.00000000000E+00 0. -1.
         22    1    3    3    0    0 -0.53469735826E+02 -0.62697315953E+02  0.98531051741E+03  0.98875011090E+03  0.00000000000E+00 0. -1.
         22    1    3    3    0    0 -0.14508747140E+01 -0.24460259192E+01 -0.35779825109E+01  0.45705622281E+01  0.00000000000E+00 0. -1.
</event>
<event>
 7    1  0.6235964E-006  0.1123060E+03  0.7818608E-02  0.1344404E+00
          2   -1    0    0  502    0  0.00000000000E+00  0.00000000000E+00  0.25794882698E+04  0.25794882698E+04  0.00000000000E+00 0. -1.
          1   -1    0    0  501    0 -0.00000000000E+00 -0.00000000000E+00 -0.73685384108E+02  0.73685384108E+02  0.00000000000E+00 0. -1.
         25    2    1    2    0    0  0.14282805245E+03  0.73315274577E+02  0.19457735849E+03  0.28152915772E+03  0.12499334445E+03 0.  0.
          2    1    1    2  501    0 -0.42794464983E+02 -0.25580909369E+02 -0.73718492246E+01  0.50399338471E+02  0.00000000000E+00 0. -1.
          1    1    1    2  502    0 -0.10003358747E+03 -0.47734365207E+02  0.23185973764E+04  0.23212451577E+04  0.00000000000E+00 0. -1.
         22    1    3    3    0    0  0.68735755277E+02 -0.29253396607E+02  0.92891169673E+02  0.11920207494E+03  0.00000000000E+00 0. -1.
         22    1    3    3    0    0  0.74092297173E+02  0.10256867118E+03  0.10168618882E+03  0.16232708278E+03  0.00000000000E+00 0. -1.
</event>
<event>
 7    1  0.6235964E-006  0.9382967E+02  0.7818608E-02  0.1388846E+00
          2   -1    0    0  502    0  0.00000000000E+00  0.00000000000E+00  0.39147057055E+03  0.39147057055E+03  0.00000000000E+00 0. -1.
          1   -1    0    0  501    0 -0.00000000000E+00 -0.00000000000E+00 -0.80542580597E+03  0.80542580597E+03  0.00000000000E+00 0. -1.
         25    2    1    2    0    0  0.47793931253E+01 -0.11495474392E+03 -0.24841485665E+03  0.30094994925E+03  0.12499398068E+03 0.  0.
          2    1    1    2  501    0 -0.33274453666E+02  0.85162835857E+02 -0.52562071106E+03  0.53351385153E+03  0.00000000000E+00 0. -1.
          1    1    1    2  502    0  0.28495060540E+02  0.29791908059E+02  0.36008033228E+03  0.36243257574E+03  0.00000000000E+00 0. -1.
         22    1    3    3    0    0 -0.53585840811E+02 -0.33721201185E+02 -0.58011956839E+02  0.85871700117E+02  0.00000000000E+00 0.  1.
         22    1    3    3    0    0  0.58365233936E+02 -0.81233542732E+02 -0.19040289981E+03  0.21507824914E+03  0.00000000000E+00 0.  1.
</event>
<event>
 7    1  0.6235964E-006  0.1199566E+03  0.7818608E-02  0.1299057E+00
          2   -1    0    0  502    0  0.00000000000E+00  0.00000000000E+00  0.12742692856E+04  0.12742692856E+04  0.00000000000E+00 0. -1.
          1   -1    0    0  501    0 -0.00000000000E+00 -0.00000000000E+00 -0.47506884089E+02  0.47506884089E+02  0.00000000000E+00 0. -1.
         25    2    1    2    0    0 -0.23676786278E+02  0.12754290216E+03  0.45732997619E+03  0.49153171507E+03  0.12499975080E+03 0.  0.
          2    1    1    2  501    0  0.68405502095E+02 -0.14495622795E+02  0.22459848079E+02  0.73443043053E+02  0.00000000000E+00 0. -1.
          1    1    1    2  502    0 -0.44728715817E+02 -0.11304727937E+03  0.74697257722E+03  0.75680141154E+03  0.00000000000E+00 0. -1.
         22    1    3    3    0    0 -0.26280385097E+02  0.12294207502E+03  0.46529048352E+03  0.48197577377E+03  0.00000000000E+00 0.  1.
         22    1    3    3    0    0  0.26035988191E+01  0.46008271454E+01 -0.79605073281E+01  0.95559413013E+01  0.00000000000E+00 0.  1.
</event>
<event>
 7    1  0.6235964E-006  0.1262460E+03  0.7818608E-02  0.1425206E+00
          2   -1    0    0  502    0  0.00000000000E+00  0.00000000000E+00  0.52700421816E+03  0.52700421816E+03  0.00000000000E+00 0. -1.
          1   -1    0    0  501    0 -0.00000000000E+00 -0.00000000000E+00 -0.91593517704E+02  0.91593517704E+02  0.00000000000E+00 0. -1.
         25    2    1    2    0    0 -0.44987029950E+02  0.98164921583E+02  0.68341445628E+02  0.17876312707E+03  0.12500207084E+03 0.  0.
          2    1    1    2  501    0 -0.15286053915E+01  0.22991031750E+02 -0.20669129711E+02  0.30953789726E+02  0.00000000000E+00 0. -1.
          1    1    1    2  502    0  0.46515635342E+02 -0.12115595333E+03  0.38773838454E+03  0.40888081907E+03  0.00000000000E+00 0. -1.
         22    1    3    3    0    0 -0.13906835923E+02  0.83596069939E+02  0.10068358052E+03  0.13160124004E+03  0.00000000000E+00 0. -1.
         22    1    3    3    0    0 -0.31080194027E+02  0.14568851643E+02 -0.32342134887E+02  0.47161887027E+02  0.00000000000E+00 0. -1.
</event>
<event>
 7    1  0.6235964E-006  0.1131255E+03  0.7818608E-02  0.1434133E+00
          2   -1    0    0  502    0  0.00000000000E+00  0.00000000000E+00  0.64225413028E+03  0.64225413028E+03  0.00000000000E+00 0. -1.
          1   -1    0    0  501    0 -0.00000000000E+00 -0.00000000000E+00 -0.19308595896E+04  0.19308595896E+04  0.00000000000E+00 0. -1.
         25    2    1    2    0    0 -0.14921669797E+02  0.13186955520E+03 -0.28521246228E+03  0.33850365637E+03  0.12500536356E+03 0.  0.
          2    1    1    2  501    0  0.23208157984E+02 -0.10931253246E+03 -0.16168376694E+04  0.16206948810E+04  0.00000000000E+00 0. -1.
          1    1    1    2  502    0 -0.82864881874E+01 -0.22557022743E+02  0.61344467236E+03  0.61391518242E+03  0.00000000000E+00 0. -1.
         22    1    3    3    0    0 -0.50271440477E+02  0.73442340681E+02 -0.24161269887E+03  0.25748338080E+03  0.00000000000E+00 0. -1.
         22    1    3    3    0    0  0.35349770680E+02  0.58427214522E+02 -0.43599763402E+02  0.81020275566E+02  0.00000000000E+00 0. -1.
</event>
<event>
 7    1  0.7702206E-006  0.7669361E+02  0.7818608E-02  0.1372349E+00
          2   -1    0    0  502    0  0.00000000000E+00  0.00000000000E+00  0.32960432292E+04  0.32960432292E+04  0.00000000000E+00 0. -1.
          1   -1    0    0  501    0 -0.00000000000E+00 -0.00000000000E+00 -0.10816825482E+04  0.10816825482E+04  0.00000000000E+00 0. -1.
         25    2    1    2    0    0  0.74792490319E+01  0.13347518808E+03 -0.12986419368E+03  0.22441395111E+03  0.12500139061E+03 0.  0.
          2    1    1    2  501    0  0.28340205328E+01 -0.57623548934E+02 -0.90317202103E+03  0.90501282015E+03  0.00000000000E+00 0. -1.
          1    1    1    2  502    0 -0.10313269565E+02 -0.75851639143E+02  0.32473968957E+04  0.32482990061E+04  0.00000000000E+00 0. -1.
         22    1    3    3    0    0  0.19793503448E+02  0.28555928191E+02  0.20732047266E+02  0.40460370703E+02  0.00000000000E+00 0. -1.
         22    1    3    3    0    0 -0.12314254416E+02  0.10491925988E+03 -0.15059624095E+03  0.18395358041E+03  0.00000000000E+00 0. -1.
</event>
<event>
 7    1  0.6235964E-006  0.5880706E+02  0.7818608E-02  0.1405015E+00
          2   -1    0    0  502    0  0.00000000000E+00  0.00000000000E+00  0.41828457072E+03  0.41828457072E+03  0.00000000000E+00 0. -1.
          1   -1    0    0  501    0 -0.00000000000E+00 -0.00000000000E+00 -0.17920903073E+04  0.17920903073E+04  0.00000000000E+00 0. -1.
         25    2    1    2    0    0 -0.17154041946E+02  0.22414505110E+02 -0.36750654474E+03  0.38920795926E+03  0.12500041571E+03 0.  0.
          2    1    1    2  501    0 -0.38016672315E+02 -0.43590570806E+02 -0.14109946223E+04  0.14121796024E+04  0.00000000000E+00 0. -1.
          1    1    1    2  502    0  0.55170714262E+02  0.21176065696E+02  0.40469543049E+03  0.40898731634E+03  0.00000000000E+00 0. -1.
         22    1    3    3    0    0 -0.37153921941E+02 -0.36425144767E+02 -0.82746949169E+02  0.97745908782E+02  0.00000000000E+00 0.  1.
         22    1    3    3    0    0  0.19999879995E+02  0.58839649877E+02 -0.28475959557E+03  0.29146205047E+03  0.00000000000E+00 0.  1.
</event>
<event>
 7    1  0.6235964E-006  0.7665450E+02  0.7818608E-02  0.1371482E+00
          2   -1    0    0  502    0  0.00000000000E+00  0.00000000000E+00  0.10951547184E+04  0.10951547184E+04  0.00000000000E+00 0. -1.
          1   -1    0    0  501    0 -0.00000000000E+00 -0.00000000000E+00 -0.21457868626E+03  0.21457868626E+03  0.00000000000E+00 0. -1.
         25    2    1    2    0    0 -0.36080124296E+02  0.11487457546E+03  0.16360894646E+03  0.23851734524E+03  0.12499877263E+03 0.  0.
          2    1    1    2  501    0 -0.62130843702E+01 -0.74984430821E+02 -0.16813706712E+03  0.18420461618E+03  0.00000000000E+00 0. -1.
          1    1    1    2  502    0  0.42293208666E+02 -0.39890144642E+02  0.88510415276E+03  0.88701144320E+03  0.00000000000E+00 0. -1.
         22    1    3    3    0    0  0.11901882246E+02  0.10993446883E+03  0.63796388156E+02  0.12766057097E+03  0.00000000000E+00 0. -1.
         22    1    3    3    0    0 -0.47982006542E+02  0.49401066327E+01  0.99812558308E+02  0.11085677427E+03  0.00000000000E+00 0. -1.
</event>
<event>
 7    1  0.6235964E-006  0.9982369E+02  0.7818608E-02  0.1346277E+00
          2   -1    0    0  502    0  0.00000000000E+00  0.00000000000E+00  0.91602561588E+02  0.91602561588E+02  0.00000000000E+00 0. -1.
          1   -1    0    0  501    0 -0.00000000000E+00 -0.00000000000E+00 -0.49047498079E+03  0.49047498079E+03  0.00000000000E+00 0. -1.
         25    2    1    2    0    0 -0.90220175287E+02 -0.16024051433E+02 -0.32364797376E+03  0.35884448136E+03  0.12499960253E+03 0.  0.
          2    1    1    2  501    0  0.14909089139E+02 -0.53144071460E+02 -0.10336337141E+03  0.11717747146E+03  0.00000000000E+00 0. -1.
          1    1    1    2  502    0  0.75311086148E+02  0.69168122893E+02  0.28138925962E+02  0.10605558955E+03  0.00000000000E+00 0. -1.
         22    1    3    3    0    0 -0.11070237535E+03 -0.17792529617E+02 -0.31848853714E+03  0.33764854258E+03  0.00000000000E+00 0. -1.
         22    1    3    3    0    0  0.20482200062E+02  0.17684781842E+01 -0.51594366178E+01  0.21195938778E+02  0.00000000000E+00 0. -1.
</event>
<event>
 7    1  0.6235964E-006  0.1375392E+03  0.7818608E-02  0.1378543E+00
          2   -1    0    0  502    0  0.00000000000E+00  0.00000000000E+00  0.51885734072E+03  0.51885734072E+03  0.00000000000E+00 0. -1.
          1   -1    0    0  501    0 -0.00000000000E+00 -0.00000000000E+00 -0.20299932915E+04  0.20299932915E+04  0.00000000000E+00 0. -1.
         25    2    1    2    0    0 -0.93984189448E+02 -0.71990140508E+02 -0.24077815416E+03  0.29599736061E+03  0.12499883907E+03 0.  0.
          2    1    1    2  501    0  0.11803469461E+01 -0.30552609794E+02 -0.17517353050E+04  0.17520021216E+04  0.00000000000E+00 0. -1.
          1    1    1    2  502    0  0.92803842502E+02  0.10254275030E+03  0.48137750844E+03  0.50085115000E+03  0.00000000000E+00 0. -1.
         22    1    3    3    0    0 -0.49102384905E+02 -0.68445813401E+02 -0.23616693699E+03  0.25074029533E+03  0.00000000000E+00 0.  1.
         22    1    3    3    0    0 -0.44881804543E+02 -0.35443271074E+01 -0.46112171700E+01  0.45257065277E+02  0.00000000000E+00 0.  1.
</event>
<event>
 7    1  0.6235964E-006  0.9364239E+02  0.7818608E-02  0.1360765E+00
          2   -1    0    0  502    0  0.00000000000E+00  0.00000000000E+00  0.25867882957E+04  0.25867882957E+04  0.00000000000E+00 0. -1.
          1   -1    0    0  501    0 -0.00000000000E+00 -0.00000000000E+00 -0.10637699237E+02  0.10637699237E+02  0.00000000000E+00 0. -1.
         25    2    1    2    0    0  0.87870153220E+02  0.37466946270E+02  0.14274362877E+04  0.14360795286E+04  0.12500048401E+03 0.  0.
          2    1    1    2  501    0 -0.55893970992E+02 -0.78514455388E+02  0.42620924938E+03  0.43697022777E+03  0.00000000000E+00 0. -1.
          1    1    1    2  502    0 -0.31976182228E+02  0.41047509118E+02  0.72250505934E+03  0.72437623858E+03  0.00000000000E+00 0. -1.
         22    1    3    3    0    0  0.45328957206E+02  0.11510554496E+02  0.12717956136E+04  0.12726552125E+04  0.00000000000E+00 0.  1.
         22    1    3    3    0    0  0.42541196014E+02  0.25956391774E+02  0.15564067415E+03  0.16342431607E+03  0.00000000000E+00 0.  1.
</event>
<event>
 7    1  0.6235964E-006  0.1221038E+03  0.7818608E-02  0.1375983E+00
          2   -1    0    0  502    0  0.00000000000E+00  0.00000000000E+00  0.21585183583E+03  0.21585183583E+03  0.00000000000E+00 0. -1.
          1   -1    0    0  501    0 -0.00000000000E+00 -0.00000000000E+00 -0.52139836702E+03  0.52139836702E+03  0.00000000000E+00 0. -1.
         25    2    1    2    0    0 -0.14764974896E+03 -0.83700917775E+01 -0.54705528657E+02  0.20121609905E+03  0.12499886738E+03 0.  0.
          2    1    1    2  501    0  0.30587555745E+02  0.17358625231E+02 -0.36829031000E+03  0.36996577257E+03  0.00000000000E+00 0. -1.
          1    1    1    2  502    0  0.11706219321E+03 -0.89885334534E+01  0.11744930747E+03  0.16606833123E+03  0.00000000000E+00 0. -1.
         22    1    3    3    0    0 -0.86201325602E+01  0.41424462981E+02  0.35562688210E+01  0.42461039396E+02  0.00000000000E+00 0.  1.
         22    1    3    3    0    0 -0.13902961640E+03 -0.49794554759E+02 -0.58261797479E+02  0.15875505965E+03  0.00000000000E+00 0.  1.
</event>
<event>
 7    1  0.6235964E-006  0.5497091E+02  0.7818608E-02  0.1478842E+00
          2   -1    0    0  502    0  0.00000000000E+00  0.00000000000E+00  0.24625049482E+04  0.24625049482E+04  0.00000000000E+00 0. -1.
          1   -1    0    0  501    0 -0.00000000000E+00 -0.00000000000E+00 -0.38453716493E+03  0.38453716493E+03  0.00000000000E+00 0. -1.
         25    2    1    2    0    0  0.72101414460E+02  0.17172253917E+02  0.72404738375E+02  0.16236587329E+03  0.12500692140E+03 0.  0.
          2    1    1    2  501    0 -0.41574389669E+02 -0.35642303973E+02 -0.33721199199E+03  0.34162952339E+03  0.00000000000E+00 0. -1.
          1    1    1    2  502    0 -0.30527024791E+02  0.18470050057E+02  0.23427750369E+04  0.23430467164E+04  0.00000000000E+00 0. -1.
         22    1    3    3    0    0 -0.35301282441E+02  0.13613775520E+02  0.17389672050E+02  0.41640318441E+02  0.00000000000E+00 0. -1.
         22    1    3    3    0    0  0.10740269690E+03  0.35584783964E+01  0.55015066325E+02  0.12072555485E+03  0.00000000000E+00 0. -1.
</event>
<event>
 7    1  0.6235964E-006  0.1024092E+03  0.7818608E-02  0.1402860E+00
          2   -1    0    0  502    0  0.00000000000E+00  0.00000000000E+00  0.20800362645E+04  0.20800362645E+04  0.00000000000E+00 0. -1.
          1   -1    0    0  501    0 -0.00000000000E+00 -0.00000000000E+00 -0.12077890908E+03  0.12077890908E+03  0.00000000000E+00 0. -1.
         25    2    1    2    0    0 -0.17866793098E+02 -0.11533588488E+03  0.95545717765E+03  0.97064163358E+03  0.12500069551E+03 0.  0.
          2    1    1    2  501    0 -0.22825943162E+02  0.24903329204E+02 -0.10840988702E+03  0.11355132360E+03  0.00000000000E+00 0. -1.
          1    1    1    2  502    0  0.40692736260E+02  0.90432555680E+02  0.11122100648E+04  0.11166222164E+04  0.00000000000E+00 0. -1.
         22    1    3    3    0    0 -0.23011288496E+02 -0.12195715508E+03  0.95411128871E+03  0.96214937422E+03  0.00000000000E+00 0. -1.
         22    1    3    3    0    0  0.51444953973E+01  0.66212701999E+01  0.13458889402E+01  0.84922593574E+01  0.00000000000E+00 0. -1.
</event>
<event>
 7    1  0.6235964E-006  0.7411661E+02  0.7818608E-02  0.1513096E+00
          2   -1    0    0  502    0  0.00000000000E+00  0.00000000000E+00  0.44738992457E+03  0.44738992457E+03  0.00000000000E+00 0. -1.
          1   -1    0    0  501    0 -0.00000000000E+00 -0.00000000000E+00 -0.90670738489E+02  0.90670738489E+02  0.00000000000E+00 0. -1.
         25    2    1    2    0    0  0.91331571331E+02 -0.41333546503E+01  0.32069933037E+03  0.35613230790E+03  0.12499447865E+03 0.  0.
          2    1    1    2  501    0 -0.72143758646E+02  0.12380785312E+02 -0.53076814756E+02  0.90416558335E+02  0.00000000000E+00 0. -1.
          1    1    1    2  502    0 -0.19187812685E+02 -0.82474306621E+01  0.89096670468E+02  0.91511796817E+02  0.00000000000E+00 0. -1.
         22    1    3    3    0    0  0.83457153606E+02  0.45798629927E+02  0.26149226303E+03  0.27828189775E+03  0.00000000000E+00 0. -1.
         22    1    3    3    0    0  0.78744177253E+01 -0.49931984577E+02  0.59207067335E+02  0.77850410151E+02  0.00000000000E+00 0. -1.
</event>
<event>
 7    1  0.6235964E-006  0.8712566E+02  0.7818608E-02  0.1333808E+00
          2   -1    0    0  502    0  0.00000000000E+00  0.00000000000E+00  0.29881370829E+04  0.29881370829E+04  0.00000000000E+00 0. -1.
          1   -1    0    0  501    0 -0.00000000000E+00 -0.00000000000E+00 -0.43796854473E+03  0.43796854473E+03  0.00000000000E+00 0. -1.
         25    2    1    2    0    0 -0.38712429811E+02  0.61186467867E+02  0.75883403568E+02  0.16317508065E+03  0.12500151974E+03 0.  0.
          2    1    1    2  501    0  0.66961716531E+02  0.21905541031E+02 -0.39049834385E+03  0.39680307554E+03  0.00000000000E+00 0. -1.
          1    1    1    2  502    0 -0.28249286720E+02 -0.83092008898E+02  0.28647834785E+04  0.28661274715E+04  0.00000000000E+00 0. -1.
         22    1    3    3    0    0 -0.15758904352E+01  0.24301023858E+02  0.10186799345E+03  0.10473829902E+03  0.00000000000E+00 0.  1.
         22    1    3    3    0    0 -0.37136539376E+02  0.36885444009E+02 -0.25984589881E+02  0.58436781635E+02  0.00000000000E+00 0.  1.
</event>
<event>
 7    1  0.6235964E-006  0.1784966E+03  0.7818608E-02  0.1326543E+00
          2   -1    0    0  502    0  0.00000000000E+00  0.00000000000E+00  0.30032992803E+03  0.30032992803E+03  0.00000000000E+00 0. -1.
          1   -1    0    0  501    0 -0.00000000000E+00 -0.00000000000E+00 -0.50076312829E+03  0.50076312829E+03  0.00000000000E+00 0. -1.
         25    2    1    2    0    0 -0.44752211712E+02  0.14129503239E+03  0.71266675182E+02  0.20656782449E+03  0.12499712192E+03 0.  0.
          2    1    1    2  501    0  0.67961315291E+02 -0.16966963054E+03 -0.41135843356E+03  0.45013585146E+03  0.00000000000E+00 0. -1.
          1    1    1    2  502    0 -0.23209103580E+02  0.28374598146E+02  0.13965855812E+03  0.14438938038E+03  0.00000000000E+00 0. -1.
         22    1    3    3    0    0  0.24544180688E+02  0.11552134937E+03  0.29810895228E+02  0.12180430387E+03  0.00000000000E+00 0.  1.
         22    1    3    3    0    0 -0.69296392400E+02  0.25773683022E+02  0.41455779954E+02  0.84763520619E+02  0.00000000000E+00 0.  1.
</event>
<event>
 7    1  0.6235964E-006  0.5901466E+02  0.7818608E-02  0.1520778E+00
          2   -1    0    0  502    0  0.00000000000E+00  0.00000000000E+00  0.89452085930E+03  0.89452085930E+03  0.00000000000E+00 0. -1.
          1   -1    0    0  501    0 -0.00000000000E+00 -0.00000000000E+00 -0.25201056135E+03  0.25201056135E+03  0.00000000000E+00 0. -1.
         25    2    1    2    0    0  0.12940972406E+02 -0.34109973902E+02  0.64778895725E+02  0.14543588268E+03  0.12499732618E+03 0.  0.
          2    1    1    2  501    0 -0.10943810291E+02  0.58941013301E+02 -0.20723616172E+03  0.21573279018E+03  0.00000000000E+00 0. -1.
          1    1    1    2  502    0 -0.19971621153E+01 -0.24831039399E+02  0.78496756395E+03  0.78536274779E+03  0.00000000000E+00 0. -1.
         22    1    3    3    0    0 -0.58857452986E+01 -0.78614507453E+02  0.55024546500E+02  0.96138356015E+02  0.00000000000E+00 0.  1.
         22    1    3    3    0    0  0.18826717705E+02  0.44504533551E+02  0.97543492254E+01  0.49297526661E+02  0.00000000000E+00 0.  1.
</event>
<event>
 7    1  0.6235964E-006  0.3707557E+02  0.7818608E-02  0.1544221E+00
          2   -1    0    0  502    0  0.00000000000E+00  0.00000000000E+00  0.86019192523E+03  0.86019192523E+03  0.00000000000E+00 0. -1.
          1   -1    0    0  501    0 -0.00000000000E+00 -0.00000000000E+00 -0.50010056151E+02  0.50010056151E+02  0.00000000000E+00 0. -1.
         25    2    1    2    0    0  0.64911203453E+01 -0.13465958502E+02  0.30273955383E+03  0.32787173223E+03  0.12500067464E+03 0.  0.
          2    1    1    2  501    0  0.32152510661E+02  0.11017794825E+02 -0.28886797651E+02  0.44605188299E+02  0.00000000000E+00 0. -1.
          1    1    1    2  502    0 -0.38643631006E+02  0.24481636777E+01  0.53632911290E+03  0.53772506086E+03  0.00000000000E+00 0. -1.
         22    1    3    3    0    0  0.34237363858E+02  0.59201890926E+01  0.28941887893E+03  0.29149705522E+03  0.00000000000E+00 0.  1.
         22    1    3    3    0    0 -0.27746243513E+02 -0.19386147595E+02  0.13320674900E+02  0.36374677008E+02  0.00000000000E+00 0.  1.
</event>
<event>
 7    1  0.6235964E-006  0.1827698E+03  0.7818608E-02  0.1308950E+00
          2   -1    0    0  502    0  0.00000000000E+00  0.00000000000E+00  0.39896040120E+03  0.39896040120E+03  0.00000000000E+00 0. -1.
          1   -1    0    0  501    0 -0.00000000000E+00 -0.00000000000E+00 -0.75991081297E+03  0.75991081297E+03  0.00000000000E+00 0. -1.
         25    2    1    2    0    0  0.16255999838E+03 -0.12768165118E+03 -0.16612638713E+03  0.29317463057E+03  0.12500012154E+03 0.  0.
          2    1    1    2  501    0 -0.12072414362E+03  0.13029075312E+03 -0.51397653869E+03  0.54380316432E+03  0.00000000000E+00 0. -1.
          1    1    1    2  502    0 -0.41835854758E+02 -0.26091019433E+01  0.31915251405E+03  0.32189341928E+03  0.00000000000E+00 0. -1.
         22    1    3    3    0    0  0.26809809466E+02 -0.96398797715E+02 -0.89161198935E+02  0.13401945187E+03  0.00000000000E+00 0. -1.
         22    1    3    3    0    0  0.13575018891E+03 -0.31282853466E+02 -0.76965188194E+02  0.15915517869E+03  0.00000000000E+00 0. -1.
</event>
<event>
 7    1  0.6235964E-006  0.1260901E+03  0.7818608E-02  0.1324634E+00
          2   -1    0    0  502    0  0.00000000000E+00  0.00000000000E+00  0.63323143142E+03  0.63323143142E+03  0.00000000000E+00 0. -1.
          1   -1    0    0  501    0 -0.00000000000E+00 -0.00000000000E+00 -0.81646017726E+03  0.81646017726E+03  0.00000000000E+00 0. -1.
         25    2    1    2    0    0  0.10250649487E+03  0.66233593613E+02 -0.31331885402E+03  0.35873101051E+03  0.12499905281E+03 0.  0.
          2    1    1    2  501    0 -0.71821312144E+02 -0.10917549687E+03 -0.47036972112E+03  0.48818568654E+03  0.00000000000E+00 0. -1.
          1    1    1    2  502    0 -0.30685182722E+02  0.42941903252E+02  0.60045982930E+03  0.60277491164E+03  0.00000000000E+00 0. -1.
         22    1    3    3    0    0  0.95936938404E+02  0.26090215153E+02 -0.97993028712E+02  0.13959666598E+03  0.00000000000E+00 0. -1.
         22    1    3    3    0    0  0.65695564621E+01  0.40143378461E+02 -0.21532582531E+03  0.21913434452E+03  0.00000000000E+00 0. -1.
</event>
<event>
 7    1  0.6235964E-006  0.9599288E+02  0.7818608E-02  0.1414513E+00
          2   -1    0    0  502    0  0.00000000000E+00  0.00000000000E+00  0.13153208784E+04  0.13153208784E+04  0.00000000000E+00 0. -1.
          1   -1    0    0  501    0 -0.00000000000E+00 -0.00000000000E+00 -0.10360359604E+04  0.10360359604E+04  0.00000000000E+00 0. -1.
         25    2    1    2    0    0 -0.60682082811E+02  0.39333204943E+02  0.88574649063E+03  0.89744134686E+03  0.12499883684E+03 0.  0.
          2    1    1    2  501    0  0.91741021617E+02 -0.28477127155E+02 -0.10273058145E+04  0.10317870896E+04  0.00000000000E+00 0. -1.
          1    1    1    2  502    0 -0.31058938806E+02 -0.10856077788E+02  0.42084424186E+03  0.42212840228E+03  0.00000000000E+00 0. -1.
         22    1    3    3    0    0 -0.34975366268E+02  0.75257058325E+02  0.34285024690E+03  0.35275089351E+03  0.00000000000E+00 0. -1.
         22    1    3    3    0    0 -0.25706716544E+02 -0.35923853382E+02  0.54289624373E+03  0.54469045335E+03  0.00000000000E+00 0. -1.
</event>
<event>
 7    1  0.6235964E-006  0.6734907E+02  0.7818608E-02  0.1373289E+00
          2   -1    0    0  502    0  0.00000000000E+00  0.00000000000E+00  0.38508015133E+04  0.38508015133E+04  0.00000000000E+00 0. -1.
          1   -1    0    0  501    0 -0.00000000000E+00 -0.00000000000E+00 -0.11743231922E+04  0.11743231922E+04  0.00000000000E+00 0. -1.
         25    2    1    2    0    0  0.83590249882E+01 -0.15735564835E+01  0.34979833983E+02  0.13007933304E+03  0.12499877888E+03 0.  0.
          2    1    1    2  501    0  0.38623737901E+01 -0.65076240790E+02 -0.11255255704E+04  0.11274119233E+04  0.00000000000E+00 0. -1.
          1    1    1    2  502    0 -0.12221398778E+02  0.66649797274E+02  0.37670240575E+04  0.37676334492E+04  0.00000000000E+00 0. -1.
         22    1    3    3    0    0  0.38180824264E+02 -0.47164440916E+02  0.43872350552E+02  0.74880190781E+02  0.00000000000E+00 0. -1.
         22    1    3    3    0    0 -0.29821799276E+02  0.45590884432E+02 -0.88925165697E+01  0.55199142261E+02  0.00000000000E+00 0. -1.
</event>
<event>
 7    1  0.6235964E-006  0.3145757E+02  0.7818608E-02  0.1585626E+00
          2   -1    0    0  502    0  0.00000000000E+00  0.00000000000E+00  0.20055653944E+04  0.20055653944E+04  0.00000000000E+00 0. -1.
          1   -1    0    0  501    0 -0.00000000000E+00 -0.00000000000E+00 -0.30234105154E+02  0.30234105154E+02  0.00000000000E+00 0. -1.
         25    2    1    2    0    0 -0.32586123509E+02 -0.37901701236E+02  0.79815707880E+03  0.80943104673E+03  0.12500201031E+03 0.  0.
          2    1    1    2  501    0  0.24498033318E+01  0.31248380892E+02 -0.14329982059E+02  0.34464637392E+02  0.00000000000E+00 0. -1.
          1    1    1    2  502    0  0.30136320177E+02  0.66533203446E+01  0.11915041925E+04  0.11919038154E+04  0.00000000000E+00 0. -1.
         22    1    3    3    0    0  0.12260471275E+02 -0.72777894967E+02  0.54520625105E+03  0.55017887758E+03  0.00000000000E+00 0. -1.
         22    1    3    3    0    0 -0.44846594784E+02  0.34876193731E+02  0.25295082775E+03  0.25925216916E+03  0.00000000000E+00 0. -1.
</event>
<event>
 7    1  0.6235964E-006  0.5860073E+02  0.7818608E-02  0.1487830E+00
          2   -1    0    0  502    0  0.00000000000E+00  0.00000000000E+00  0.21921320236E+04  0.21921320236E+04  0.00000000000E+00 0. -1.
          1   -1    0    0  501    0 -0.00000000000E+00 -0.00000000000E+00 -0.13456800189E+03  0.13456800189E+03  0.00000000000E+00 0. -1.
         25    2    1    2    0    0  0.48686760085E+02 -0.41125146927E+02  0.82835239221E+03  0.84015138093E+03  0.12499991553E+03 0.  0.
          2    1    1    2  501    0 -0.57585184480E+02  0.10991440288E+02 -0.12179860539E+03  0.13517309461E+03  0.00000000000E+00 0. -1.
          1    1    1    2  502    0  0.88984243958E+01  0.30133706640E+02  0.13510102348E+04  0.13513755499E+04  0.00000000000E+00 0. -1.
         22    1    3    3    0    0  0.44332154256E+02 -0.60604401251E+02  0.80856959608E+03  0.81204865929E+03  0.00000000000E+00 0.  1.
         22    1    3    3    0    0  0.43546058282E+01  0.19479254323E+02  0.19782796137E+02  0.28102721646E+02  0.00000000000E+00 0.  1.
</event>
<event>
 7    1  0.6235964E-006  0.2992554E+02  0.7818608E-02  0.1623674E+00
          2   -1    0    0  502    0  0.00000000000E+00  0.00000000000E+00  0.49206963408E+03  0.49206963408E+03  0.00000000000E+00 0. -1.
          1   -1    0    0  501    0 -0.00000000000E+00 -0.00000000000E+00 -0.37430060167E+03  0.37430060167E+03  0.00000000000E+00 0. -1.
         25    2    1    2    0    0 -0.50577369986E+02  0.12805277235E+02 -0.11759537537E+03  0.17937528319E+03  0.12499909772E+03 0.  0.
          2    1    1    2  501    0  0.29256932573E+02  0.17919593956E+01 -0.22449987619E+03  0.22640533040E+03  0.00000000000E+00 0. -1.
          1    1    1    2  502    0  0.21320437413E+02 -0.14597236630E+02  0.45986428397E+03  0.46058962216E+03  0.00000000000E+00 0. -1.
         22    1    3    3    0    0  0.23702912816E+02 -0.31804979238E+02 -0.94060779201E+01  0.40765905879E+02  0.00000000000E+00 0. -1.
         22    1    3    3    0    0 -0.74280282802E+02  0.44610256473E+02 -0.10818929745E+03  0.13860937731E+03  0.00000000000E+00 0. -1.
</event>
<event>
 7    1  0.6235964E-006  0.4864516E+02  0.7818608E-02  0.1455259E+00
          2   -1    0    0  502    0  0.00000000000E+00  0.00000000000E+00  0.24195303165E+04  0.24195303165E+04  0.00000000000E+00 0. -1.
          1   -1    0    0  501    0 -0.00000000000E+00 -0.00000000000E+00 -0.30583735796E+02  0.30583735796E+02  0.00000000000E+00 0. -1.
         25    2    1    2    0    0  0.56120023744E+02  0.45409663017E+02  0.55083453856E+03  0.56943617998E+03  0.12500951818E+03 0.  0.
          2    1    1    2  501    0 -0.47718638524E+02  0.22746948598E+01  0.62544530232E+01  0.48180503131E+02  0.00000000000E+00 0. -1.
          1    1    1    2  502    0 -0.84013852203E+01 -0.47684357877E+02  0.18318575891E+04  0.18324973692E+04  0.00000000000E+00 0. -1.
         22    1    3    3    0    0 -0.28583324089E+02  0.49147951596E+02  0.27705885817E+03  0.28283235043E+03  0.00000000000E+00 0.  1.
         22    1    3    3    0    0  0.84703347834E+02 -0.37382885787E+01  0.27377568039E+03  0.28660382955E+03  0.00000000000E+00 0.  1.
</event>
<event>
 7    1  0.6235964E-006  0.7824524E+02  0.7818608E-02  0.1459586E+00
          2   -1    0    0  502    0  0.00000000000E+00  0.00000000000E+00  0.74797883386E+02  0.74797883386E+02  0.00000000000E+00 0. -1.
          1   -1    0    0  501    0 -0.00000000000E+00 -0.00000000000E+00 -0.78274563728E+03  0.78274563728E+03  0.00000000000E+00 0. -1.
         25    2    1    2    0    0  0.37111347519E+02  0.36706112277E+02 -0.12264539278E+03  0.18273351744E+03  0.12500022093E+03 0.  0.
          2    1    1    2  501    0 -0.61574375331E+02 -0.51863344057E+02 -0.62255358448E+03  0.62773734611E+03  0.00000000000E+00 0. -1.
          1    1    1    2  502    0  0.24463027812E+02  0.15157231780E+02  0.37251223368E+02  0.47072657109E+02  0.00000000000E+00 0. -1.
         22    1    3    3    0    0  0.19753276842E+02  0.72707296566E+02 -0.28672022895E+02  0.80614067115E+02  0.00000000000E+00 0.  1.
         22    1    3    3    0    0  0.17358070676E+02 -0.36001184289E+02 -0.93973369882E+02  0.10211945033E+03  0.00000000000E+00 0.  1.
</event>
<event>
 7    1  0.6235964E-006  0.4089268E+02  0.7818608E-02  0.1536327E+00
          2   -1    0    0  502    0  0.00000000000E+00  0.00000000000E+00  0.25323349225E+02  0.25323349225E+02  0.00000000000E+00 0. -1.
          1   -1    0    0  501    0 -0.00000000000E+00 -0.00000000000E+00 -0.90724242701E+03  0.90724242701E+03  0.00000000000E+00 0. -1.
         25    2    1    2    0    0 -0.59293045099E+01 -0.25837040667E+02 -0.71643619895E+03  0.72774215155E+03  0.12500041062E+03 0.  0.
          2    1    1    2  501    0  0.31685528968E+02 -0.69526659646E+01 -0.15942271941E+03  0.16268963020E+03  0.00000000000E+00 0. -1.
          1    1    1    2  502    0 -0.25756224458E+02  0.32789706632E+02 -0.60601594281E+01  0.42133994490E+02  0.00000000000E+00 0. -1.
         22    1    3    3    0    0 -0.41309933354E+02 -0.48341199133E+02 -0.61060262874E+03  0.61390467692E+03  0.00000000000E+00 0.  1.
         22    1    3    3    0    0  0.35380628844E+02  0.22504158465E+02 -0.10583357021E+03  0.11383747463E+03  0.00000000000E+00 0.  1.
</event>
<event>
 7    1  0.6235964E-006  0.1496597E+03  0.7818608E-02  0.1349388E+00
          2   -1    0    0  502    0  0.00000000000E+00  0.00000000000E+00  0.51762196875E+03  0.51762196875E+03  0.00000000000E+00 0. -1.
          1   -1    0    0  501    0 -0.00000000000E+00 -0.00000000000E+00 -0.18475460026E+04  0.18475460026E+04  0.00000000000E+00 0. -1.
         25    2    1    2    0    0  0.17282255199E+03  0.16053282512E+02 -0.21169899868E+03  0.30094299583E+03  0.12499951337E+03 0.  0.
          2    1    1    2  501    0 -0.14338947053E+03 -0.36517890066E+02 -0.15870994980E+04  0.15939820931E+04  0.00000000000E+00 0. -1.
          1    1    1    2  502    0 -0.29433081453E+02  0.20464607555E+02  0.46887446290E+03  0.47024288235E+03  0.00000000000E+00 0. -1.
         22    1    3    3    0    0  0.16957197614E+03 -0.24145524688E+02 -0.18729049609E+03  0.25380187427E+03  0.00000000000E+00 0.  1.
         22    1    3    3    0    0  0.32505758451E+01  0.40198807200E+02 -0.24408502585E+02  0.47141121562E+02  0.00000000000E+00 0.  1.
</event>
<event>
 7    1  0.6235964E-006  0.1539690E+03  0.7818608E-02  0.1253632E+00
          2   -1    0    0  502    0  0.00000000000E+00  0.00000000000E+00  0.35696832447E+03  0.35696832447E+03  0.00000000000E+00 0. -1.
          1   -1    0    0  501    0 -0.00000000000E+00 -0.00000000000E+00 -0.13592986386E+04  0.13592986386E+04  0.00000000000E+00 0. -1.
         25    2    1    2    0    0 -0.20605201750E+03 -0.42724336273E+02 -0.28787654392E+02  0.24643856883E+03  0.12498174401E+03 0.  0.
          2    1    1    2  501    0  0.60529022735E+02  0.58473199302E+02 -0.11984954464E+04  0.12014467165E+04  0.00000000000E+00 0. -1.
          1    1    1    2  502    0  0.14552299476E+03 -0.15748863029E+02  0.22495278668E+03  0.26838167770E+03  0.00000000000E+00 0. -1.
         22    1    3    3    0    0 -0.15012138932E+03 -0.36747635681E+01  0.33732169592E+02  0.15390839706E+03  0.00000000000E+00 0. -1.
         22    1    3    3    0    0 -0.55930628175E+02 -0.39049572705E+02 -0.62519823984E+02  0.92530171768E+02  0.00000000000E+00 0. -1.
</event>
<event>
 7    1  0.6235964E-006  0.1058145E+03  0.7818608E-02  0.1432596E+00
          2   -1    0    0  502    0  0.00000000000E+00  0.00000000000E+00  0.42633066386E+03  0.42633066386E+03  0.00000000000E+00 0. -1.
          1   -1    0    0  501    0 -0.00000000000E+00 -0.00000000000E+00 -0.10927405110E+04  0.10927405110E+04  0.00000000000E+00 0. -1.
         25    2    1    2    0    0 -0.54550072212E+02  0.87011112447E+02  0.96358639914E+02  0.18830392937E+03  0.12500695286E+03 0.  0.
          2    1    1    2  501    0  0.76569236687E+02 -0.73202460220E+02 -0.10434859856E+04  0.10488491075E+04  0.00000000000E+00 0. -1.
          1    1    1    2  502    0 -0.22019164475E+02 -0.13808652227E+02  0.28071749859E+03  0.28191813793E+03  0.00000000000E+00 0. -1.
         22    1    3    3    0    0 -0.36454011679E+02  0.26111714501E+02 -0.24987250209E+02  0.51333023237E+02  0.00000000000E+00 0.  1.
         22    1    3    3    0    0 -0.18096060533E+02  0.60899397947E+02  0.12134589012E+03  0.13697090613E+03  0.00000000000E+00 0.  1.
</event>
<event>
 7    1  0.6235964E-006  0.8256037E+02  0.7818608E-02  0.1457740E+00
          2   -1    0    0  502    0  0.00000000000E+00  0.00000000000E+00  0.33130951713E+04  0.33130951713E+04  0.00000000000E+00 0. -1.
          1   -1    0    0  501    0 -0.00000000000E+00 -0.00000000000E+00 -0.37844612393E+03  0.37844612393E+03  0.00000000000E+00 0. -1.
         25    2    1    2    0    0  0.12494685560E+02 -0.83816814250E+02 -0.17224161130E+03  0.22907314643E+03  0.12500383289E+03 0.  0.
          2    1    1    2  501    0  0.25554665466E+02  0.10540025175E+02 -0.17619206635E+03  0.17834735014E+03  0.00000000000E+00 0. -1.
          1    1    1    2  502    0 -0.38049351026E+02  0.73276789075E+02  0.32830827250E+04  0.32841207987E+04  0.00000000000E+00 0. -1.
         22    1    3    3    0    0  0.84188750788E+01 -0.11555273466E+03 -0.11354145333E+03  0.16221890632E+03  0.00000000000E+00 0.  1.
         22    1    3    3    0    0  0.40758104807E+01  0.31735920410E+02 -0.58700157970E+02  0.66854240113E+02  0.00000000000E+00 0.  1.
</event>
<event>
 7    1  0.6235964E-006  0.8353753E+02  0.7818608E-02  0.1393408E+00
          2   -1    0    0  502    0  0.00000000000E+00  0.00000000000E+00  0.12014490511E+04  0.12014490511E+04  0.00000000000E+00 0. -1.
          1   -1    0    0  501    0 -0.00000000000E+00 -0.00000000000E+00 -0.54745198334E+03  0.54745198334E+03  0.00000000000E+00 0. -1.
         25    2    1    2    0    0  0.62305569269E+02  0.29320367431E+02  0.88091837912E+03  0.89240429921E+03  0.12500629854E+03 0.  0.
          2    1    1    2  501    0 -0.83001311672E+02  0.10233185733E+02 -0.53687265217E+03  0.54334720067E+03  0.00000000000E+00 0. -1.
          1    1    1    2  502    0  0.20695742402E+02 -0.39553553164E+02  0.30995134080E+03  0.31314953454E+03  0.00000000000E+00 0. -1.
         22    1    3    3    0    0 -0.62810063826E+00  0.28140969682E+02  0.38789695396E+02  0.47926497410E+02  0.00000000000E+00 0. -1.
         22    1    3    3    0    0  0.62933669908E+02  0.11793977483E+01  0.84212868372E+03  0.84447780180E+03  0.00000000000E+00 0. -1.
</event>
<event>
 7    1  0.6235964E-006  0.1005668E+03  0.7818608E-02  0.1421882E+00
          2   -1    0    0  502    0  0.00000000000E+00  0.00000000000E+00  0.17215819035E+04  0.17215819035E+04  0.00000000000E+00 0. -1.
          1   -1    0    0  501    0 -0.00000000000E+00 -0.00000000000E+00 -0.10595363476E+03  0.10595363476E+03  0.00000000000E+00 0. -1.
         25    2    1    2    0    0  0.82074820180E+02 -0.40243905106E+00  0.58884075086E+02  0.16071014647E+03  0.12499591519E+03 0.  0.
          2    1    1    2  501    0 -0.10934884806E+03  0.12083906879E+02  0.21628028574E+00  0.11001471790E+03  0.00000000000E+00 0. -1.
          1    1    1    2  502    0  0.27274027875E+02 -0.11681467828E+02  0.15565279133E+04  0.15568106739E+04  0.00000000000E+00 0. -1.
         22    1    3    3    0    0  0.63741249238E+02  0.20254368114E+02 -0.25762088936E+02  0.71671971569E+02  0.00000000000E+00 0.  1.
         22    1    3    3    0    0  0.18333570941E+02 -0.20656807165E+02  0.84646164023E+02  0.89038174900E+02  0.00000000000E+00 0.  1.
</event>
<event>
 7    1  0.6235964E-006  0.6845760E+02  0.7818608E-02  0.1377167E+00
          2   -1    0    0  502    0  0.00000000000E+00  0.00000000000E+00  0.15841225884E+04  0.15841225884E+04  0.00000000000E+00 0. -1.
          1   -1    0    0  501    0 -0.00000000000E+00 -0.00000000000E+00 -0.14855075940E+04  0.14855075940E+04  0.00000000000E+00 0. -1.
         25    2    1    2    0    0 -0.25982620898E+02 -0.12768760133E+03 -0.12145577151E+03  0.21761309831E+03  0.12499894400E+03 0.  0.
          2    1    1    2  501    0  0.12743647452E+02  0.60803806473E+02 -0.13144825675E+04  0.13159498181E+04  0.00000000000E+00 0. -1.
          1    1    1    2  502    0  0.13238973445E+02  0.66883794858E+02  0.15345533335E+04  0.15360672660E+04  0.00000000000E+00 0. -1.
         22    1    3    3    0    0 -0.66440027128E+02 -0.83935868233E+02 -0.35029962520E+02  0.11263483233E+03  0.00000000000E+00 0. -1.
         22    1    3    3    0    0  0.40457406230E+02 -0.43751733097E+02 -0.86425808990E+02  0.10497826598E+03  0.00000000000E+00 0. -1.
</event>
<event>
 7    1  0.6235964E-006  0.9060035E+02  0.7818608E-02  0.1377133E+00
          2   -1    0    0  502    0  0.00000000000E+00  0.00000000000E+00  0.15234360629E+03  0.15234360629E+03  0.00000000000E+00 0. -1.
          1   -1    0    0  501    0 -0.00000000000E+00 -0.00000000000E+00 -0.52349312587E+03  0.52349312587E+03  0.00000000000E+00 0. -1.
         25    2    1    2    0    0 -0.56983620443E+01 -0.10487173382E+03 -0.30511851597E+02  0.16609097554E+03  0.12499874873E+03 0.  0.
          2    1    1    2  501    0 -0.35796921078E+02  0.82897470434E+02 -0.41340109784E+03  0.42314758402E+03  0.00000000000E+00 0. -1.
          1    1    1    2  502    0  0.41495283123E+02  0.21974263387E+02  0.72763429861E+02  0.86598172602E+02  0.00000000000E+00 0. -1.
         22    1    3    3    0    0 -0.41193664567E+02 -0.11627303942E+03 -0.10558106793E+02  0.12380553831E+03  0.00000000000E+00 0. -1.
         22    1    3    3    0    0  0.35495302523E+02  0.11401305598E+02 -0.19953744803E+02  0.42285437235E+02  0.00000000000E+00 0. -1.
</event>
<event>
 7    1  0.6235964E-006  0.2651527E+03  0.7818608E-02  0.1209353E+00
          2   -1    0    0  502    0  0.00000000000E+00  0.00000000000E+00  0.11418243661E+04  0.11418243661E+04  0.00000000000E+00 0. -1.
          1   -1    0    0  501    0 -0.00000000000E+00 -0.00000000000E+00 -0.29475024202E+03  0.29475024202E+03  0.00000000000E+00 0. -1.
         25    2    1    2    0    0  0.16349840703E+02 -0.20526157876E+03  0.35271491658E+03  0.42712274581E+03  0.12500557830E+03 0.  0.
          2    1    1    2  501    0 -0.56744398644E+02  0.27095310722E+03 -0.18031987032E+03  0.33037973412E+03  0.00000000000E+00 0. -1.
          1    1    1    2  502    0  0.40394557941E+02 -0.65691528457E+02  0.67467907781E+03  0.67907212817E+03  0.00000000000E+00 0. -1.
         22    1    3    3    0    0 -0.53883605501E+02 -0.82981193369E+02  0.12721412576E+03  0.16116065024E+03  0.00000000000E+00 0. -1.
         22    1    3    3    0    0  0.70233446204E+02 -0.12228038539E+03  0.22550079082E+03  0.26596209557E+03  0.00000000000E+00 0. -1.
</event>
<event>
 7    1  0.6235964E-006  0.1139601E+03  0.7818608E-02  0.1341597E+00
          2   -1    0    0  502    0  0.00000000000E+00  0.00000000000E+00  0.30029423428E+03  0.30029423428E+03  0.00000000000E+00 0. -1.
          1   -1    0    0  501    0 -0.00000000000E+00 -0.00000000000E+00 -0.17583037024E+04  0.17583037024E+04  0.00000000000E+00 0. -1.
         25    2    1    2    0    0  0.10319510636E+03  0.10321138642E+03 -0.22769554143E+03  0.29794736105E+03  0.12500220041E+03 0.  0.
          2    1    1    2  501    0 -0.36564976576E+01 -0.50204386999E+02 -0.14830457062E+04  0.14838997328E+04  0.00000000000E+00 0. -1.
          1    1    1    2  502    0 -0.99538608705E+02 -0.53006999420E+02  0.25273177951E+03  0.27675084279E+03  0.00000000000E+00 0. -1.
         22    1    3    3    0    0  0.88648303507E+02  0.11754680405E+03 -0.23409629692E+03  0.27654447940E+03  0.00000000000E+00 0.  1.
         22    1    3    3    0    0  0.14546802856E+02 -0.14335417636E+02  0.64007554871E+01  0.21402881650E+02  0.00000000000E+00 0.  1.
</event>
<event>
 7    1  0.6235964E-006  0.1451775E+03  0.7818608E-02  0.1270363E+00
          2   -1    0    0  502    0  0.00000000000E+00  0.00000000000E+00  0.11262181384E+04  0.11262181384E+04  0.00000000000E+00 0. -1.
          1   -1    0    0  501    0 -0.00000000000E+00 -0.00000000000E+00 -0.90701898843E+03  0.90701898843E+03  0.00000000000E+00 0. -1.
         25    2    1    2    0    0 -0.15059077838E+02  0.13822021161E+03 -0.18371558299E+03  0.26212250298E+03  0.12500075366E+03 0.  0.
          2    1    1    2  501    0  0.88758417544E+02 -0.12065886880E+03 -0.67455446983E+03  0.69098505922E+03  0.00000000000E+00 0. -1.
          1    1    1    2  502    0 -0.73699339706E+02 -0.17561342805E+02  0.10774692028E+04  0.10801295646E+04  0.00000000000E+00 0. -1.
         22    1    3    3    0    0 -0.50340746243E+02  0.53600717089E+02 -0.14504569706E+03  0.16262066855E+03  0.00000000000E+00 0.  1.
         22    1    3    3    0    0  0.35281668406E+02  0.84619494517E+02 -0.38669885931E+02  0.99501834434E+02  0.00000000000E+00 0.  1.
</event>
<event>
 7    1  0.6235964E-006  0.1095783E+03  0.7818608E-02  0.1341499E+00
          2   -1    0    0  502    0  0.00000000000E+00  0.00000000000E+00  0.31186280419E+03  0.31186280419E+03  0.00000000000E+00 0. -1.
          1   -1    0    0  501    0 -0.00000000000E+00 -0.00000000000E+00 -0.37823493501E+04  0.37823493501E+04  0.00000000000E+00 0. -1.
         25    2    1    2    0    0  0.44440578816E+02  0.77501393917E+02 -0.55609501831E+03  0.57692948708E+03  0.12499813025E+03 0.  0.
          2    1    1    2  501    0 -0.41042439419E+02  0.32568090091E+02 -0.32055586329E+04  0.32059867921E+04  0.00000000000E+00 0. -1.
          1    1    1    2  502    0 -0.33981393972E+01 -0.11006948401E+03  0.29116710528E+03  0.31129587511E+03  0.00000000000E+00 0. -1.
         22    1    3    3    0    0  0.66528368333E+02  0.69078731338E+02 -0.21989429744E+03  0.23989872231E+03  0.00000000000E+00 0. -1.
         22    1    3    3    0    0 -0.22087789516E+02  0.84226625793E+01 -0.33620072087E+03  0.33703076477E+03  0.00000000000E+00 0. -1.
</event>
<event>
 7    1  0.6235964E-006  0.1052918E+03  0.7818608E-02  0.1431015E+00
          2   -1    0    0  502    0  0.00000000000E+00  0.00000000000E+00  0.20665258776E+04  0.20665258776E+04  0.00000000000E+00 0. -1.
          1   -1    0    0  501    0 -0.00000000000E+00 -0.00000000000E+00 -0.63720576251E+03  0.63720576251E+03  0.00000000000E+00 0. -1.
         25    2    1    2    0    0  0.74564870913E+02  0.27409781892E+02  0.79351045193E+03  0.80721573742E+03  0.12500877289E+03 0.  0.
          2    1    1    2  501    0 -0.96910544585E+02 -0.41531393305E+02 -0.62580486073E+03  0.63462448267E+03  0.00000000000E+00 0. -1.
          1    1    1    2  502    0  0.22345673672E+02  0.14121611413E+02  0.12616145238E+04  0.12618914200E+04  0.00000000000E+00 0. -1.
         22    1    3    3    0    0  0.84266945380E+02 -0.16620166025E+02  0.67458118294E+03  0.68002714680E+03  0.00000000000E+00 0. -1.
         22    1    3    3    0    0 -0.97020744669E+01  0.44029947917E+02  0.11892926899E+03  0.12718859063E+03  0.00000000000E+00 0. -1.
</event>
<event>
 7    1  0.6235964E-006  0.3567233E+03  0.7818608E-02  0.1144907E+00
          2   -1    0    0  502    0  0.00000000000E+00  0.00000000000E+00  0.23206892166E+04  0.23206892166E+04  0.00000000000E+00 0. -1.
          1   -1    0    0  501    0 -0.00000000000E+00 -0.00000000000E+00 -0.20304442755E+04  0.20304442755E+04  0.00000000000E+00 0. -1.
         25    2    1    2    0    0  0.28668368246E+03  0.95447430825E+02  0.30144070951E+03  0.44473521566E+03  0.12500065944E+03 0.  0.
          2    1    1    2  501    0 -0.35977827659E+03 -0.18328067630E+01 -0.19404345192E+04  0.19735070030E+04  0.00000000000E+00 0. -1.
          1    1    1    2  502    0  0.73094594130E+02 -0.93614624062E+02  0.19292387508E+04  0.19328912735E+04  0.00000000000E+00 0. -1.
         22    1    3    3    0    0  0.16281090694E+03  0.11664883649E+02  0.91954636682E+02  0.18734758108E+03  0.00000000000E+00 0.  1.
         22    1    3    3    0    0  0.12387277552E+03  0.83782547176E+02  0.20948607283E+03  0.25738763458E+03  0.00000000000E+00 0.  1.
</event>
<event>
 7    1  0.6235964E-006  0.3503737E+02  0.7818608E-02  0.1574072E+00
          2   -1    0    0  502    0  0.00000000000E+00  0.00000000000E+00  0.29221119186E+03  0.29221119186E+03  0.00000000000E+00 0. -1.
          1   -1    0    0  501    0 -0.00000000000E+00 -0.00000000000E+00 -0.75787099080E+03  0.75787099080E+03  0.00000000000E+00 0. -1.
         25    2    1    2    0    0 -0.49236657848E+02 -0.41259364512E+02 -0.13770254756E+03  0.19675691205E+03  0.12499882878E+03 0.  0.
          2    1    1    2  501    0  0.27325117508E+02  0.21123959757E+02 -0.58929121201E+03  0.59030247863E+03  0.00000000000E+00 0. -1.
          1    1    1    2  502    0  0.21911540340E+02  0.20135404755E+02  0.26133396063E+03  0.26302279198E+03  0.00000000000E+00 0. -1.
         22    1    3    3    0    0 -0.11986317491E+02 -0.83057969037E+02 -0.73336479798E+02  0.11144746429E+03  0.00000000000E+00 0.  1.
         22    1    3    3    0    0 -0.37250340358E+02  0.41798604525E+02 -0.64366067765E+02  0.85309447756E+02  0.00000000000E+00 0.  1.
</event>
<event>
 7    1  0.6235964E-006  0.1363913E+03  0.7818608E-02  0.1303565E+00
          2   -1    0    0  502    0  0.00000000000E+00  0.00000000000E+00  0.45913617295E+03  0.45913617295E+03  0.00000000000E+00 0. -1.
          1   -1    0    0  501    0 -0.00000000000E+00 -0.00000000000E+00 -0.44099405500E+03  0.44099405500E+03  0.00000000000E+00 0. -1.
         25    2    1    2    0    0  0.75280525011E+02 -0.90223443199E+02  0.20538119539E+02  0.17278232159E+03  0.12499795658E+03 0.  0.
          2    1    1    2  501    0 -0.12647981050E+03  0.60902521834E+02 -0.34878237110E+03  0.37597260808E+03  0.00000000000E+00 0. -1.
          1    1    1    2  502    0  0.51199285492E+02  0.29320921365E+02  0.34638636951E+03  0.35137529829E+03  0.00000000000E+00 0. -1.
         22    1    3    3    0    0  0.56752512127E+02 -0.74344868258E+02  0.70536748754E+02  0.11714708701E+03  0.00000000000E+00 0.  1.
         22    1    3    3    0    0  0.18528012884E+02 -0.15878574941E+02 -0.49998629215E+02  0.55635234582E+02  0.00000000000E+00 0.  1.
</event>
<event>
 7    1  0.6235964E-006  0.7564110E+02  0.7818608E-02  0.1416153E+00
          2   -1    0    0  502    0  0.00000000000E+00  0.00000000000E+00  0.17035142158E+04  0.17035142158E+04  0.00000000000E+00 0. -1.
          1   -1    0    0  501    0 -0.00000000000E+00 -0.00000000000E+00 -0.19747358368E+03  0.19747358368E+03  0.00000000000E+00 0. -1.
         25    2    1    2    0    0  0.48412655237E+02 -0.62335422671E+02  0.31154008698E+03  0.34484172551E+03  0.12501639791E+03 0.  0.
          2    1    1    2  501    0 -0.92629608149E+01  0.75257643483E+02 -0.17254921662E+03  0.18847479275E+03  0.00000000000E+00 0. -1.
          1    1    1    2  502    0 -0.39149694422E+02 -0.12922220811E+02  0.13670497617E+04  0.13676712812E+04  0.00000000000E+00 0. -1.
         22    1    3    3    0    0  0.54133367431E+02  0.23502899889E+02  0.94998984702E+02  0.11183744841E+03  0.00000000000E+00 0.  1.
         22    1    3    3    0    0 -0.57207121941E+01 -0.85838322560E+02  0.21654110228E+03  0.23300427710E+03  0.00000000000E+00 0.  1.
</event>
<event>
 7    1  0.6235964E-006  0.1216608E+03  0.7818608E-02  0.1327817E+00
          2   -1    0    0  502    0  0.00000000000E+00  0.00000000000E+00  0.13403324866E+04  0.13403324866E+04  0.00000000000E+00 0. -1.
          1   -1    0    0  501    0 -0.00000000000E+00 -0.00000000000E+00 -0.11801411120E+04  0.11801411120E+04  0.00000000000E+00 0. -1.
         25    2    1    2    0    0  0.16354868394E+03  0.49517542802E+02  0.11247520662E+03  0.23974164953E+03  0.12500090940E+03 0.  0.
          2    1    1    2  501    0 -0.11037010301E+03 -0.49031971531E+02 -0.11126311667E+04  0.11191665680E+04  0.00000000000E+00 0. -1.
          1    1    1    2  502    0 -0.53178580932E+02 -0.48557127125E+00  0.11603473347E+04  0.11615653810E+04  0.00000000000E+00 0. -1.
         22    1    3    3    0    0  0.43265195816E+00  0.21569116554E+02  0.63634569128E+02  0.67192055815E+02  0.00000000000E+00 0.  1.
         22    1    3    3    0    0  0.16311603198E+03  0.27948426248E+02  0.48840637491E+02  0.17254959371E+03  0.00000000000E+00 0.  1.
</event>
<event>
 7    1  0.6235964E-006  0.1324409E+03  0.7818608E-02  0.1279215E+00
          2   -1    0    0  502    0  0.00000000000E+00  0.00000000000E+00  0.20358566219E+04  0.20358566219E+04  0.00000000000E+00 0. -1.
          1   -1    0    0  501    0 -0.00000000000E+00 -0.00000000000E+00 -0.56387275103E+02  0.56387275103E+02  0.00000000000E+00 0. -1.
         25    2    1    2    0    0  0.77912983460E+02 -0.24269325417E+02  0.60521207588E+03  0.62335020410E+03  0.12499754804E+03 0.  0.
          2    1    1    2  501    0  0.75112752148E+02 -0.13327699389E+02 -0.88873474490E+01  0.76801940411E+02  0.00000000000E+00 0. -1.
          1    1    1    2  502    0 -0.15302573561E+03  0.37597024806E+02  0.13831446184E+04  0.13920917525E+04  0.00000000000E+00 0. -1.
         22    1    3    3    0    0  0.53701127344E+01  0.16931542191E+02  0.65947453401E+01  0.18947450959E+02  0.00000000000E+00 0. -1.
         22    1    3    3    0    0  0.72542870726E+02 -0.41200867608E+02  0.59861733054E+03  0.60440275314E+03  0.00000000000E+00 0. -1.
</event>
<event>
 7    1  0.6235964E-006  0.6968547E+02  0.7818608E-02  0.1382751E+00
          2   -1    0    0  502    0  0.00000000000E+00  0.00000000000E+00  0.56776583199E+03  0.56776583199E+03  0.00000000000E+00 0. -1.
          1   -1    0    0  501    0 -0.00000000000E+00 -0.00000000000E+00 -0.17811534786E+03  0.17811534786E+03  0.00000000000E+00 0. -1.
         25    2    1    2    0    0  0.29227386227E+02 -0.86975398763E+02  0.18841090656E+03  0.24401645537E+03  0.12500560260E+03 0.  0.
          2    1    1    2  501    0 -0.53875694900E+02  0.22311749133E+02 -0.14106108869E+03  0.15263890524E+03  0.00000000000E+00 0. -1.
          1    1    1    2  502    0  0.24648308673E+02  0.64663649630E+02  0.34230066626E+03  0.34922581924E+03  0.00000000000E+00 0. -1.
         22    1    3    3    0    0  0.31768380155E+02 -0.48133590387E+02  0.19604337844E+03  0.20435038227E+03  0.00000000000E+00 0. -1.
         22    1    3    3    0    0 -0.25409939280E+01 -0.38841808376E+02 -0.76324718796E+01  0.39666073099E+02  0.00000000000E+00 0. -1.
</event>
<event>
 7    1  0.6235964E-006  0.1344026E+03  0.7818608E-02  0.1343089E+00
          2   -1    0    0  502    0  0.00000000000E+00  0.00000000000E+00  0.11295790306E+04  0.11295790306E+04  0.00000000000E+00 0. -1.
          1   -1    0    0  501    0 -0.00000000000E+00 -0.00000000000E+00 -0.23481944428E+03  0.23481944428E+03  0.00000000000E+00 0. -1.
         25    2    1    2    0    0 -0.78530286947E+02 -0.14995949131E+03  0.42856989032E+02  0.21474788876E+03  0.12500031686E+03 0.  0.
          2    1    1    2  501    0  0.33924315175E+02  0.24989980243E+02 -0.14138973789E+03  0.14753445785E+03  0.00000000000E+00 0. -1.
          1    1    1    2  502    0  0.44605971773E+02  0.12496951107E+03  0.99329233516E+03  0.10021161283E+04  0.00000000000E+00 0. -1.
         22    1    3    3    0    0  0.25360259591E+02 -0.14383138948E+02  0.32454354550E+02  0.43626856199E+02  0.00000000000E+00 0.  1.
         22    1    3    3    0    0 -0.10389054654E+03 -0.13557635237E+03  0.10402634482E+02  0.17112103256E+03  0.00000000000E+00 0.  1.
</event>
<event>
 7    1  0.6235964E-006  0.1079920E+03  0.7818608E-02  0.1347840E+00
          2   -1    0    0  502    0  0.00000000000E+00  0.00000000000E+00  0.99623492356E+03  0.99623492356E+03  0.00000000000E+00 0. -1.
          1   -1    0    0  501    0 -0.00000000000E+00 -0.00000000000E+00 -0.20985425408E+03  0.20985425408E+03  0.00000000000E+00 0. -1.
         25    2    1    2    0    0 -0.12472668314E+03  0.93138745829E+02  0.37454960871E+03  0.42443243953E+03  0.12499565945E+03 0.  0.
          2    1    1    2  501    0  0.89415092223E+02 -0.57258159715E+02 -0.16849103928E+03  0.19915518042E+03  0.00000000000E+00 0. -1.
          1    1    1    2  502    0  0.35311590915E+02 -0.35880586114E+02  0.58032210004E+03  0.58250155769E+03  0.00000000000E+00 0. -1.
         22    1    3    3    0    0 -0.94627298452E+02  0.78566045557E+02  0.13526037887E+03  0.18281772129E+03  0.00000000000E+00 0. -1.
         22    1    3    3    0    0 -0.30099384686E+02  0.14572700272E+02  0.23928922984E+03  0.24161471824E+03  0.00000000000E+00 0. -1.
</event>
<event>
 7    1  0.6235964E-006  0.5251497E+02  0.7818608E-02  0.1498876E+00
          2   -1    0    0  502    0  0.00000000000E+00  0.00000000000E+00  0.44343848651E+03  0.44343848651E+03  0.00000000000E+00 0. -1.
          1   -1    0    0  501    0 -0.00000000000E+00 -0.00000000000E+00 -0.29614084989E+02  0.29614084989E+02  0.00000000000E+00 0. -1.
         25    2    1    2    0    0  0.42816518317E+02  0.19463004078E+02  0.20172044920E+03  0.24192655994E+03  0.12500103204E+03 0.  0.
          2    1    1    2  501    0 -0.58676456758E+02  0.88768686917E+01  0.13651453701E+03  0.14885544729E+03  0.00000000000E+00 0. -1.
          1    1    1    2  502    0  0.15859938441E+02 -0.28339872770E+02  0.75589415325E+02  0.82270564269E+02  0.00000000000E+00 0. -1.
         22    1    3    3    0    0  0.73943512791E+02 -0.21642555140E+02  0.15141856899E+03  0.16989298488E+03  0.00000000000E+00 0. -1.
         22    1    3    3    0    0 -0.31126994474E+02  0.41105559218E+02  0.50301880207E+02  0.72033575060E+02  0.00000000000E+00 0. -1.
</event>
<event>
 7    1  0.6235964E-006  0.7231485E+02  0.7818608E-02  0.1400564E+00
          2   -1    0    0  502    0  0.00000000000E+00  0.00000000000E+00  0.68592684955E+03  0.68592684955E+03  0.00000000000E+00 0. -1.
          1   -1    0    0  501    0 -0.00000000000E+00 -0.00000000000E+00 -0.27255769840E+04  0.27255769840E+04  0.00000000000E+00 0. -1.
         25    2    1    2    0    0 -0.50856864897E+02 -0.66609546277E+01  0.21288847687E+03  0.25214505339E+03  0.12499934136E+03 0.  0.
          2    1    1    2  501    0 -0.15934696493E+02  0.46035673876E+02 -0.27024129697E+04  0.27028520227E+04  0.00000000000E+00 0. -1.
          1    1    1    2  502    0  0.66791561390E+02 -0.39374719248E+02  0.44987435843E+03  0.45650675741E+03  0.00000000000E+00 0. -1.
         22    1    3    3    0    0 -0.29816252724E+02 -0.10275501626E+02  0.22526917584E+03  0.22746603360E+03  0.00000000000E+00 0.  1.
         22    1    3    3    0    0 -0.21040612173E+02  0.36145469983E+01 -0.12380698970E+02  0.24679019786E+02  0.00000000000E+00 0.  1.
</event>
<event>
 7    1  0.6235964E-006  0.4720863E+02  0.7818608E-02  0.1567115E+00
          2   -1    0    0  502    0  0.00000000000E+00  0.00000000000E+00  0.10306074532E+04  0.10306074532E+04  0.00000000000E+00 0. -1.
          1   -1    0    0  501    0 -0.00000000000E+00 -0.00000000000E+00 -0.63979045267E+02  0.63979045267E+02  0.00000000000E+00 0. -1.
         25    2    1    2    0    0  0.58936334693E+02 -0.28941054747E+02  0.19558146202E+03  0.24122188668E+03  0.12499925651E+03 0.  0.
          2    1    1    2  501    0 -0.13328261438E+02  0.18827383245E+02 -0.37198441964E+02  0.43770275272E+02  0.00000000000E+00 0. -1.
          1    1    1    2  502    0 -0.45608073255E+02  0.10113671502E+02  0.80824538787E+03  0.80959433651E+03  0.00000000000E+00 0. -1.
         22    1    3    3    0    0 -0.11344329462E+02  0.26339740633E+02  0.29265304136E+01  0.28827770081E+02  0.00000000000E+00 0. -1.
         22    1    3    3    0    0  0.70280664156E+02 -0.55280795380E+02  0.19265493161E+03  0.21239411659E+03  0.00000000000E+00 0. -1.
</event>
<event>
 7    1  0.6235964E-006  0.9366907E+02  0.7818608E-02  0.1398018E+00
          2   -1    0    0  502    0  0.00000000000E+00  0.00000000000E+00  0.13711589397E+04  0.13711589397E+04  0.00000000000E+00 0. -1.
          1   -1    0    0  501    0 -0.00000000000E+00 -0.00000000000E+00 -0.47706898782E+03  0.47706898782E+03  0.00000000000E+00 0. -1.
         25    2    1    2    0    0 -0.80409257489E+02 -0.90794404498E+02 -0.17336941765E+03  0.24574953371E+03  0.12500642289E+03 0.  0.
          2    1    1    2  501    0  0.44924994069E+02  0.76179202427E+02 -0.25991502928E+03  0.27454935516E+03  0.00000000000E+00 0. -1.
          1    1    1    2  502    0  0.35484263420E+02  0.14615202071E+02  0.13273743988E+04  0.13279290386E+04  0.00000000000E+00 0. -1.
         22    1    3    3    0    0  0.15386476035E+02 -0.31836928565E+02 -0.11234373392E+03  0.11777711244E+03  0.00000000000E+00 0.  1.
         22    1    3    3    0    0 -0.95795733524E+02 -0.58957475933E+02 -0.61025683737E+02  0.12797242127E+03  0.00000000000E+00 0.  1.
</event>
<event>
 7    1  0.6235964E-006  0.5453304E+02  0.7818608E-02  0.1439950E+00
          2   -1    0    0  502    0  0.00000000000E+00  0.00000000000E+00  0.15105763010E+03  0.15105763010E+03  0.00000000000E+00 0. -1.
          1   -1    0    0  501    0 -0.00000000000E+00 -0.00000000000E+00 -0.94186482361E+03  0.94186482361E+03  0.00000000000E+00 0. -1.
         25    2    1    2    0    0  0.85080629876E+02 -0.44576468326E+02 -0.16413167336E+02  0.15849403191E+03  0.12500076391E+03 0.  0.
          2    1    1    2  501    0 -0.46253715718E+02  0.11743551686E+02 -0.84559193158E+03  0.84693744278E+03  0.00000000000E+00 0. -1.
          1    1    1    2  502    0 -0.38826914158E+02  0.32832916640E+02  0.71197905404E+02  0.87490979033E+02  0.00000000000E+00 0. -1.
         22    1    3    3    0    0  0.11311797302E+03 -0.16838592811E+02  0.32793728634E+01  0.11441139941E+03  0.00000000000E+00 0. -1.
         22    1    3    3    0    0 -0.28037343142E+02 -0.27737875515E+02 -0.19692540200E+02  0.44082632499E+02  0.00000000000E+00 0. -1.
</event>
<event>
 7    1  0.6235964E-006  0.5282000E+02  0.7818608E-02  0.1468453E+00
          2   -1    0    0  502    0  0.00000000000E+00  0.00000000000E+00  0.30051865168E+04  0.30051865168E+04  0.00000000000E+00 0. -1.
          1   -1    0    0  501    0 -0.00000000000E+00 -0.00000000000E+00 -0.14195579225E+03  0.14195579225E+03  0.00000000000E+00 0. -1.
         25    2    1    2    0    0 -0.75531524698E+02  0.21407927169E+02  0.59656699808E+03  0.61455743353E+03  0.12500138136E+03 0.  0.
          2    1    1    2  501    0  0.51592089399E+02  0.10620032650E+02 -0.12757024998E+03  0.13801701874E+03  0.00000000000E+00 0. -1.
          1    1    1    2  502    0  0.23939435299E+02 -0.32027959820E+02  0.23942339764E+04  0.23945678568E+04  0.00000000000E+00 0. -1.
         22    1    3    3    0    0 -0.77804716722E+02  0.76726913934E+01  0.59548279316E+03  0.60059320766E+03  0.00000000000E+00 0. -1.
         22    1    3    3    0    0  0.22731920241E+01  0.13735235776E+02  0.10842049170E+01  0.13964225868E+02  0.00000000000E+00 0. -1.
</event>
<event>
 7    1  0.6235964E-006  0.8405558E+02  0.7818608E-02  0.1322907E+00
          2   -1    0    0  502    0  0.00000000000E+00  0.00000000000E+00  0.14300161684E+04  0.14300161684E+04  0.00000000000E+00 0. -1.
          1   -1    0    0  501    0 -0.00000000000E+00 -0.00000000000E+00 -0.28460911416E+03  0.28460911416E+03  0.00000000000E+00 0. -1.
         25    2    1    2    0    0  0.15755537392E+03 -0.42236786010E+02  0.90233553645E+01  0.20570258957E+03  0.12499796985E+03 0.  0.
          2    1    1    2  501    0 -0.78759208332E+02  0.16140397563E+02 -0.17622210763E+03  0.19369500910E+03  0.00000000000E+00 0. -1.
          1    1    1    2  502    0 -0.78796165592E+02  0.26096388447E+02  0.13126058065E+04  0.13152276839E+04  0.00000000000E+00 0. -1.
         22    1    3    3    0    0  0.65746028979E+02  0.44191719695E+02 -0.89169956709E+00  0.79222746382E+02  0.00000000000E+00 0.  1.
         22    1    3    3    0    0  0.91809344944E+02 -0.86428505705E+02  0.99150549316E+01  0.12647984318E+03  0.00000000000E+00 0.  1.
</event>
<event>
 7    1  0.6235964E-006  0.1245079E+03  0.7818608E-02  0.1423128E+00
          2   -1    0    0  502    0  0.00000000000E+00  0.00000000000E+00  0.13728363882E+04  0.13728363882E+04  0.00000000000E+00 0. -1.
          1   -1    0    0  501    0 -0.00000000000E+00 -0.00000000000E+00 -0.63676992222E+03  0.63676992222E+03  0.00000000000E+00 0. -1.
         25    2    1    2    0    0  0.76159582688E+01 -0.14307917933E+03 -0.16495897946E+03  0.25172609096E+03  0.12499962235E+03 0.  0.
          2    1    1    2  501    0  0.12134359765E+02  0.20401547072E+02 -0.42519219404E+03  0.42585427987E+03  0.00000000000E+00 0. -1.
          1    1    1    2  502    0 -0.19750318034E+02  0.12267763226E+03  0.13262176395E+04  0.13320259396E+04  0.00000000000E+00 0. -1.
         22    1    3    3    0    0  0.47369286429E+02 -0.13815916139E+03 -0.14888979971E+03  0.20856647773E+03  0.00000000000E+00 0. -1.
         22    1    3    3    0    0 -0.39753328161E+02 -0.49200179371E+01 -0.16069179745E+02  0.43159613228E+02  0.00000000000E+00 0. -1.
</event>
<event>
 7    1  0.6283666E-006  0.8618809E+02  0.7818608E-02  0.1345131E+00
          2   -1    0    0  502    0  0.00000000000E+00  0.00000000000E+00  0.10253288811E+04  0.10253288811E+04  0.00000000000E+00 0. -1.
          1   -1    0    0  501    0 -0.00000000000E+00 -0.00000000000E+00 -0.77975173559E+03  0.77975173559E+03  0.00000000000E+00 0. -1.
         25    2    1    2    0    0 -0.77594399371E+02 -0.25211585100E+02 -0.23815553423E+03  0.28106915542E+03  0.12500118722E+03 0.  0.
          2    1    1    2  501    0  0.81744569373E+02 -0.39215473133E+02 -0.51513847396E+03  0.52305609193E+03  0.00000000000E+00 0. -1.
          1    1    1    2  502    0 -0.41501700020E+01  0.64427058233E+02  0.99887115366E+03  0.10009553693E+04  0.00000000000E+00 0. -1.
         22    1    3    3    0    0 -0.38648953754E+02 -0.23382836096E+02 -0.23782755506E+03  0.24207941795E+03  0.00000000000E+00 0.  1.
         22    1    3    3    0    0 -0.38945445617E+02 -0.18287490047E+01 -0.32797916980E+00  0.38989737465E+02  0.00000000000E+00 0.  1.
</event>
<event>
 7    1  0.6235964E-006  0.7958173E+02  0.7818608E-02  0.1357208E+00
          2   -1    0    0  502    0  0.00000000000E+00  0.00000000000E+00  0.16507672170E+04  0.16507672170E+04  0.00000000000E+00 0. -1.
          1   -1    0    0  501    0 -0.00000000000E+00 -0.00000000000E+00 -0.19415201538E+03  0.19415201538E+03  0.00000000000E+00 0. -1.
         25    2    1    2    0    0 -0.84496085390E+02  0.71079593286E+02  0.46254256798E+03  0.49169371446E+03  0.12500073846E+03 0.  0.
          2    1    1    2  501    0  0.66192597519E+01 -0.62737634792E+02 -0.17268212716E+03  0.18384488695E+03  0.00000000000E+00 0. -1.
          1    1    1    2  502    0  0.77876825638E+02 -0.83419584940E+01  0.11667547608E+04  0.11693806310E+04  0.00000000000E+00 0. -1.
         22    1    3    3    0    0 -0.27629394331E+02  0.95008048955E+02  0.34546502485E+03  0.35935497240E+03  0.00000000000E+00 0. -1.
         22    1    3    3    0    0 -0.56866691059E+02 -0.23928455669E+02  0.11707754313E+03  0.13233874205E+03  0.00000000000E+00 0. -1.
</event>
<event>
 7    1  0.6235964E-006  0.9000007E+02  0.7818608E-02  0.1374281E+00
          2   -1    0    0  502    0  0.00000000000E+00  0.00000000000E+00  0.12304717965E+04  0.12304717965E+04  0.00000000000E+00 0. -1.
          1   -1    0    0  501    0 -0.00000000000E+00 -0.00000000000E+00 -0.43168411835E+02  0.43168411835E+02  0.00000000000E+00 0. -1.
         25    2    1    2    0    0  0.18941824674E+01  0.72443903708E+02  0.40802454298E+03  0.43285156227E+03  0.12499896070E+03 0.  0.
          2    1    1    2  501    0  0.47350436580E+02  0.99629060598E+01 -0.68060499914E+01  0.48863541194E+02  0.00000000000E+00 0. -1.
          1    1    1    2  502    0 -0.49244619048E+02 -0.82406809768E+02  0.78608489171E+03  0.79192510490E+03  0.00000000000E+00 0. -1.
         22    1    3    3    0    0  0.60317100310E+02  0.52572023888E+02  0.27115457036E+03  0.28271323159E+03  0.00000000000E+00 0.  1.
         22    1    3    3    0    0 -0.58422917843E+02  0.19871879820E+02  0.13686997262E+03  0.15013833068E+03  0.00000000000E+00 0.  1.
</event>
<event>
 7    1  0.6235964E-006  0.3554197E+02  0.7818608E-02  0.1628098E+00
          2   -1    0    0  502    0  0.00000000000E+00  0.00000000000E+00  0.77242933488E+03  0.77242933488E+03  0.00000000000E+00 0. -1.
          1   -1    0    0  501    0 -0.00000000000E+00 -0.00000000000E+00 -0.12862189862E+04  0.12862189862E+04  0.00000000000E+00 0. -1.
         25    2    1    2    0    0 -0.12791168937E+01  0.56711846588E+02 -0.11497941390E+04  0.11579591678E+04  0.12500001005E+03 0.  0.
          2    1    1    2  501    0 -0.55193238321E-01 -0.21202485744E+02 -0.13107916607E+03  0.13278289131E+03  0.00000000000E+00 0. -1.
          1    1    1    2  502    0  0.13343101320E+01 -0.35509360845E+02  0.76708365383E+03  0.76790626190E+03  0.00000000000E+00 0. -1.
         22    1    3    3    0    0 -0.10107759666E+02  0.43431988692E+02 -0.11961763339E+03  0.12765924434E+03  0.00000000000E+00 0.  1.
         22    1    3    3    0    0  0.88286427724E+01  0.13279857897E+02 -0.10301765057E+04  0.10302999235E+04  0.00000000000E+00 0.  1.
</event>
<event>
 7    1  0.6235964E-006  0.3239266E+03  0.7818608E-02  0.1263696E+00
          2   -1    0    0  502    0  0.00000000000E+00  0.00000000000E+00  0.17848557976E+04  0.17848557976E+04  0.00000000000E+00 0. -1.
          1   -1    0    0  501    0 -0.00000000000E+00 -0.00000000000E+00 -0.10379020524E+04  0.10379020524E+04  0.00000000000E+00 0. -1.
         25    2    1    2    0    0 -0.35075662984E+03 -0.66288548929E+02  0.37306711214E+03  0.53125212137E+03  0.12500144482E+03 0.  0.
          2    1    1    2  501    0  0.31788360823E+03  0.51063207802E+02 -0.93152352230E+03  0.98559297489E+03  0.00000000000E+00 0. -1.
          1    1    1    2  502    0  0.32873021610E+02  0.15225341127E+02  0.13054101554E+04  0.13059127537E+04  0.00000000000E+00 0. -1.
         22    1    3    3    0    0 -0.17785765647E+03 -0.78249573755E+02  0.25894008898E+03  0.32373802903E+03  0.00000000000E+00 0. -1.
         22    1    3    3    0    0 -0.17289897337E+03  0.11961024825E+02  0.11412702317E+03  0.20751409235E+03  0.00000000000E+00 0. -1.
</event>
<event>
 7    1  0.6235964E-006  0.1142651E+03  0.7818608E-02  0.1268201E+00
          2   -1    0    0  502    0  0.00000000000E+00  0.00000000000E+00  0.45252930397E+03  0.45252930397E+03  0.00000000000E+00 0. -1.
          1   -1    0    0  501    0 -0.00000000000E+00 -0.00000000000E+00 -0.47551205592E+03  0.47551205592E+03  0.00000000000E+00 0. -1.
         25    2    1    2    0    0 -0.69590530500E+02 -0.75785948135E+02 -0.10332872595E+03  0.19207249521E+03  0.12501466290E+03 0.  0.
          2    1    1    2  501    0  0.12576264197E+03 -0.48778887392E+01 -0.30940010860E+03  0.33401865683E+03  0.00000000000E+00 0. -1.
          1    1    1    2  502    0 -0.56172111470E+02  0.80663836874E+02  0.38974608259E+03  0.40195020784E+03  0.00000000000E+00 0. -1.
         22    1    3    3    0    0  0.26493461602E+02 -0.37177138834E+00 -0.54366579817E+02  0.60479473564E+02  0.00000000000E+00 0.  1.
         22    1    3    3    0    0 -0.96083992102E+02 -0.75414176747E+02 -0.48962146130E+02  0.13159302165E+03  0.00000000000E+00 0.  1.
</event>
<event>
 7    1  0.6235964E-006  0.6761538E+02  0.7818608E-02  0.1408412E+00
          2   -1    0    0  502    0  0.00000000000E+00  0.00000000000E+00  0.28521243316E+03  0.28521243316E+03  0.00000000000E+00 0. -1.
          1   -1    0    0  501    0 -0.00000000000E+00 -0.00000000000E+00 -0.14333069951E+04  0.14333069951E+04  0.00000000000E+00 0. -1.
         25    2    1    2    0    0 -0.62212142979E+02 -0.86552595798E+02 -0.10293633122E+04  0.10423873744E+04  0.12498362765E+03 0.  0.
          2    1    1    2  501    0  0.64378588201E+01  0.48557588465E+02 -0.39179878479E+03  0.39484879788E+03  0.00000000000E+00 0. -1.
          1    1    1    2  502    0  0.55774284159E+02  0.37995007333E+02  0.27306753510E+03  0.28128325596E+03  0.00000000000E+00 0. -1.
         22    1    3    3    0    0  0.15417754976E+02 -0.28309428481E+02 -0.65027200967E+03  0.65107051651E+03  0.00000000000E+00 0.  1.
         22    1    3    3    0    0 -0.77629897955E+02 -0.58243167318E+02 -0.37909130254E+03  0.39131685788E+03  0.00000000000E+00 0.  1.
</event>
<event>
 7    1  0.6235964E-006  0.6253994E+02  0.7818608E-02  0.1394036E+00
          2   -1    0    0  502    0  0.00000000000E+00  0.00000000000E+00  0.17081749233E+04  0.17081749233E+04  0.00000000000E+00 0. -1.
          1   -1    0    0  501    0 -0.00000000000E+00 -0.00000000000E+00 -0.21300615188E+03  0.21300615188E+03  0.00000000000E+00 0. -1.
         25    2    1    2    0    0  0.95299568541E+02  0.10173823465E+02  0.68435238648E+02  0.17173724127E+03  0.12499913481E+03 0.  0.
          2    1    1    2  501    0 -0.45258606833E+02 -0.42048037480E+02 -0.15486547302E+03  0.16673240142E+03  0.00000000000E+00 0. -1.
          1    1    1    2  502    0 -0.50040961708E+02  0.31874214014E+02  0.15815990058E+04  0.15827114325E+04  0.00000000000E+00 0. -1.
         22    1    3    3    0    0  0.50145712390E+02 -0.40446764586E+02 -0.13029155801E+02  0.65728929228E+02  0.00000000000E+00 0.  1.
         22    1    3    3    0    0  0.45153856151E+02  0.50620588051E+02  0.81464394449E+02  0.10600831205E+03  0.00000000000E+00 0.  1.
</event>
<event>
 7    1  0.6235964E-006  0.1402114E+03  0.7818608E-02  0.1347892E+00
          2   -1    0    0  502    0  0.00000000000E+00  0.00000000000E+00  0.52243770732E+03  0.52243770732E+03  0.00000000000E+00 0. -1.
          1   -1    0    0  501    0 -0.00000000000E+00 -0.00000000000E+00 -0.15741929959E+03  0.15741929959E+03  0.00000000000E+00 0. -1.
         25    2    1    2    0    0 -0.68165165714E+02 -0.14813717632E+03  0.22461175961E+03  0.30441256533E+03  0.12500181818E+03 0.  0.
          2    1    1    2  501    0 -0.37269539703E+01  0.38577068408E+02 -0.96898636734E+02  0.10436199593E+03  0.00000000000E+00 0. -1.
          1    1    1    2  502    0  0.71892119684E+02  0.10956010792E+03  0.23730528485E+03  0.27108244565E+03  0.00000000000E+00 0. -1.
         22    1    3    3    0    0 -0.99696369313E+01  0.20304649451E+01 -0.13528391912E+02  0.16927310364E+02  0.00000000000E+00 0.  1.
         22    1    3    3    0    0 -0.58195528783E+02 -0.15016764127E+03  0.23814015152E+03  0.28748525496E+03  0.00000000000E+00 0.  1.
</event>
<event>
 7    1  0.1026971E-005  0.8710135E+02  0.7818608E-02  0.1437438E+00
          2   -1    0    0  502    0  0.00000000000E+00  0.00000000000E+00  0.16348602894E+04  0.16348602894E+04  0.00000000000E+00 0. -1.
          1   -1    0    0  501    0 -0.00000000000E+00 -0.00000000000E+00 -0.14858980066E+04  0.14858980066E+04  0.00000000000E+00 0. -1.
         25    2    1    2    0    0 -0.71784274571E+02 -0.81952885483E+02 -0.88692523701E+03  0.90229202645E+03  0.12500106972E+03 0.  0.
          2    1    1    2  501    0  0.29925785974E+02  0.55975349996E+01 -0.58973148549E+03  0.59051681605E+03  0.00000000000E+00 0. -1.
          1    1    1    2  502    0  0.41858488597E+02  0.76355350483E+02  0.16256190054E+04  0.16279494535E+04  0.00000000000E+00 0. -1.
         22    1    3    3    0    0 -0.90263984388E+02 -0.10062147431E+03 -0.64944745806E+03  0.66336586342E+03  0.00000000000E+00 0.  1.
         22    1    3    3    0    0  0.18479709817E+02  0.18668588829E+02 -0.23747777895E+03  0.23892616303E+03  0.00000000000E+00 0.  1.
</event>
<event>
 7    1  0.6235964E-006  0.7442814E+02  0.7818608E-02  0.1463863E+00
          2   -1    0    0  502    0  0.00000000000E+00  0.00000000000E+00  0.47054660351E+03  0.47054660351E+03  0.00000000000E+00 0. -1.
          1   -1    0    0  501    0 -0.00000000000E+00 -0.00000000000E+00 -0.15252881089E+04  0.15252881089E+04  0.00000000000E+00 0. -1.
         25    2    1    2    0    0  0.50379897753E+02 -0.70722150136E+02 -0.87231579103E+02  0.17541852246E+03  0.12499021167E+03 0.  0.
          2    1    1    2  501    0 -0.60419481436E+02  0.43162927213E+02 -0.13924683633E+04  0.13944467343E+04  0.00000000000E+00 0. -1.
          1    1    1    2  502    0  0.10039583683E+02  0.27559222923E+02  0.42495843698E+03  0.42596945567E+03  0.00000000000E+00 0. -1.
         22    1    3    3    0    0  0.90711546533E+02 -0.35010373517E+02 -0.45917154128E+02  0.10752997708E+03  0.00000000000E+00 0.  1.
         22    1    3    3    0    0 -0.40331648780E+02 -0.35711776619E+02 -0.41314424974E+02  0.67888545378E+02  0.00000000000E+00 0.  1.
</event>
<event>
 7    1  0.6235964E-006  0.5642449E+02  0.7818608E-02  0.1527944E+00
          2   -1    0    0  502    0  0.00000000000E+00  0.00000000000E+00  0.66585147690E+03  0.66585147690E+03  0.00000000000E+00 0. -1.
          1   -1    0    0  501    0 -0.00000000000E+00 -0.00000000000E+00 -0.19271971882E+03  0.19271971882E+03  0.00000000000E+00 0. -1.
         25    2    1    2    0    0  0.56793749879E+02 -0.30833957478E+02  0.26434201354E+03  0.29946342651E+03  0.12500152293E+03 0.  0.
          2    1    1    2  501    0 -0.35563473622E+02  0.43735015579E+02 -0.17020660970E+03  0.17929808206E+03  0.00000000000E+00 0. -1.
          1    1    1    2  502    0 -0.21230276257E+02 -0.12901058101E+02  0.37899635424E+03  0.37980968716E+03  0.00000000000E+00 0. -1.
         22    1    3    3    0    0  0.90099583945E+02 -0.37360619254E+02  0.14038119359E+03  0.17094042942E+03  0.00000000000E+00 0. -1.
         22    1    3    3    0    0 -0.33305834066E+02  0.65266617755E+01  0.12396081995E+03  0.12852299709E+03  0.00000000000E+00 0. -1.
</event>
<event>
 7    1  0.6235964E-006  0.9040281E+02  0.7818608E-02  0.1335452E+00
          2   -1    0    0  502    0  0.00000000000E+00  0.00000000000E+00  0.29194209465E+02  0.29194209465E+02  0.00000000000E+00 0. -1.
          1   -1    0    0  501    0 -0.00000000000E+00 -0.00000000000E+00 -0.44205639236E+04  0.44205639236E+04  0.00000000000E+00 0. -1.
         25    2    1    2    0    0 -0.99683606708E+02  0.11081906318E+02 -0.19760000004E+04  0.19824886194E+04  0.12500197695E+03 0.  0.
          2    1    1    2  501    0  0.37594218743E+02  0.55376195857E+02 -0.23596708764E+04  0.23606199383E+04  0.00000000000E+00 0. -1.
          1    1    1    2  502    0  0.62089387966E+02 -0.66458102176E+02 -0.55698837320E+02  0.10664957535E+03  0.00000000000E+00 0. -1.
         22    1    3    3    0    0 -0.10590074570E+03  0.42128916394E+02 -0.10940780079E+04  0.10999984095E+04  0.00000000000E+00 0. -1.
         22    1    3    3    0    0  0.62171389883E+01 -0.31047010076E+02 -0.88192199252E+03  0.88249020989E+03  0.00000000000E+00 0. -1.
</event>
<event>
 7    1  0.6235964E-006  0.5044576E+02  0.7818608E-02  0.1449584E+00
          2   -1    0    0  502    0  0.00000000000E+00  0.00000000000E+00  0.32667792372E+02  0.32667792372E+02  0.00000000000E+00 0. -1.
          1   -1    0    0  501    0 -0.00000000000E+00 -0.00000000000E+00 -0.75370903367E+03  0.75370903367E+03  0.00000000000E+00 0. -1.
         25    2    1    2    0    0  0.24337032970E+02 -0.17578368844E+01 -0.40396026615E+03  0.42356077958E+03  0.12499782482E+03 0.  0.
          2    1    1    2  501    0 -0.43172784134E+02 -0.42422415228E+02 -0.30805802264E+03  0.31394791911E+03  0.00000000000E+00 0. -1.
          1    1    1    2  502    0  0.18835751165E+02  0.44180252112E+02 -0.90229525165E+01  0.48868127351E+02  0.00000000000E+00 0. -1.
         22    1    3    3    0    0 -0.54192363992E+01 -0.60866384608E+02 -0.18673241199E+03  0.19647666168E+03  0.00000000000E+00 0.  1.
         22    1    3    3    0    0  0.29756269369E+02  0.59108547723E+02 -0.21722785416E+03  0.22708411790E+03  0.00000000000E+00 0.  1.
</event>
<event>
 7    1  0.6235964E-006  0.1280487E+03  0.7818608E-02  0.1343662E+00
          2   -1    0    0  502    0  0.00000000000E+00  0.00000000000E+00  0.15334692989E+04  0.15334692989E+04  0.00000000000E+00 0. -1.
          1   -1    0    0  501    0 -0.00000000000E+00 -0.00000000000E+00 -0.69819438767E+02  0.69819438767E+02  0.00000000000E+00 0. -1.
         25    2    1    2    0    0 -0.61090332962E+02  0.81819611451E+02  0.10289915291E+04  0.10415736853E+04  0.12500278985E+03 0.  0.
          2    1    1    2  501    0  0.10482528325E+03 -0.76926026788E+02  0.53247299307E+01  0.13013188062E+03  0.00000000000E+00 0. -1.
          1    1    1    2  502    0 -0.43734950286E+02 -0.48935846627E+01  0.42933360111E+03  0.43158317170E+03  0.00000000000E+00 0. -1.
         22    1    3    3    0    0 -0.64179744843E+02 -0.11685122086E+02  0.33374522893E+03  0.34006096448E+03  0.00000000000E+00 0.  1.
         22    1    3    3    0    0  0.30894118815E+01  0.93504733538E+02  0.69524630014E+03  0.70151272085E+03  0.00000000000E+00 0.  1.
</event>
<event>
 7    1  0.6235964E-006  0.1980091E+03  0.7818608E-02  0.1233238E+00
          2   -1    0    0  502    0  0.00000000000E+00  0.00000000000E+00  0.51839266280E+03  0.51839266280E+03  0.00000000000E+00 0. -1.
          1   -1    0    0  501    0 -0.00000000000E+00 -0.00000000000E+00 -0.92087263520E+03  0.92087263520E+03  0.00000000000E+00 0. -1.
         25    2    1    2    0    0  0.12688389875E+03 -0.42048197867E+02 -0.82368676378E+02  0.20069224040E+03  0.12500080721E+03 0.  0.
          2    1    1    2  501    0 -0.20287277346E+03  0.68331488374E+02 -0.76093637556E+03  0.79047499781E+03  0.00000000000E+00 0. -1.
          1    1    1    2  502    0  0.75988874719E+02 -0.26283290507E+02  0.44082507953E+03  0.44809805979E+03  0.00000000000E+00 0. -1.
         22    1    3    3    0    0  0.45983878934E+01 -0.17029281453E+02  0.28650099785E+02  0.33644759112E+02  0.00000000000E+00 0. -1.
         22    1    3    3    0    0  0.12228551085E+03 -0.25018916414E+02 -0.11101877616E+03  0.16704748128E+03  0.00000000000E+00 0. -1.
</event>
<event>
 7    1  0.6235964E-006  0.7849507E+02  0.7818608E-02  0.1350615E+00
          2   -1    0    0  502    0  0.00000000000E+00  0.00000000000E+00  0.13145305049E+03  0.13145305049E+03  0.00000000000E+00 0. -1.
          1   -1    0    0  501    0 -0.00000000000E+00 -0.00000000000E+00 -0.47508650061E+03  0.47508650061E+03  0.00000000000E+00 0. -1.
         25    2    1    2    0    0  0.24081849120E+02 -0.66319748639E+02 -0.13248187557E+03  0.19533179497E+03  0.12499927302E+03 0.  0.
          2    1    1    2  501    0  0.53899105268E+02  0.40862234092E+02 -0.28978589854E+03  0.29757470107E+03  0.00000000000E+00 0. -1.
          1    1    1    2  502    0 -0.77980954389E+02  0.25457514547E+02  0.78634323985E+02  0.11363305506E+03  0.00000000000E+00 0. -1.
         22    1    3    3    0    0  0.28099842662E+02 -0.20936488792E+02  0.17081025605E+02  0.38983318949E+02  0.00000000000E+00 0. -1.
         22    1    3    3    0    0 -0.40179935416E+01 -0.45383259847E+02 -0.14956290117E+03  0.15634847602E+03  0.00000000000E+00 0. -1.
</event>
<event>
 7    1  0.6235964E-006  0.9795984E+02  0.7818608E-02  0.1393337E+00
          2   -1    0    0  502    0  0.00000000000E+00  0.00000000000E+00  0.15436559689E+04  0.15436559689E+04  0.00000000000E+00 0. -1.
          1   -1    0    0  501    0 -0.00000000000E+00 -0.00000000000E+00 -0.24732465622E+02  0.24732465622E+02  0.00000000000E+00 0. -1.
         25    2    1    2    0    0 -0.64940818119E+02  0.38496589310E+02  0.12117415186E+04  0.12205086264E+04  0.12499800723E+03 0.  0.
          2    1    1    2  501    0  0.65746612604E+02 -0.76578148418E+02  0.11972218523E+03  0.15658937231E+03  0.00000000000E+00 0. -1.
          1    1    1    2  502    0 -0.80579448496E+00  0.38081559109E+02  0.18745979941E+03  0.19129043584E+03  0.00000000000E+00 0. -1.
         22    1    3    3    0    0 -0.67730347352E+02 -0.27081541893E+02  0.82677269340E+03  0.82998427480E+03  0.00000000000E+00 0.  1.
         22    1    3    3    0    0  0.27895292329E+01  0.65578131203E+02  0.38496882524E+03  0.39052435158E+03  0.00000000000E+00 0.  1.
</event>
<event>
 7    1  0.6235964E-006  0.5998024E+02  0.7818608E-02  0.1432112E+00
          2   -1    0    0  502    0  0.00000000000E+00  0.00000000000E+00  0.60421217702E+03  0.60421217702E+03  0.00000000000E+00 0. -1.
          1   -1    0    0  501    0 -0.00000000000E+00 -0.00000000000E+00 -0.38163565411E+03  0.38163565411E+03  0.00000000000E+00 0. -1.
         25    2    1    2    0    0  0.55519252042E+02 -0.12963553738E+02 -0.23949833092E+02  0.13945900052E+03  0.12499910898E+03 0.  0.
          2    1    1    2  501    0 -0.51420470533E+02 -0.32873395016E+02 -0.29584202602E+03  0.30207156312E+03  0.00000000000E+00 0. -1.
          1    1    1    2  502    0 -0.40987815088E+01  0.45836948754E+02  0.54236838202E+03  0.54431726750E+03  0.00000000000E+00 0. -1.
         22    1    3    3    0    0  0.53381878031E+02  0.46715857948E+02  0.85842748569E+01  0.71454083583E+02  0.00000000000E+00 0.  1.
         22    1    3    3    0    0  0.21373740116E+01 -0.59679411687E+02 -0.32534107949E+02  0.68004916932E+02  0.00000000000E+00 0.  1.
</event>
<event>
 7    1  0.6235964E-006  0.1025951E+03  0.7818608E-02  0.1342505E+00
          2   -1    0    0  502    0  0.00000000000E+00  0.00000000000E+00  0.38572848021E+03  0.38572848021E+03  0.00000000000E+00 0. -1.
          1   -1    0    0  501    0 -0.00000000000E+00 -0.00000000000E+00 -0.15262268448E+04  0.15262268448E+04  0.00000000000E+00 0. -1.
         25    2    1    2    0    0  0.48129886772E+02 -0.82158175278E+02  0.50364136430E+02  0.16496948609E+03  0.12494772241E+03 0.  0.
          2    1    1    2  501    0  0.45310767255E+02  0.32008960002E+02 -0.14582663699E+04  0.14593212274E+04  0.00000000000E+00 0. -1.
          1    1    1    2  502    0 -0.93440654027E+02  0.50149215276E+02  0.26740386890E+03  0.28766461152E+03  0.00000000000E+00 0. -1.
         22    1    3    3    0    0  0.41514150139E+02 -0.10484662605E+03  0.38923013049E+01  0.11283345987E+03  0.00000000000E+00 0. -1.
         22    1    3    3    0    0  0.66157366329E+01  0.22688450775E+02  0.46471835125E+02  0.52136026217E+02  0.00000000000E+00 0. -1.
</event>
<event>
 7    1  0.6235964E-006  0.1411366E+03  0.7818608E-02  0.1212200E+00
          2   -1    0    0  502    0  0.00000000000E+00  0.00000000000E+00  0.11529691659E+04  0.11529691659E+04  0.00000000000E+00 0. -1.
          1   -1    0    0  501    0 -0.00000000000E+00 -0.00000000000E+00 -0.68506123917E+03  0.68506123917E+03  0.00000000000E+00 0. -1.
         25    2    1    2    0    0  0.90732320684E+01 -0.11071590173E+02 -0.87815303731E+02  0.15342848485E+03  0.12499547490E+03 0.  0.
          2    1    1    2  501    0 -0.78685425173E+02 -0.11716720079E+03 -0.55075129551E+03  0.56854774521E+03  0.00000000000E+00 0. -1.
          1    1    1    2  502    0  0.69612193105E+02  0.12823879096E+03  0.11064745260E+04  0.11160541750E+04  0.00000000000E+00 0. -1.
         22    1    3    3    0    0 -0.57759231760E+02  0.14639045753E+01 -0.38493964793E+02  0.69426631746E+02  0.00000000000E+00 0.  1.
         22    1    3    3    0    0  0.66832463828E+02 -0.12535494748E+02 -0.49321338939E+02  0.84001853103E+02  0.00000000000E+00 0.  1.
</event>
<event>
 7    1  0.6235964E-006  0.1526332E+03  0.7818608E-02  0.1345691E+00
          2   -1    0    0  502    0  0.00000000000E+00  0.00000000000E+00  0.22094858307E+03  0.22094858307E+03  0.00000000000E+00 0. -1.
          1   -1    0    0  501    0 -0.00000000000E+00 -0.00000000000E+00 -0.98459831832E+03  0.98459831832E+03  0.00000000000E+00 0. -1.
         25    2    1    2    0    0  0.14613277838E+03 -0.17755031244E+02 -0.82439907074E+03  0.84671637248E+03  0.12499903017E+03 0.  0.
          2    1    1    2  501    0 -0.18004599228E+03  0.48637840494E+01 -0.91708335846E+02  0.20211539920E+03  0.00000000000E+00 0. -1.
          1    1    1    2  502    0  0.33913213902E+02  0.12891247194E+02  0.15245767134E+03  0.15671512971E+03  0.00000000000E+00 0. -1.
         22    1    3    3    0    0  0.66218490015E+02 -0.65555582162E+02 -0.52383793706E+03  0.53206071747E+03  0.00000000000E+00 0.  1.
         22    1    3    3    0    0  0.79914288362E+02  0.47800550919E+02 -0.30056113368E+03  0.31465565501E+03  0.00000000000E+00 0.  1.
</event>
<event>
 7    1  0.6235964E-006  0.4327503E+02  0.7818608E-02  0.1527455E+00
          2   -1    0    0  502    0  0.00000000000E+00  0.00000000000E+00  0.24066654036E+03  0.24066654036E+03  0.00000000000E+00 0. -1.
          1   -1    0    0  501    0 -0.00000000000E+00 -0.00000000000E+00 -0.14700932288E+04  0.14700932288E+04  0.00000000000E+00 0. -1.
         25    2    1    2    0    0 -0.50558146876E+02 -0.66292683626E+00 -0.18147010471E+03  0.22608027829E+03  0.12499731052E+03 0.  0.
          2    1    1    2  501    0  0.33051121860E+02  0.28040292067E+02 -0.12647357151E+04  0.12654781957E+04  0.00000000000E+00 0. -1.
          1    1    1    2  502    0  0.17507025015E+02 -0.27377365231E+02  0.21677913135E+03  0.21920129525E+03  0.00000000000E+00 0. -1.
         22    1    3    3    0    0  0.32413315612E+02 -0.27920965227E+02 -0.33817739216E+02  0.54532951633E+02  0.00000000000E+00 0. -1.
         22    1    3    3    0    0 -0.82971462487E+02  0.27258038391E+02 -0.14765236550E+03  0.17154732665E+03  0.00000000000E+00 0. -1.
</event>
<event>
 7    1  0.6235964E-006  0.6703225E+02  0.7818608E-02  0.1525142E+00
          2   -1    0    0  502    0  0.00000000000E+00  0.00000000000E+00  0.12442043500E+04  0.12442043500E+04  0.00000000000E+00 0. -1.
          1   -1    0    0  501    0 -0.00000000000E+00 -0.00000000000E+00 -0.65507047220E+03  0.65507047220E+03  0.00000000000E+00 0. -1.
         25    2    1    2    0    0  0.25303974694E+02  0.79867887121E+02  0.51664206949E+03  0.53811064749E+03  0.12499948182E+03 0.  0.
          2    1    1    2  501    0 -0.14036756916E+02 -0.16024985982E+02 -0.64269354987E+03  0.64304652224E+03  0.00000000000E+00 0. -1.
          1    1    1    2  502    0 -0.11267217778E+02 -0.63842901139E+02  0.71518535814E+03  0.71811765242E+03  0.00000000000E+00 0. -1.
         22    1    3    3    0    0  0.55946010464E+02  0.93492269549E+01  0.10492259702E+03  0.11927328074E+03  0.00000000000E+00 0.  1.
         22    1    3    3    0    0 -0.30642035770E+02  0.70518660166E+02  0.41171947246E+03  0.41883736676E+03  0.00000000000E+00 0.  1.
</event>
<event>
 7    1  0.6235964E-006  0.9043479E+02  0.7818608E-02  0.1442427E+00
          2   -1    0    0  502    0  0.00000000000E+00  0.00000000000E+00  0.18418143262E+04  0.18418143262E+04  0.00000000000E+00 0. -1.
          1   -1    0    0  501    0 -0.00000000000E+00 -0.00000000000E+00 -0.52223550236E+03  0.52223550236E+03  0.00000000000E+00 0. -1.
         25    2    1    2    0    0  0.18568506268E+02 -0.62458778073E+02  0.30189013518E+03  0.33317985457E+03  0.12500109354E+03 0.  0.
          2    1    1    2  501    0  0.74040140612E+00 -0.28239779877E+02 -0.50478500302E+03  0.50557485364E+03  0.00000000000E+00 0. -1.
          1    1    1    2  502    0 -0.19308907675E+02  0.90698557950E+02  0.15224736916E+04  0.15252951203E+04  0.00000000000E+00 0. -1.
         22    1    3    3    0    0  0.35351648333E+02 -0.32840680924E+02  0.29439335561E+03  0.29832146619E+03  0.00000000000E+00 0.  1.
         22    1    3    3    0    0 -0.16783142065E+02 -0.29618097149E+02  0.74967795746E+01  0.34858388378E+02  0.00000000000E+00 0.  1.
</event>
<event>
 7    1  0.6235964E-006  0.9447280E+02  0.7818608E-02  0.1345767E+00
          2   -1    0    0  502    0  0.00000000000E+00  0.00000000000E+00  0.34003901846E+03  0.34003901846E+03  0.00000000000E+00 0. -1.
          1   -1    0    0  501    0 -0.00000000000E+00 -0.00000000000E+00 -0.11827327007E+04  0.11827327007E+04  0.00000000000E+00 0. -1.
         25    2    1    2    0    0  0.13214142596E+03 -0.29121891603E+02 -0.39337617212E+03  0.43437157865E+03  0.12499765807E+03 0.  0.
          2    1    1    2  501    0 -0.76508667189E+02  0.47462861724E+02 -0.76350665637E+03  0.76879692619E+03  0.00000000000E+00 0. -1.
          1    1    1    2  502    0 -0.55632758770E+02 -0.18340970121E+02  0.31418914621E+03  0.31960321436E+03  0.00000000000E+00 0. -1.
         22    1    3    3    0    0  0.12493791207E+03 -0.15545071868E+02 -0.17569113417E+03  0.21614464082E+03  0.00000000000E+00 0. -1.
         22    1    3    3    0    0  0.72035138938E+01 -0.13576819735E+02 -0.21768503795E+03  0.21822693783E+03  0.00000000000E+00 0. -1.
</event>
<event>
 7    1  0.6235964E-006  0.6141887E+02  0.7818608E-02  0.1495057E+00
          2   -1    0    0  502    0  0.00000000000E+00  0.00000000000E+00  0.51694443560E+03  0.51694443560E+03  0.00000000000E+00 0. -1.
          1   -1    0    0  501    0 -0.00000000000E+00 -0.00000000000E+00 -0.32398397905E+03  0.32398397905E+03  0.00000000000E+00 0. -1.
         25    2    1    2    0    0 -0.51999617763E+02  0.71908305590E+02  0.14355919414E+03  0.21002190750E+03  0.12500077899E+03 0.  0.
          2    1    1    2  501    0  0.31362831774E+02 -0.52238549852E+02 -0.28695081710E+03  0.29334836754E+03  0.00000000000E+00 0. -1.
          1    1    1    2  502    0  0.20636785989E+02 -0.19669755738E+02  0.33635207951E+03  0.33755813961E+03  0.00000000000E+00 0. -1.
         22    1    3    3    0    0 -0.41526100052E+02  0.69513401629E+01 -0.97256736314E+01  0.43212577372E+02  0.00000000000E+00 0.  1.
         22    1    3    3    0    0 -0.10473517711E+02  0.64956965427E+02  0.15328486777E+03  0.16680933013E+03  0.00000000000E+00 0.  1.
</event>
<event>
 7    1  0.6235964E-006  0.8982327E+02  0.7818608E-02  0.1335310E+00
          2   -1    0    0  502    0  0.00000000000E+00  0.00000000000E+00  0.10261477080E+04  0.10261477080E+04  0.00000000000E+00 0. -1.
          1   -1    0    0  501    0 -0.00000000000E+00 -0.00000000000E+00 -0.53487365573E+03  0.53487365573E+03  0.00000000000E+00 0. -1.
         25    2    1    2    0    0  0.13784510882E+03  0.16845662473E+02  0.61271385948E+02  0.19663151906E+03  0.12499888471E+03 0.  0.
          2    1    1    2  501    0 -0.52869412872E+02 -0.41879791436E+02 -0.46255517405E+03  0.46744666090E+03  0.00000000000E+00 0. -1.
          1    1    1    2  502    0 -0.84975695949E+02  0.25034128963E+02  0.89255784032E+03  0.89694318373E+03  0.00000000000E+00 0. -1.
         22    1    3    3    0    0  0.15389359845E+03 -0.72350597137E+01  0.65456149700E+02  0.16739203465E+03  0.00000000000E+00 0.  1.
         22    1    3    3    0    0 -0.16048489627E+02  0.24080722187E+02 -0.41847637513E+01  0.29239484401E+02  0.00000000000E+00 0.  1.
</event>
<event>
 7    1  0.6235964E-006  0.3967791E+03  0.7818608E-02  0.1099511E+00
          2   -1    0    0  502    0  0.00000000000E+00  0.00000000000E+00  0.15322707205E+04  0.15322707205E+04  0.00000000000E+00 0. -1.
          1   -1    0    0  501    0 -0.00000000000E+00 -0.00000000000E+00 -0.26573105523E+03  0.26573105523E+03  0.00000000000E+00 0. -1.
         25    2    1    2    0    0  0.69272295228E+02 -0.37268863546E+03  0.26659392980E+03  0.47999286601E+03  0.12500143252E+03 0.  0.
          2    1    1    2  501    0  0.11396727264E+03  0.41468148092E+03  0.16251871838E+03  0.45974080054E+03  0.00000000000E+00 0. -1.
          1    1    1    2  502    0 -0.18323956787E+03 -0.41992845466E+02  0.83742701711E+03  0.85826810921E+03  0.00000000000E+00 0. -1.
         22    1    3    3    0    0  0.48417338778E+02 -0.34054177502E+02  0.49900181982E+02  0.77420629431E+02  0.00000000000E+00 0. -1.
         22    1    3    3    0    0  0.20854956450E+02 -0.33863445795E+03  0.21669374782E+03  0.40257223658E+03  0.00000000000E+00 0. -1.
</event>
<event>
 7    1  0.6235964E-006  0.6946060E+02  0.7818608E-02  0.1446142E+00
          2   -1    0    0  502    0  0.00000000000E+00  0.00000000000E+00  0.33336713728E+02  0.33336713728E+02  0.00000000000E+00 0. -1.
          1   -1    0    0  501    0 -0.00000000000E+00 -0.00000000000E+00 -0.18079556084E+04  0.18079556084E+04  0.00000000000E+00 0. -1.
         25    2    1    2    0    0  0.13364781863E+02 -0.84323614288E+02 -0.41460327554E+03  0.44137101364E+03  0.12499362494E+03 0.  0.
          2    1    1    2  501    0 -0.37404466702E+02  0.57824280089E+02 -0.13623282974E+04  0.13640678617E+04  0.00000000000E+00 0. -1.
          1    1    1    2  502    0  0.24039684839E+02  0.26499334199E+02  0.23126783138E+01  0.35853446712E+02  0.00000000000E+00 0. -1.
         22    1    3    3    0    0 -0.25955144336E+02 -0.46018087986E+02 -0.50276411814E+02  0.72931827923E+02  0.00000000000E+00 0.  1.
         22    1    3    3    0    0  0.39319926199E+02 -0.38305526302E+02 -0.36432686373E+03  0.36843918572E+03  0.00000000000E+00 0.  1.
</event>
<event>
 7    1  0.6235964E-006  0.6491281E+02  0.7818608E-02  0.1398388E+00
          2   -1    0    0  502    0  0.00000000000E+00  0.00000000000E+00  0.98683687553E+03  0.98683687553E+03  0.00000000000E+00 0. -1.
          1   -1    0    0  501    0 -0.00000000000E+00 -0.00000000000E+00 -0.96760515583E+03  0.96760515583E+03  0.00000000000E+00 0. -1.
         25    2    1    2    0    0  0.75823431058E+02  0.18648338464E+02  0.40952205607E+03  0.43523591705E+03  0.12500014344E+03 0.  0.
          2    1    1    2  501    0 -0.34355063420E+02 -0.55103835417E+02 -0.95228962197E+03  0.95450103571E+03  0.00000000000E+00 0. -1.
          1    1    1    2  502    0 -0.41468367639E+02  0.36455496953E+02  0.56199928560E+03  0.56470507860E+03  0.00000000000E+00 0. -1.
         22    1    3    3    0    0  0.10187960078E+03  0.85686263909E+01  0.20781224282E+03  0.23160052392E+03  0.00000000000E+00 0. -1.
         22    1    3    3    0    0 -0.26056169723E+02  0.10079712073E+02  0.20170981325E+03  0.20363539313E+03  0.00000000000E+00 0. -1.
</event>
<event>
 7    1  0.6235964E-006  0.5271907E+02  0.7818608E-02  0.1454547E+00
          2   -1    0    0  502    0  0.00000000000E+00  0.00000000000E+00  0.14660097081E+02  0.14660097081E+02  0.00000000000E+00 0. -1.
          1   -1    0    0  501    0 -0.00000000000E+00 -0.00000000000E+00 -0.17851717237E+04  0.17851717237E+04  0.00000000000E+00 0. -1.
         25    2    1    2    0    0 -0.61160270541E+01  0.13564978045E+02 -0.99142451877E+03  0.99938405723E+03  0.12499801200E+03 0.  0.
          2    1    1    2  501    0 -0.41346246052E+02  0.15937430408E+02 -0.71092706001E+03  0.71230667441E+03  0.00000000000E+00 0. -1.
          1    1    1    2  502    0  0.47462273106E+02 -0.29502408453E+02 -0.68160047795E+02  0.88141089104E+02  0.00000000000E+00 0. -1.
         22    1    3    3    0    0  0.52701464342E+02 -0.20091563830E+02 -0.36974808122E+03  0.37402507783E+03  0.00000000000E+00 0. -1.
         22    1    3    3    0    0 -0.58817491396E+02  0.33656541875E+02 -0.62167643756E+03  0.62535897940E+03  0.00000000000E+00 0. -1.
</event>
<event>
 7    1  0.6235964E-006  0.7362679E+02  0.7818608E-02  0.1371167E+00
          2   -1    0    0  502    0  0.00000000000E+00  0.00000000000E+00  0.24187205668E+03  0.24187205668E+03  0.00000000000E+00 0. -1.
          1   -1    0    0  501    0 -0.00000000000E+00 -0.00000000000E+00 -0.98997666794E+03  0.98997666794E+03  0.00000000000E+00 0. -1.
         25    2    1    2    0    0 -0.91675060398E+01  0.77635474888E+02 -0.91971444326E+02  0.17376455234E+03  0.12499625175E+03 0.  0.
          2    1    1    2  501    0  0.57129076927E+02 -0.20470664378E+02 -0.84906178129E+03  0.85122775329E+03  0.00000000000E+00 0. -1.
          1    1    1    2  502    0 -0.47961570887E+02 -0.57164810510E+02  0.19292861435E+03  0.20685641899E+03  0.00000000000E+00 0. -1.
         22    1    3    3    0    0 -0.61248117454E+02  0.64970074941E+02 -0.36011593341E+02  0.96277086497E+02  0.00000000000E+00 0. -1.
         22    1    3    3    0    0  0.52080611414E+02  0.12665399948E+02 -0.55959850984E+02  0.77487465846E+02  0.00000000000E+00 0. -1.
</event>
<event>
 7    1  0.6235964E-006  0.1110019E+03  0.7818608E-02  0.1346197E+00
          2   -1    0    0  502    0  0.00000000000E+00  0.00000000000E+00  0.39614660506E+03  0.39614660506E+03  0.00000000000E+00 0. -1.
          1   -1    0    0  501    0 -0.00000000000E+00 -0.00000000000E+00 -0.88052040370E+03  0.88052040370E+03  0.00000000000E+00 0. -1.
         25    2    1    2    0    0  0.71898377687E+02  0.70322889946E+02  0.11220743433E+03  0.19578048543E+03  0.12499921836E+03 0.  0.
          2    1    1    2  501    0 -0.36640213370E+02 -0.10531063119E+03 -0.83242962978E+03  0.83986422880E+03  0.00000000000E+00 0. -1.
          1    1    1    2  502    0 -0.35258164317E+02  0.34987741240E+02  0.23584839681E+03  0.24102229454E+03  0.00000000000E+00 0. -1.
         22    1    3    3    0    0  0.65523164378E+02 -0.21059636834E+02  0.48997323200E+02  0.84483910033E+02  0.00000000000E+00 0.  1.
         22    1    3    3    0    0  0.63752133089E+01  0.91382526780E+02  0.63210111134E+02  0.11129657540E+03  0.00000000000E+00 0.  1.
</event>
<event>
 7    1  0.6235964E-006  0.4673153E+02  0.7818608E-02  0.1586047E+00
          2   -1    0    0  502    0  0.00000000000E+00  0.00000000000E+00  0.17777506367E+03  0.17777506367E+03  0.00000000000E+00 0. -1.
          1   -1    0    0  501    0 -0.00000000000E+00 -0.00000000000E+00 -0.78769178552E+03  0.78769178552E+03  0.00000000000E+00 0. -1.
         25    2    1    2    0    0  0.62934258683E+02  0.82259667604E+01 -0.53045737586E+02  0.14989128447E+03  0.12500063775E+03 0.  0.
          2    1    1    2  501    0 -0.19458301915E+02  0.71242232714E+01 -0.68195237541E+03  0.68226711953E+03  0.00000000000E+00 0. -1.
          1    1    1    2  502    0 -0.43475956768E+02 -0.15350190032E+02  0.12508139114E+03  0.13330844520E+03  0.00000000000E+00 0. -1.
         22    1    3    3    0    0  0.62402434287E+02  0.59988677065E+02 -0.44821764069E+02  0.97476641896E+02  0.00000000000E+00 0.  1.
         22    1    3    3    0    0  0.53182439672E+00 -0.51762710305E+02 -0.82239735162E+01  0.52414642570E+02  0.00000000000E+00 0.  1.
</event>
<event>
 7    1  0.6235964E-006  0.6365243E+02  0.7818608E-02  0.1383330E+00
          2   -1    0    0  502    0  0.00000000000E+00  0.00000000000E+00  0.89930748176E+03  0.89930748176E+03  0.00000000000E+00 0. -1.
          1   -1    0    0  501    0 -0.00000000000E+00 -0.00000000000E+00 -0.74563753131E+03  0.74563753131E+03  0.00000000000E+00 0. -1.
         25    2    1    2    0    0  0.21801551277E+02 -0.53105682619E+02 -0.23591027882E+03  0.27308340312E+03  0.12500145696E+03 0.  0.
          2    1    1    2  501    0 -0.63368398050E+02  0.46745384346E+01 -0.48792173952E+03  0.49204169445E+03  0.00000000000E+00 0. -1.
          1    1    1    2  502    0  0.41566846773E+02  0.48431144184E+02  0.87750196879E+03  0.87981991550E+03  0.00000000000E+00 0. -1.
         22    1    3    3    0    0  0.18972884828E+02 -0.93082280464E+02 -0.14053425499E+03  0.16962947303E+03  0.00000000000E+00 0.  1.
         22    1    3    3    0    0  0.28286664486E+01  0.39976597846E+02 -0.95376023834E+02  0.10345393009E+03  0.00000000000E+00 0.  1.
</event>
<event>
 7    1  0.6235964E-006  0.1299237E+03  0.7818608E-02  0.1298603E+00
          2   -1    0    0  502    0  0.00000000000E+00  0.00000000000E+00  0.11702142254E+04  0.11702142254E+04  0.00000000000E+00 0. -1.
          1   -1    0    0  501    0 -0.00000000000E+00 -0.00000000000E+00 -0.11040048351E+04  0.11040048351E+04  0.00000000000E+00 0. -1.
         25    2    1    2    0    0  0.16647595418E+02  0.70400987870E+02  0.26490767881E+03  0.30171942494E+03  0.12500036627E+03 0.  0.
          2    1    1    2  501    0 -0.65219008400E+02 -0.11334195112E+03 -0.10804666773E+04  0.10883511188E+04  0.00000000000E+00 0. -1.
          1    1    1    2  502    0  0.48571412982E+02  0.42940963250E+02  0.88176838874E+03  0.88414851686E+03  0.00000000000E+00 0. -1.
         22    1    3    3    0    0 -0.54631481416E+02  0.33469406680E+02  0.12250758219E+03  0.13824943993E+03  0.00000000000E+00 0.  1.
         22    1    3    3    0    0  0.71279076834E+02  0.36931581189E+02  0.14240009662E+03  0.16346998502E+03  0.00000000000E+00 0.  1.
</event>
<event>
 7    1  0.6235964E-006  0.1653491E+03  0.7818608E-02  0.1311730E+00
          2   -1    0    0  502    0  0.00000000000E+00  0.00000000000E+00  0.71365827685E+03  0.71365827685E+03  0.00000000000E+00 0. -1.
          1   -1    0    0  501    0 -0.00000000000E+00 -0.00000000000E+00 -0.10971004568E+03  0.10971004568E+03  0.00000000000E+00 0. -1.
         25    2    1    2    0    0  0.16276532206E+03  0.29779405060E+02  0.50720324474E+03  0.54796095960E+03  0.12500687476E+03 0.  0.
          2    1    1    2  501    0 -0.16544898238E+03  0.15320795999E+02 -0.27017323522E+01  0.16617879503E+03  0.00000000000E+00 0. -1.
          1    1    1    2  502    0  0.26836603164E+01 -0.45100201059E+02  0.99446718788E+02  0.10922856790E+03  0.00000000000E+00 0. -1.
         22    1    3    3    0    0  0.99395163731E+02 -0.44236797327E+01  0.43406486054E+03  0.44532153628E+03  0.00000000000E+00 0. -1.
         22    1    3    3    0    0  0.63370158333E+02  0.34203084793E+02  0.73138384199E+02  0.10263942332E+03  0.00000000000E+00 0. -1.
</event>
<event>
 7    1  0.6235964E-006  0.5197116E+02  0.7818608E-02  0.1525433E+00
          2   -1    0    0  502    0  0.00000000000E+00  0.00000000000E+00  0.72290976649E+03  0.72290976649E+03  0.00000000000E+00 0. -1.
          1   -1    0    0  501    0 -0.00000000000E+00 -0.00000000000E+00 -0.83627862340E+03  0.83627862340E+03  0.00000000000E+00 0. -1.
         25    2    1    2    0    0  0.38816479062E+01  0.40437700947E+02  0.14345150044E+03  0.19455992813E+03  0.12499983123E+03 0.  0.
          2    1    1    2  501    0 -0.26432655209E+02  0.73066981562E+01 -0.80923323226E+03  0.80969778146E+03  0.00000000000E+00 0. -1.
          1    1    1    2  502    0  0.22551007303E+02 -0.47744399103E+02  0.55241287491E+03  0.55493068031E+03  0.00000000000E+00 0. -1.
         22    1    3    3    0    0 -0.24418352831E+02  0.62517969535E+02  0.26390696984E+02  0.72119493600E+02  0.00000000000E+00 0. -1.
         22    1    3    3    0    0  0.28300000737E+02 -0.22080268588E+02  0.11706080346E+03  0.12244043453E+03  0.00000000000E+00 0. -1.
</event>
<event>
 7    1  0.6235964E-006  0.1056012E+03  0.7818608E-02  0.1337075E+00
          2   -1    0    0  502    0  0.00000000000E+00  0.00000000000E+00  0.23128009825E+04  0.23128009825E+04  0.00000000000E+00 0. -1.
          1   -1    0    0  501    0 -0.00000000000E+00 -0.00000000000E+00 -0.95819463964E+02  0.95819463964E+02  0.00000000000E+00 0. -1.
         25    2    1    2    0    0 -0.61955591683E+02 -0.93541019490E+02  0.53380408872E+03  0.55960813515E+03  0.12500416845E+03 0.  0.
          2    1    1    2  501    0  0.68172950772E+01  0.10584381287E+03 -0.48349825210E+02  0.11656369003E+03  0.00000000000E+00 0. -1.
          1    1    1    2  502    0  0.55138296606E+02 -0.12302793381E+02  0.17315272550E+04  0.17324486213E+04  0.00000000000E+00 0. -1.
         22    1    3    3    0    0 -0.32272530231E+02 -0.86745822324E+02  0.16212605301E+03  0.18668479039E+03  0.00000000000E+00 0.  1.
         22    1    3    3    0    0 -0.29683061452E+02 -0.67951971664E+01  0.37167803571E+03  0.37292334477E+03  0.00000000000E+00 0.  1.
</event>
<event>
 7    1  0.6235964E-006  0.7598208E+02  0.7818608E-02  0.1351207E+00
          2   -1    0    0  502    0  0.00000000000E+00  0.00000000000E+00  0.37723158204E+03  0.37723158204E+03  0.00000000000E+00 0. -1.
          1   -1    0    0  501    0 -0.00000000000E+00 -0.00000000000E+00 -0.16617745393E+04  0.16617745393E+04  0.00000000000E+00 0. -1.
         25    2    1    2    0    0 -0.87146818146E+02 -0.55365890622E+02 -0.10936890544E+02  0.16249246396E+03  0.12499694200E+03 0.  0.
          2    1    1    2  501    0  0.12405251225E+02  0.68407510798E+02 -0.15695042626E+04  0.15710433183E+04  0.00000000000E+00 0. -1.
          1    1    1    2  502    0  0.74741566921E+02 -0.13041620175E+02  0.29589819591E+03  0.30547033903E+03  0.00000000000E+00 0. -1.
         22    1    3    3    0    0 -0.86829719781E+02 -0.74432286193E+02 -0.45446479639E+02  0.12306481210E+03  0.00000000000E+00 0. -1.
         22    1    3    3    0    0 -0.31709836470E+00  0.19066395570E+02  0.34509589095E+02  0.39427651857E+02  0.00000000000E+00 0. -1.
</event>
<event>
 7    1  0.6235964E-006  0.4805108E+02  0.7818608E-02  0.1502861E+00
          2   -1    0    0  502    0  0.00000000000E+00  0.00000000000E+00  0.26138617817E+03  0.26138617817E+03  0.00000000000E+00 0. -1.
          1   -1    0    0  501    0 -0.00000000000E+00 -0.00000000000E+00 -0.40627373355E+03  0.40627373355E+03  0.00000000000E+00 0. -1.
         25    2    1    2    0    0 -0.24281152185E+02 -0.30490177169E+02 -0.25399277231E+03  0.28575271289E+03  0.12499223688E+03 0.  0.
          2    1    1    2  501    0 -0.14067271997E+01  0.53573065253E+02 -0.12984727721E+03  0.14047194596E+03  0.00000000000E+00 0. -1.
          1    1    1    2  502    0  0.25687879385E+02 -0.23082888084E+02  0.23895249415E+03  0.24143525287E+03  0.00000000000E+00 0. -1.
         22    1    3    3    0    0 -0.12759820292E+02 -0.67795710289E+02 -0.72377220324E+02  0.99987666086E+02  0.00000000000E+00 0. -1.
         22    1    3    3    0    0 -0.11521331893E+02  0.37305533120E+02 -0.18161555199E+03  0.18576504680E+03  0.00000000000E+00 0. -1.
</event>
<event>
 7    1  0.6235964E-006  0.5334710E+02  0.7818608E-02  0.1565561E+00
          2   -1    0    0  502    0  0.00000000000E+00  0.00000000000E+00  0.27460526052E+04  0.27460526052E+04  0.00000000000E+00 0. -1.
          1   -1    0    0  501    0 -0.00000000000E+00 -0.00000000000E+00 -0.13162739164E+02  0.13162739164E+02  0.00000000000E+00 0. -1.
         25    2    1    2    0    0  0.36246638849E+02  0.39558492964E+02  0.16403211010E+04  0.16459518693E+04  0.12500219415E+03 0.  0.
          2    1    1    2  501    0 -0.48357595813E+02 -0.22877656499E+02  0.59593857999E+02  0.80082907983E+02  0.00000000000E+00 0. -1.
          1    1    1    2  502    0  0.12110956964E+02 -0.16680836465E+02  0.10329749071E+04  0.10331805671E+04  0.00000000000E+00 0. -1.
         22    1    3    3    0    0 -0.26644982046E+02  0.50983453356E+02  0.11560491711E+04  0.11574795694E+04  0.00000000000E+00 0. -1.
         22    1    3    3    0    0  0.62891620895E+02 -0.11424960392E+02  0.48427192996E+03  0.48847229998E+03  0.00000000000E+00 0. -1.
</event>
<event>
 7    1  0.6235964E-006  0.6320747E+02  0.7818608E-02  0.1445181E+00
          2   -1    0    0  502    0  0.00000000000E+00  0.00000000000E+00  0.15665472905E+04  0.15665472905E+04  0.00000000000E+00 0. -1.
          1   -1    0    0  501    0 -0.00000000000E+00 -0.00000000000E+00 -0.62144379506E+02  0.62144379506E+02  0.00000000000E+00 0. -1.
         25    2    1    2    0    0 -0.20080435912E+01  0.69462156516E+02  0.23215022931E+03  0.27266930210E+03  0.12500318360E+03 0.  0.
          2    1    1    2  501    0 -0.35209244500E+02 -0.18122122088E+02 -0.31579302830E+02  0.50649329458E+02  0.00000000000E+00 0. -1.
          1    1    1    2  502    0  0.37217288091E+02 -0.51340034427E+02  0.13038319845E+04  0.13053730385E+04  0.00000000000E+00 0. -1.
         22    1    3    3    0    0  0.55606184960E+02  0.14302977102E+02  0.60585215794E+02  0.83469703082E+02  0.00000000000E+00 0. -1.
         22    1    3    3    0    0 -0.57614228552E+02  0.55159179414E+02  0.17156501351E+03  0.18919959901E+03  0.00000000000E+00 0. -1.
</event>
<event>
 7    1  0.6235964E-006  0.8561544E+02  0.7818608E-02  0.1371380E+00
          2   -1    0    0  502    0  0.00000000000E+00  0.00000000000E+00  0.18720093490E+04  0.18720093490E+04  0.00000000000E+00 0. -1.
          1   -1    0    0  501    0 -0.00000000000E+00 -0.00000000000E+00 -0.31842219380E+03  0.31842219380E+03  0.00000000000E+00 0. -1.
         25    2    1    2    0    0  0.91065894492E+02 -0.97615881274E+02  0.56049492491E+03  0.58957792592E+03  0.12500284980E+03 0.  0.
          2    1    1    2  501    0 -0.35480334434E+02  0.38146738992E+02 -0.30035896429E+03  0.30484346024E+03  0.00000000000E+00 0. -1.
          1    1    1    2  502    0 -0.55585560058E+02  0.59469142283E+02  0.12934511946E+04  0.12960101567E+04  0.00000000000E+00 0. -1.
         22    1    3    3    0    0  0.89318264974E+02 -0.10430358561E+03  0.56492007338E+03  0.58137051846E+03  0.00000000000E+00 0. -1.
         22    1    3    3    0    0  0.17476295176E+01  0.66877043370E+01 -0.44251484644E+01  0.82074074568E+01  0.00000000000E+00 0. -1.
</event>
<event>
 7    1  0.6235964E-006  0.1026149E+03  0.7818608E-02  0.1279244E+00
          2   -1    0    0  502    0  0.00000000000E+00  0.00000000000E+00  0.92511963678E+03  0.92511963678E+03  0.00000000000E+00 0. -1.
          1   -1    0    0  501    0 -0.00000000000E+00 -0.00000000000E+00 -0.16228440708E+04  0.16228440708E+04  0.00000000000E+00 0. -1.
         25    2    1    2    0    0  0.55907439728E+02 -0.26742592676E+02 -0.13725388380E+03  0.19574278411E+03  0.12504319588E+03 0.  0.
          2    1    1    2  501    0  0.13337331689E+02  0.10247228290E+03 -0.14515644775E+04  0.14552380856E+04  0.00000000000E+00 0. -1.
          1    1    1    2  502    0 -0.69244771417E+02 -0.75729690228E+02  0.89109392727E+03  0.89698283795E+03  0.00000000000E+00 0. -1.
         22    1    3    3    0    0  0.38731494059E+02  0.17280354531E+01  0.13738822713E+02  0.41132347224E+02  0.00000000000E+00 0.  1.
         22    1    3    3    0    0  0.17175945669E+02 -0.28470628129E+02 -0.15099270651E+03  0.15461043689E+03  0.00000000000E+00 0.  1.
</event>
<event>
 7    1  0.6235964E-006  0.6481690E+02  0.7818608E-02  0.1378986E+00
          2   -1    0    0  502    0  0.00000000000E+00  0.00000000000E+00  0.59503946748E+03  0.59503946748E+03  0.00000000000E+00 0. -1.
          1   -1    0    0  501    0 -0.00000000000E+00 -0.00000000000E+00 -0.56877107664E+02  0.56877107664E+02  0.00000000000E+00 0. -1.
         25    2    1    2    0    0 -0.36402923422E+02  0.82850827185E+01  0.11173100289E+03  0.17176670863E+03  0.12500467894E+03 0.  0.
          2    1    1    2  501    0  0.69052085337E+02  0.47708339977E+02  0.48986327434E+02  0.97179918029E+02  0.00000000000E+00 0. -1.
          1    1    1    2  502    0 -0.32649161915E+02 -0.55993422695E+02  0.37744502949E+03  0.38296994849E+03  0.00000000000E+00 0. -1.
         22    1    3    3    0    0 -0.32589614167E+02 -0.13115287933E+02 -0.18521220236E+02  0.39713087618E+02  0.00000000000E+00 0.  1.
         22    1    3    3    0    0 -0.38133092550E+01  0.21400370651E+02  0.13025222313E+03  0.13205362101E+03  0.00000000000E+00 0.  1.
</event>
<event>
 7    1  0.6235964E-006  0.3858291E+02  0.7818608E-02  0.1576337E+00
          2   -1    0    0  502    0  0.00000000000E+00  0.00000000000E+00  0.94619188396E+03  0.94619188396E+03  0.00000000000E+00 0. -1.
          1   -1    0    0  501    0 -0.00000000000E+00 -0.00000000000E+00 -0.92716522248E+03  0.92716522248E+03  0.00000000000E+00 0. -1.
         25    2    1    2    0    0  0.27145745240E+02 -0.59095476648E+02  0.73119603967E+02  0.15874691232E+03  0.12499975537E+03 0.  0.
          2    1    1    2  501    0 -0.17671965235E+02  0.34190601401E+02 -0.88371881679E+03  0.88455652319E+03  0.00000000000E+00 0. -1.
          1    1    1    2  502    0 -0.94737800048E+01  0.24904875247E+02  0.82962587430E+03  0.83005367093E+03  0.00000000000E+00 0. -1.
         22    1    3    3    0    0  0.28692283216E+02  0.30347301335E+02  0.52247591059E+02  0.66888090016E+02  0.00000000000E+00 0. -1.
         22    1    3    3    0    0 -0.15465379758E+01 -0.89442777983E+02  0.20872012907E+02  0.91858822308E+02  0.00000000000E+00 0. -1.
</event>
<event>
 7    1  0.6235964E-006  0.2302003E+03  0.7818608E-02  0.1261261E+00
          2   -1    0    0  502    0  0.00000000000E+00  0.00000000000E+00  0.22352167072E+04  0.22352167072E+04  0.00000000000E+00 0. -1.
          1   -1    0    0  501    0 -0.00000000000E+00 -0.00000000000E+00 -0.17749892926E+03  0.17749892926E+03  0.00000000000E+00 0. -1.
         25    2    1    2    0    0 -0.19636605055E+03 -0.19130530645E+03  0.50088335395E+03  0.58452185990E+03  0.12499729739E+03 0.  0.
          2    1    1    2  501    0  0.41897474253E+02  0.31148962243E+02 -0.12303419021E+03  0.13365278956E+03  0.00000000000E+00 0. -1.
          1    1    1    2  502    0  0.15446857630E+03  0.16015634421E+03  0.16798686142E+04  0.16945409870E+04  0.00000000000E+00 0. -1.
         22    1    3    3    0    0 -0.89769057406E+02 -0.13391419002E+03  0.38298516904E+03  0.41553475626E+03  0.00000000000E+00 0.  1.
         22    1    3    3    0    0 -0.10659699314E+03 -0.57391116429E+02  0.11789818491E+03  0.16898710364E+03  0.00000000000E+00 0.  1.
</event>
<event>
 7    1  0.6235964E-006  0.1086872E+03  0.7818608E-02  0.1414831E+00
          2   -1    0    0  502    0  0.00000000000E+00  0.00000000000E+00  0.17761098862E+04  0.17761098862E+04  0.00000000000E+00 0. -1.
          1   -1    0    0  501    0 -0.00000000000E+00 -0.00000000000E+00 -0.72149604110E+03  0.72149604110E+03  0.00000000000E+00 0. -1.
         25    2    1    2    0    0 -0.72062885203E+02 -0.11532539060E+03  0.74329236634E+02  0.19910238688E+03  0.12499567953E+03 0.  0.
          2    1    1    2  501    0  0.95223474199E+01  0.27378565364E+02 -0.65701359239E+03  0.65765273627E+03  0.00000000000E+00 0. -1.
          1    1    1    2  502    0  0.62540537784E+02  0.87946825233E+02  0.16372982008E+04  0.16408508041E+04  0.00000000000E+00 0. -1.
         22    1    3    3    0    0 -0.80415186489E+02 -0.16791592724E+02  0.14196465419E+02  0.83367256370E+02  0.00000000000E+00 0. -1.
         22    1    3    3    0    0  0.83523012856E+01 -0.98533797873E+02  0.60132771215E+02  0.11573513051E+03  0.00000000000E+00 0. -1.
</event>
<event>
 7    1  0.6235964E-006  0.9577635E+02  0.7818608E-02  0.1382992E+00
          2   -1    0    0  502    0  0.00000000000E+00  0.00000000000E+00  0.87532024248E+03  0.87532024248E+03  0.00000000000E+00 0. -1.
          1   -1    0    0  501    0 -0.00000000000E+00 -0.00000000000E+00 -0.99793850547E+02  0.99793850547E+02  0.00000000000E+00 0. -1.
         25    2    1    2    0    0  0.10841057857E+03 -0.44211355740E+02  0.31064178383E+03  0.35471892731E+03  0.12497880622E+03 0.  0.
          2    1    1    2  501    0 -0.15678795603E+02  0.39335336311E+02 -0.67658271809E+02  0.79816884545E+02  0.00000000000E+00 0. -1.
          1    1    1    2  502    0 -0.92731782968E+02  0.48760194290E+01  0.53254287991E+03  0.54057828118E+03  0.00000000000E+00 0. -1.
         22    1    3    3    0    0  0.20345887983E+02 -0.72336629245E+02  0.10366994571E+03  0.12803905940E+03  0.00000000000E+00 0.  1.
         22    1    3    3    0    0  0.88064690587E+02  0.28125273505E+02  0.20697183813E+03  0.22667986791E+03  0.00000000000E+00 0.  1.
</event>
<event>
 7    1  0.6235964E-006  0.5946063E+02  0.7818608E-02  0.1508904E+00
          2   -1    0    0  502    0  0.00000000000E+00  0.00000000000E+00  0.32955961503E+04  0.32955961503E+04  0.00000000000E+00 0. -1.
          1   -1    0    0  501    0 -0.00000000000E+00 -0.00000000000E+00 -0.15585196931E+02  0.15585196931E+02  0.00000000000E+00 0. -1.
         25    2    1    2    0    0  0.34447922418E+02  0.91951867931E+01  0.42774333491E+03  0.44705750733E+03  0.12499937392E+03 0.  0.
          2    1    1    2  501    0  0.18790466678E+02  0.19084183487E+02  0.26377132163E+02  0.37590434934E+02  0.00000000000E+00 0. -1.
          1    1    1    2  502    0 -0.53238389097E+02 -0.28279370280E+02  0.28258904863E+04  0.28265334050E+04  0.00000000000E+00 0. -1.
         22    1    3    3    0    0 -0.88445267893E+01  0.18706036922E+02  0.38475350663E+03  0.38530948903E+03  0.00000000000E+00 0. -1.
         22    1    3    3    0    0  0.43292449208E+02 -0.95108501292E+01  0.42989828283E+02  0.61748018303E+02  0.00000000000E+00 0. -1.
</event>
<event>
 7    1  0.6235964E-006  0.1329655E+03  0.7818608E-02  0.1418174E+00
          2   -1    0    0  502    0  0.00000000000E+00  0.00000000000E+00  0.14583699605E+03  0.14583699605E+03  0.00000000000E+00 0. -1.
          1   -1    0    0  501    0 -0.00000000000E+00 -0.00000000000E+00 -0.17281888065E+04  0.17281888065E+04  0.00000000000E+00 0. -1.
         25    2    1    2    0    0 -0.11232894069E+03  0.35899195004E+02 -0.56681645686E+02  0.18095273842E+03  0.12499816586E+03 0.  0.
          2    1    1    2  501    0 -0.23033628279E+02  0.16114067204E+01 -0.15502951610E+04  0.15504671009E+04  0.00000000000E+00 0. -1.
          1    1    1    2  502    0  0.13536256897E+03 -0.37510601725E+02  0.24624996224E+02  0.14260596326E+03  0.00000000000E+00 0. -1.
         22    1    3    3    0    0 -0.12235928358E+03  0.35454283165E+02 -0.83498427039E+02  0.15231804815E+03  0.00000000000E+00 0. -1.
         22    1    3    3    0    0  0.10030342894E+02  0.44491183905E+00  0.26816781353E+02  0.28634690277E+02  0.00000000000E+00 0. -1.
</event>
<event>
 7    1  0.6235964E-006  0.7963902E+02  0.7818608E-02  0.1352572E+00
          2   -1    0    0  502    0  0.00000000000E+00  0.00000000000E+00  0.14022920991E+04  0.14022920991E+04  0.00000000000E+00 0. -1.
          1   -1    0    0  501    0 -0.00000000000E+00 -0.00000000000E+00 -0.63462827379E+03  0.63462827379E+03  0.00000000000E+00 0. -1.
         25    2    1    2    0    0  0.89506245610E+02 -0.36568076440E+02  0.22739755792E+03  0.27691429057E+03  0.12499313083E+03 0.  0.
          2    1    1    2  501    0 -0.34312906167E+02  0.71957744128E+02 -0.60632419593E+03  0.61154257664E+03  0.00000000000E+00 0. -1.
          1    1    1    2  502    0 -0.55193339442E+02 -0.35389667688E+02  0.11465904633E+04  0.11484635057E+04  0.00000000000E+00 0. -1.
         22    1    3    3    0    0 -0.29770181362E+02 -0.21686139585E+02  0.40930529562E+02  0.55062333756E+02  0.00000000000E+00 0. -1.
         22    1    3    3    0    0  0.11927642697E+03 -0.14881936855E+02  0.18646702836E+03  0.22185195681E+03  0.00000000000E+00 0. -1.
</event>
<event>
 7    1  0.6235964E-006  0.7325109E+02  0.7818608E-02  0.1387738E+00
          2   -1    0    0  502    0  0.00000000000E+00  0.00000000000E+00  0.61131631762E+03  0.61131631762E+03  0.00000000000E+00 0. -1.
          1   -1    0    0  501    0 -0.00000000000E+00 -0.00000000000E+00 -0.18258765263E+04  0.18258765263E+04  0.00000000000E+00 0. -1.
         25    2    1    2    0    0  0.52951967711E+02 -0.82848413027E+02 -0.13114476996E+03  0.20613473446E+03  0.12499923054E+03 0.  0.
          2    1    1    2  501    0 -0.52382270071E+02  0.97413554753E+01 -0.16544775152E+04  0.16553352061E+04  0.00000000000E+00 0. -1.
          1    1    1    2  502    0 -0.56969763997E+00  0.73107057552E+02  0.57106207642E+03  0.57572290344E+03  0.00000000000E+00 0. -1.
         22    1    3    3    0    0  0.51610171838E+01  0.25055169604E+02 -0.67213824158E+02  0.71917284294E+02  0.00000000000E+00 0. -1.
         22    1    3    3    0    0  0.47790950528E+02 -0.10790358263E+03 -0.63930945802E+02  0.13421745016E+03  0.00000000000E+00 0. -1.
</event>
<event>
 7    1  0.6235964E-006  0.1266930E+03  0.7818608E-02  0.1325074E+00
          2   -1    0    0  502    0  0.00000000000E+00  0.00000000000E+00  0.18674586154E+04  0.18674586154E+04  0.00000000000E+00 0. -1.
          1   -1    0    0  501    0 -0.00000000000E+00 -0.00000000000E+00 -0.77869644695E+03  0.77869644695E+03  0.00000000000E+00 0. -1.
         25    2    1    2    0    0 -0.17112209055E+02 -0.85248831451E+02 -0.29799514587E+03  0.33464274917E+03  0.12499788657E+03 0.  0.
          2    1    1    2  501    0  0.32784462551E+02 -0.40778315997E+02 -0.45870795765E+03  0.46168244764E+03  0.00000000000E+00 0. -1.
          1    1    1    2  502    0 -0.15672253496E+02  0.12602714745E+03  0.18454652719E+04  0.18498298655E+04  0.00000000000E+00 0. -1.
         22    1    3    3    0    0  0.19789686050E+02 -0.38611239878E+02 -0.15683277492E+02  0.46134853546E+02  0.00000000000E+00 0.  1.
         22    1    3    3    0    0 -0.36901895105E+02 -0.46637591574E+02 -0.28231186837E+03  0.28850789562E+03  0.00000000000E+00 0.  1.
</event>
<event>
 7    1  0.6235964E-006  0.4626937E+02  0.7818608E-02  0.1504986E+00
          2   -1    0    0  502    0  0.00000000000E+00  0.00000000000E+00  0.18417383870E+04  0.18417383870E+04  0.00000000000E+00 0. -1.
          1   -1    0    0  501    0 -0.00000000000E+00 -0.00000000000E+00 -0.23272943237E+02  0.23272943237E+02  0.00000000000E+00 0. -1.
         25    2    1    2    0    0 -0.92829857562E+01  0.50757012245E+02  0.52786972633E+03  0.54491600998E+03  0.12499824735E+03 0.  0.
          2    1    1    2  501    0  0.36908875878E+02 -0.28704813214E+02  0.23181462507E+02  0.52188232622E+02  0.00000000000E+00 0. -1.
          1    1    1    2  502    0 -0.27625890122E+02 -0.22052199031E+02  0.12674142549E+04  0.12679070876E+04  0.00000000000E+00 0. -1.
         22    1    3    3    0    0  0.49176849874E+02  0.50685145901E+02  0.20569965791E+03  0.21748493245E+03  0.00000000000E+00 0. -1.
         22    1    3    3    0    0 -0.58459835631E+02  0.71866343215E-01  0.32217006842E+03  0.32743107753E+03  0.00000000000E+00 0. -1.
</event>
<event>
 7    1  0.6235964E-006  0.3720427E+02  0.7818608E-02  0.1556412E+00
          2   -1    0    0  502    0  0.00000000000E+00  0.00000000000E+00  0.30803471254E+03  0.30803471254E+03  0.00000000000E+00 0. -1.
          1   -1    0    0  501    0 -0.00000000000E+00 -0.00000000000E+00 -0.54730044142E+03  0.54730044142E+03  0.00000000000E+00 0. -1.
         25    2    1    2    0    0 -0.23663648483E+02  0.30349692453E+02 -0.92463929321E+02  0.16017135570E+03  0.12499685144E+03 0.  0.
          2    1    1    2  501    0  0.30678599392E+02  0.63076096376E+01 -0.41912566011E+03  0.42029427948E+03  0.00000000000E+00 0. -1.
          1    1    1    2  502    0 -0.70149509084E+01 -0.36657302091E+02  0.27232386055E+03  0.27486951879E+03  0.00000000000E+00 0. -1.
         22    1    3    3    0    0 -0.20257431090E+02  0.48683310716E+02  0.11981900810E+02  0.54073969742E+02  0.00000000000E+00 0. -1.
         22    1    3    3    0    0 -0.34062173937E+01 -0.18333618262E+02 -0.10444583013E+03  0.10609738596E+03  0.00000000000E+00 0. -1.
</event>
<event>
 7    1  0.6235964E-006  0.1319533E+03  0.7818608E-02  0.1264324E+00
          2   -1    0    0  502    0  0.00000000000E+00  0.00000000000E+00  0.69558620038E+03  0.69558620038E+03  0.00000000000E+00 0. -1.
          1   -1    0    0  501    0 -0.00000000000E+00 -0.00000000000E+00 -0.80453894138E+03  0.80453894138E+03  0.00000000000E+00 0. -1.
         25    2    1    2    0    0  0.13299686355E+03 -0.87641565708E+01 -0.34138256441E+02  0.18589540633E+03  0.12500682137E+03 0.  0.
          2    1    1    2  501    0 -0.99122623498E+02  0.90406207594E+02 -0.68482819740E+03  0.69784542473E+03  0.00000000000E+00 0. -1.
          1    1    1    2  502    0 -0.33874240049E+02 -0.81642051023E+02  0.61001371284E+03  0.61638431071E+03  0.00000000000E+00 0. -1.
         22    1    3    3    0    0  0.32861000657E+02  0.21305639085E+02 -0.65869855421E+02  0.76632979024E+02  0.00000000000E+00 0.  1.
         22    1    3    3    0    0  0.10013586289E+03 -0.30069795656E+02  0.31731598980E+02  0.10926242731E+03  0.00000000000E+00 0.  1.
</event>
<event>
 7    1  0.6235964E-006  0.5474213E+02  0.7818608E-02  0.1516800E+00
          2   -1    0    0  502    0  0.00000000000E+00  0.00000000000E+00  0.17987566122E+02  0.17987566122E+02  0.00000000000E+00 0. -1.
          1   -1    0    0  501    0 -0.00000000000E+00 -0.00000000000E+00 -0.15066035910E+04  0.15066035910E+04  0.00000000000E+00 0. -1.
         25    2    1    2    0    0  0.45736750376E+02 -0.42365728010E+02 -0.92468968715E+03  0.93517819857E+03  0.12498215992E+03 0.  0.
          2    1    1    2  501    0 -0.26187383244E+02 -0.86551712174E+01 -0.51599213942E+03  0.51672872861E+03  0.00000000000E+00 0. -1.
          1    1    1    2  502    0 -0.19549367133E+02  0.51020899227E+02 -0.47934198260E+02  0.72684229900E+02  0.00000000000E+00 0. -1.
         22    1    3    3    0    0  0.25367552713E+02  0.41864555517E+02 -0.23338858824E+03  0.23846674163E+03  0.00000000000E+00 0. -1.
         22    1    3    3    0    0  0.20369197664E+02 -0.84230283527E+02 -0.69130109891E+03  0.69671145694E+03  0.00000000000E+00 0. -1.
</event>
<event>
 7    1  0.6235964E-006  0.5294291E+02  0.7818608E-02  0.1473951E+00
          2   -1    0    0  502    0  0.00000000000E+00  0.00000000000E+00  0.66061014051E+03  0.66061014051E+03  0.00000000000E+00 0. -1.
          1   -1    0    0  501    0 -0.00000000000E+00 -0.00000000000E+00 -0.28927438595E+03  0.28927438595E+03  0.00000000000E+00 0. -1.
         25    2    1    2    0    0  0.59534447902E+02  0.10964098099E+02  0.24274752624E+03  0.27964573025E+03  0.12494323119E+03 0.  0.
          2    1    1    2  501    0 -0.12524439645E+02 -0.36252789699E+02 -0.26766859515E+03  0.27040266858E+03  0.00000000000E+00 0. -1.
          1    1    1    2  502    0 -0.47010008256E+02  0.25288691600E+02  0.39625682347E+03  0.39983612762E+03  0.00000000000E+00 0. -1.
         22    1    3    3    0    0  0.62186359145E+02 -0.26316584949E+02  0.23069667771E+03  0.24037608661E+03  0.00000000000E+00 0. -1.
         22    1    3    3    0    0 -0.26519112437E+01  0.37280683048E+02  0.12050848528E+02  0.39269643645E+02  0.00000000000E+00 0. -1.
</event>
<event>
 7    1  0.6235964E-006  0.5557391E+02  0.7818608E-02  0.1444376E+00
          2   -1    0    0  502    0  0.00000000000E+00  0.00000000000E+00  0.78595180516E+03  0.78595180516E+03  0.00000000000E+00 0. -1.
          1   -1    0    0  501    0 -0.00000000000E+00 -0.00000000000E+00 -0.36581081078E+03  0.36581081078E+03  0.00000000000E+00 0. -1.
         25    2    1    2    0    0  0.14299031690E+02 -0.41176317266E+02  0.64871427648E+02  0.14742751367E+03  0.12500647284E+03 0.  0.
          2    1    1    2  501    0 -0.44884040203E+02 -0.61884621798E+01 -0.32177385376E+03  0.32494812985E+03  0.00000000000E+00 0. -1.
          1    1    1    2  502    0  0.30585008513E+02  0.47364779445E+02  0.67704342049E+03  0.67938697243E+03  0.00000000000E+00 0. -1.
         22    1    3    3    0    0  0.48028860160E+01 -0.62603361140E+02  0.92122334371E+02  0.11148440712E+03  0.00000000000E+00 0. -1.
         22    1    3    3    0    0  0.94961456736E+01  0.21427043874E+02 -0.27250906722E+02  0.35943106558E+02  0.00000000000E+00 0. -1.
</event>
<event>
 7    1  0.6235964E-006  0.1596082E+03  0.7818608E-02  0.1374818E+00
          2   -1    0    0  502    0  0.00000000000E+00  0.00000000000E+00  0.11313789414E+04  0.11313789414E+04  0.00000000000E+00 0. -1.
          1   -1    0    0  501    0 -0.00000000000E+00 -0.00000000000E+00 -0.11223693953E+04  0.11223693953E+04  0.00000000000E+00 0. -1.
         25    2    1    2    0    0  0.12260846470E+03  0.84413046782E+02 -0.26846596233E+02  0.19622682414E+03  0.12500331475E+03 0.  0.
          2    1    1    2  501    0 -0.11618130910E+03 -0.11080618382E+03 -0.10042792699E+04  0.10170314444E+04  0.00000000000E+00 0. -1.
          1    1    1    2  502    0 -0.64271556007E+01  0.26393137036E+02  0.10401354123E+04  0.10404900681E+04  0.00000000000E+00 0. -1.
         22    1    3    3    0    0 -0.24054120160E+02  0.61039042471E+01  0.85369071804E+01  0.26243801705E+02  0.00000000000E+00 0. -1.
         22    1    3    3    0    0  0.14666258486E+03  0.78309142535E+02 -0.35383503413E+02  0.16998302243E+03  0.00000000000E+00 0. -1.
</event>
<event>
 7    1  0.6235964E-006  0.1346309E+03  0.7818608E-02  0.1319441E+00
          2   -1    0    0  502    0  0.00000000000E+00  0.00000000000E+00  0.20615231737E+04  0.20615231737E+04  0.00000000000E+00 0. -1.
          1   -1    0    0  501    0 -0.00000000000E+00 -0.00000000000E+00 -0.13421665814E+03  0.13421665814E+03  0.00000000000E+00 0. -1.
         25    2    1    2    0    0 -0.11025201865E+03  0.41261467322E+02  0.38464101292E+03  0.42122576536E+03  0.12499768110E+03 0.  0.
          2    1    1    2  501    0  0.13708850325E+03  0.30099337965E+01 -0.74816055836E+02  0.15620422413E+03  0.00000000000E+00 0. -1.
          1    1    1    2  502    0 -0.26836484598E+02 -0.44271401118E+02  0.16174815585E+04  0.16183098424E+04  0.00000000000E+00 0. -1.
         22    1    3    3    0    0 -0.13756977941E+03  0.32700448636E+02  0.33952634911E+03  0.36779465098E+03  0.00000000000E+00 0. -1.
         22    1    3    3    0    0  0.27317760754E+02  0.85610186862E+01  0.45114663815E+02  0.53431114388E+02  0.00000000000E+00 0. -1.
</event>
<event>
 7    1  0.6235964E-006  0.9000341E+02  0.7818608E-02  0.1366417E+00
          2   -1    0    0  502    0  0.00000000000E+00  0.00000000000E+00  0.10103492125E+04  0.10103492125E+04  0.00000000000E+00 0. -1.
          1   -1    0    0  501    0 -0.00000000000E+00 -0.00000000000E+00 -0.12298753967E+04  0.12298753967E+04  0.00000000000E+00 0. -1.
         25    2    1    2    0    0  0.48617287213E+01  0.39285472147E+02  0.47635586741E+02  0.13950380668E+03  0.12500071290E+03 0.  0.
          2    1    1    2  501    0 -0.19126642690E+02 -0.88914070377E+02 -0.11814650775E+04  0.11849604507E+04  0.00000000000E+00 0. -1.
          1    1    1    2  502    0  0.14264913969E+02  0.49628598230E+02  0.91430330656E+03  0.91576035180E+03  0.00000000000E+00 0. -1.
         22    1    3    3    0    0  0.55301909016E+02 -0.86234763223E+01  0.14257611428E+01  0.55988376290E+02  0.00000000000E+00 0. -1.
         22    1    3    3    0    0 -0.50440180295E+02  0.47908948469E+02  0.46209825598E+02  0.83515430391E+02  0.00000000000E+00 0. -1.
</event>
<event>
 7    1  0.6235964E-006  0.5957816E+02  0.7818608E-02  0.1473866E+00
          2   -1    0    0  502    0  0.00000000000E+00  0.00000000000E+00  0.64998759246E+03  0.64998759246E+03  0.00000000000E+00 0. -1.
          1   -1    0    0  501    0 -0.00000000000E+00 -0.00000000000E+00 -0.40873039007E+04  0.40873039007E+04  0.00000000000E+00 0. -1.
         25    2    1    2    0    0  0.39393680760E+01  0.42957089831E+02 -0.38050863318E+01  0.13228853279E+03  0.12499978815E+03 0.  0.
          2    1    1    2  501    0  0.28888708085E+02 -0.52199765144E+02 -0.40185390586E+04  0.40189819032E+04  0.00000000000E+00 0. -1.
          1    1    1    2  502    0 -0.32828076161E+02  0.92426753130E+01  0.58502783673E+03  0.58602105711E+03  0.00000000000E+00 0. -1.
         22    1    3    3    0    0 -0.12289597111E+02  0.85554198311E+02  0.11175123515E+01  0.86439596712E+02  0.00000000000E+00 0.  1.
         22    1    3    3    0    0  0.16228965187E+02 -0.42597108480E+02 -0.49225986833E+01  0.45848936081E+02  0.00000000000E+00 0.  1.
</event>
<event>
 7    1  0.6235964E-006  0.7737409E+02  0.7818608E-02  0.1411564E+00
          2   -1    0    0  502    0  0.00000000000E+00  0.00000000000E+00  0.22988436153E+04  0.22988436153E+04  0.00000000000E+00 0. -1.
          1   -1    0    0  501    0 -0.00000000000E+00 -0.00000000000E+00 -0.46682655067E+03  0.46682655067E+03  0.00000000000E+00 0. -1.
         25    2    1    2    0    0  0.14085886854E+02  0.37186971487E+02  0.39337423647E+03  0.41466802706E+03  0.12499999876E+03 0.  0.
          2    1    1    2  501    0  0.26599313507E+02  0.32198682531E+02 -0.45436791788E+03  0.45628333679E+03  0.00000000000E+00 0. -1.
          1    1    1    2  502    0 -0.40685200361E+02 -0.69385654018E+02  0.18930107460E+04  0.18947188021E+04  0.00000000000E+00 0. -1.
         22    1    3    3    0    0 -0.46634495126E+02 -0.13769565131E+02  0.10709229058E+03  0.11761435185E+03  0.00000000000E+00 0.  1.
         22    1    3    3    0    0  0.60720381980E+02  0.50956536618E+02  0.28628194589E+03  0.29705367521E+03  0.00000000000E+00 0.  1.
</event>
<event>
 7    1  0.6235964E-006  0.1041600E+03  0.7818608E-02  0.1410989E+00
          2   -1    0    0  502    0  0.00000000000E+00  0.00000000000E+00  0.22835069266E+04  0.22835069266E+04  0.00000000000E+00 0. -1.
          1   -1    0    0  501    0 -0.00000000000E+00 -0.00000000000E+00 -0.71798996883E+02  0.71798996883E+02  0.00000000000E+00 0. -1.
         25    2    1    2    0    0  0.68952549524E+02 -0.35252776548E+02  0.83021805297E+03  0.84313942874E+03  0.12499947393E+03 0.  0.
          2    1    1    2  501    0 -0.85846101544E+02  0.61440275958E+02 -0.22410863118E+02  0.10791991218E+03  0.00000000000E+00 0. -1.
          1    1    1    2  502    0  0.16893552020E+02 -0.26187499410E+02  0.14039007398E+04  0.14042465825E+04  0.00000000000E+00 0. -1.
         22    1    3    3    0    0  0.32892206204E+02  0.10663204808E+02  0.50295711753E+02  0.61034906295E+02  0.00000000000E+00 0.  1.
         22    1    3    3    0    0  0.36060343320E+02 -0.45915981356E+02  0.77992234122E+03  0.78210452245E+03  0.00000000000E+00 0.  1.
</event>
<event>
 7    1  0.6235964E-006  0.6901181E+02  0.7818608E-02  0.1415198E+00
          2   -1    0    0  502    0  0.00000000000E+00  0.00000000000E+00  0.14996018136E+04  0.14996018136E+04  0.00000000000E+00 0. -1.
          1   -1    0    0  501    0 -0.00000000000E+00 -0.00000000000E+00 -0.63173753088E+02  0.63173753088E+02  0.00000000000E+00 0. -1.
         25    2    1    2    0    0 -0.62457894230E+02  0.52353610373E+02  0.75661662308E+03  0.77119115574E+03  0.12500078120E+03 0.  0.
          2    1    1    2  501    0  0.19135357989E+02 -0.66334878652E+02 -0.33558402382E+02  0.76763561809E+02  0.00000000000E+00 0. -1.
          1    1    1    2  502    0  0.43322536241E+02  0.13981268279E+02  0.71336983984E+03  0.71482084917E+03  0.00000000000E+00 0. -1.
         22    1    3    3    0    0 -0.47915375193E+02  0.56865420282E+02  0.18519071562E+03  0.19956242220E+03  0.00000000000E+00 0. -1.
         22    1    3    3    0    0 -0.14542519037E+02 -0.45118099083E+01  0.57142590746E+03  0.57162873354E+03  0.00000000000E+00 0. -1.
</event>
<event>
 7    1  0.6235964E-006  0.4300652E+02  0.7818608E-02  0.1517977E+00
          2   -1    0    0  502    0  0.00000000000E+00  0.00000000000E+00  0.38213317133E+03  0.38213317133E+03  0.00000000000E+00 0. -1.
          1   -1    0    0  501    0 -0.00000000000E+00 -0.00000000000E+00 -0.98453164805E+02  0.98453164805E+02  0.00000000000E+00 0. -1.
         25    2    1    2    0    0  0.47294639207E+02 -0.43938691492E+02  0.20989936610E+03  0.25268572604E+03  0.12499976299E+03 0.  0.
          2    1    1    2  501    0 -0.41568591242E+02  0.95819840765E+01 -0.68896310639E+02  0.81033720242E+02  0.00000000000E+00 0. -1.
          1    1    1    2  502    0 -0.57260479645E+01  0.34356707416E+02  0.14267695107E+03  0.14686688985E+03  0.00000000000E+00 0. -1.
         22    1    3    3    0    0 -0.29541324643E+02 -0.29502109975E+02  0.14557767448E+03  0.15144610811E+03  0.00000000000E+00 0. -1.
         22    1    3    3    0    0  0.76835963850E+02 -0.14436581518E+02  0.64321691627E+02  0.10123961794E+03  0.00000000000E+00 0. -1.
</event>
<event>
 7    1  0.6235964E-006  0.1114861E+03  0.7818608E-02  0.1315301E+00
          2   -1    0    0  502    0  0.00000000000E+00  0.00000000000E+00  0.32457094938E+03  0.32457094938E+03  0.00000000000E+00 0. -1.
          1   -1    0    0  501    0 -0.00000000000E+00 -0.00000000000E+00 -0.10758211483E+04  0.10758211483E+04  0.00000000000E+00 0. -1.
         25    2    1    2    0    0  0.73516435650E+01  0.10930246363E+03 -0.21903361422E+02  0.16764986646E+03  0.12500258103E+03 0.  0.
          2    1    1    2  501    0  0.56391755994E+02 -0.97194939495E+02 -0.97357706270E+03  0.98004039887E+03  0.00000000000E+00 0. -1.
          1    1    1    2  502    0 -0.63743399559E+02 -0.12107524132E+02  0.24423022524E+03  0.25270183230E+03  0.00000000000E+00 0. -1.
         22    1    3    3    0    0  0.53502682073E+02  0.13509233786E+02  0.11156002968E+02  0.56298248540E+02  0.00000000000E+00 0. -1.
         22    1    3    3    0    0 -0.46151038508E+02  0.95793229841E+02 -0.33059364390E+02  0.11135161792E+03  0.00000000000E+00 0. -1.
</event>
<event>
 7    1  0.6235964E-006  0.6040780E+02  0.7818608E-02  0.1399596E+00
          2   -1    0    0  502    0  0.00000000000E+00  0.00000000000E+00  0.16081156259E+04  0.16081156259E+04  0.00000000000E+00 0. -1.
          1   -1    0    0  501    0 -0.00000000000E+00 -0.00000000000E+00 -0.13966319395E+03  0.13966319395E+03  0.00000000000E+00 0. -1.
         25    2    1    2    0    0  0.16060729367E+02  0.26899235279E+02  0.87811155743E+03  0.88752316948E+03  0.12504380508E+03 0.  0.
          2    1    1    2  501    0 -0.59453401941E+02  0.12731610109E+02 -0.12684593542E+03  0.14066517774E+03  0.00000000000E+00 0. -1.
          1    1    1    2  502    0  0.43392672573E+02 -0.39630845388E+02  0.71718680993E+03  0.71959047261E+03  0.00000000000E+00 0. -1.
         22    1    3    3    0    0  0.67486386733E+02 -0.61688625549E+01  0.45985245686E+03  0.46481905010E+03  0.00000000000E+00 0. -1.
         22    1    3    3    0    0 -0.51425657366E+02  0.33068097834E+02  0.41825910057E+03  0.42270411938E+03  0.00000000000E+00 0. -1.
</event>
<event>
 7    1  0.6235964E-006  0.4844119E+02  0.7818608E-02  0.1473057E+00
          2   -1    0    0  502    0  0.00000000000E+00  0.00000000000E+00  0.42075712779E+03  0.42075712779E+03  0.00000000000E+00 0. -1.
          1   -1    0    0  501    0 -0.00000000000E+00 -0.00000000000E+00 -0.20984067977E+03  0.20984067977E+03  0.00000000000E+00 0. -1.
         25    2    1    2    0    0  0.82014766364E+02 -0.20627909723E+02  0.26427667176E+03  0.30433369837E+03  0.12499963268E+03 0.  0.
          2    1    1    2  501    0 -0.41103241670E+02  0.95038977006E+01 -0.18407397025E+03  0.18884657018E+03  0.00000000000E+00 0. -1.
          1    1    1    2  502    0 -0.40911524694E+02  0.11124012022E+02  0.13071374652E+03  0.13741753900E+03  0.00000000000E+00 0. -1.
         22    1    3    3    0    0 -0.12511051908E+02 -0.13844137152E+02 -0.46221236810E+01  0.19223698412E+02  0.00000000000E+00 0. -1.
         22    1    3    3    0    0  0.94525818272E+02 -0.67837725712E+01  0.26889879544E+03  0.28510999996E+03  0.00000000000E+00 0. -1.
</event>
<event>
 7    1  0.6235964E-006  0.8717442E+02  0.7818608E-02  0.1341388E+00
          2   -1    0    0  502    0  0.00000000000E+00  0.00000000000E+00  0.10522544663E+04  0.10522544663E+04  0.00000000000E+00 0. -1.
          1   -1    0    0  501    0 -0.00000000000E+00 -0.00000000000E+00 -0.25179019867E+03  0.25179019867E+03  0.00000000000E+00 0. -1.
         25    2    1    2    0    0 -0.17027104324E+02 -0.24987271198E+02 -0.34596139844E+02  0.13317524772E+03  0.12499787082E+03 0.  0.
          2    1    1    2  501    0  0.17168260139E+02 -0.63648024581E+02 -0.15938584676E+03  0.17248092166E+03  0.00000000000E+00 0. -1.
          1    1    1    2  502    0 -0.14115581443E+00  0.88635295779E+02  0.99444625427E+03  0.99838849564E+03  0.00000000000E+00 0. -1.
         22    1    3    3    0    0  0.72260684014E+01 -0.59429315978E+02 -0.59363266710E+02  0.84309294248E+02  0.00000000000E+00 0.  1.
         22    1    3    3    0    0 -0.24253172726E+02  0.34442044780E+02  0.24767126866E+02  0.48865953476E+02  0.00000000000E+00 0.  1.
</event>
<event>
 7    1  0.6235964E-006  0.5100661E+02  0.7818608E-02  0.1548417E+00
          2   -1    0    0  502    0  0.00000000000E+00  0.00000000000E+00  0.13781629504E+04  0.13781629504E+04  0.00000000000E+00 0. -1.
          1   -1    0    0  501    0 -0.00000000000E+00 -0.00000000000E+00 -0.44410882090E+03  0.44410882090E+03  0.00000000000E+00 0. -1.
         25    2    1    2    0    0 -0.39463224886E+02  0.63250363525E+02  0.73356709446E+02  0.16298109358E+03  0.12499470164E+03 0.  0.
          2    1    1    2  501    0  0.14978744912E+02 -0.18809451643E+02 -0.39842321979E+03  0.39914811829E+03  0.00000000000E+00 0. -1.
          1    1    1    2  502    0  0.24484479974E+02 -0.44440911882E+02  0.12591206398E+04  0.12601425594E+04  0.00000000000E+00 0. -1.
         22    1    3    3    0    0  0.90766307795E+01  0.26654278520E+02  0.94510625534E+02  0.98615891866E+02  0.00000000000E+00 0.  1.
         22    1    3    3    0    0 -0.48539855666E+02  0.36596085005E+02 -0.21153916088E+02  0.64365201713E+02  0.00000000000E+00 0.  1.
</event>
<event>
 7    1  0.6235964E-006  0.2743771E+03  0.7818608E-02  0.1338039E+00
          2   -1    0    0  502    0  0.00000000000E+00  0.00000000000E+00  0.42073040993E+03  0.42073040993E+03  0.00000000000E+00 0. -1.
          1   -1    0    0  501    0 -0.00000000000E+00 -0.00000000000E+00 -0.16592355745E+04  0.16592355745E+04  0.00000000000E+00 0. -1.
         25    2    1    2    0    0  0.23544009890E+03  0.14921515444E+03 -0.47269904490E+03  0.56282115532E+03  0.12500425329E+03 0.  0.
          2    1    1    2  501    0  0.65054966151E+01 -0.20556801696E+02 -0.10913835897E+04  0.10915965570E+04  0.00000000000E+00 0. -1.
          1    1    1    2  502    0 -0.24194559552E+03 -0.12865835274E+03  0.32557746997E+03  0.42554827208E+03  0.00000000000E+00 0. -1.
         22    1    3    3    0    0  0.10824351877E+03  0.65508692386E+02 -0.10353050746E+03  0.16348276395E+03  0.00000000000E+00 0.  1.
         22    1    3    3    0    0  0.12719658013E+03  0.83706462050E+02 -0.36916853744E+03  0.39933839137E+03  0.00000000000E+00 0.  1.
</event>
<event>
 7    1  0.6235964E-006  0.1177920E+03  0.7818608E-02  0.1445454E+00
          2   -1    0    0  502    0  0.00000000000E+00  0.00000000000E+00  0.22651961681E+03  0.22651961681E+03  0.00000000000E+00 0. -1.
          1   -1    0    0  501    0 -0.00000000000E+00 -0.00000000000E+00 -0.36808523568E+03  0.36808523568E+03  0.00000000000E+00 0. -1.
         25    2    1    2    0    0 -0.32314745567E+02  0.12843368094E+03 -0.39824575036E+02  0.18641454346E+03  0.12499972822E+03 0.  0.
          2    1    1    2  501    0  0.16722585470E+02 -0.11406067875E+03 -0.24109173410E+03  0.26723530372E+03  0.00000000000E+00 0. -1.
          1    1    1    2  502    0  0.15592160097E+02 -0.14373002184E+02  0.13935069026E+03  0.14095500531E+03  0.00000000000E+00 0. -1.
         22    1    3    3    0    0 -0.59642348001E+02  0.20188512210E+02 -0.40324455895E+02  0.74771969638E+02  0.00000000000E+00 0. -1.
         22    1    3    3    0    0  0.27327602434E+02  0.10824516873E+03  0.49988085847E+00  0.11164257382E+03  0.00000000000E+00 0. -1.
</event>
<event>
 7    1  0.6235964E-006  0.1487065E+03  0.7818608E-02  0.1334745E+00
          2   -1    0    0  502    0  0.00000000000E+00  0.00000000000E+00  0.71500356391E+03  0.71500356391E+03  0.00000000000E+00 0. -1.
          1   -1    0    0  501    0 -0.00000000000E+00 -0.00000000000E+00 -0.20136972081E+04  0.20136972081E+04  0.00000000000E+00 0. -1.
         25    2    1    2    0    0  0.13794656306E+03  0.18196503114E+02 -0.10222992910E+03  0.21315591282E+03  0.12499647108E+03 0.  0.
          2    1    1    2  501    0 -0.64988342179E+00  0.40936224119E+02 -0.18473038662E+04  0.18477574978E+04  0.00000000000E+00 0. -1.
          1    1    1    2  502    0 -0.13729667963E+03 -0.59132727233E+02  0.65084015111E+03  0.66778736134E+03  0.00000000000E+00 0. -1.
         22    1    3    3    0    0  0.35951539808E+02  0.44866623005E+02  0.10900965332E+02  0.58518015342E+02  0.00000000000E+00 0.  1.
         22    1    3    3    0    0  0.10199502325E+03 -0.26670119891E+02 -0.11313089443E+03  0.15463789748E+03  0.00000000000E+00 0.  1.
</event>
<event>
 7    1  0.6235964E-006  0.5057600E+02  0.7818608E-02  0.1531209E+00
          2   -1    0    0  502    0  0.00000000000E+00  0.00000000000E+00  0.34087435879E+03  0.34087435879E+03  0.00000000000E+00 0. -1.
          1   -1    0    0  501    0 -0.00000000000E+00 -0.00000000000E+00 -0.22126882921E+03  0.22126882921E+03  0.00000000000E+00 0. -1.
         25    2    1    2    0    0 -0.17907083853E+02 -0.22577555264E+02 -0.15252600930E+02  0.12918308764E+03  0.12500087457E+03 0.  0.
          2    1    1    2  501    0  0.39432232995E+01 -0.26836459422E+02 -0.14546521129E+03  0.14797253887E+03  0.00000000000E+00 0. -1.
          1    1    1    2  502    0  0.13963860553E+02  0.49414014686E+02  0.28032334180E+03  0.28498756149E+03  0.00000000000E+00 0. -1.
         22    1    3    3    0    0 -0.12821769665E+02 -0.14049074204E+02 -0.70515264251E+02  0.73035448624E+02  0.00000000000E+00 0.  1.
         22    1    3    3    0    0 -0.50853141880E+01 -0.85284810603E+01  0.55262663321E+02  0.56147639014E+02  0.00000000000E+00 0.  1.
</event>
<event>
 7    1  0.6235964E-006  0.9854829E+02  0.7818608E-02  0.1303417E+00
          2   -1    0    0  502    0  0.00000000000E+00  0.00000000000E+00  0.34215457045E+03  0.34215457045E+03  0.00000000000E+00 0. -1.
          1   -1    0    0  501    0 -0.00000000000E+00 -0.00000000000E+00 -0.13037282976E+04  0.13037282976E+04  0.00000000000E+00 0. -1.
         25    2    1    2    0    0  0.74666237304E+01  0.32287708129E+02 -0.75397585421E+03  0.76498548770E+03  0.12499984435E+03 0.  0.
          2    1    1    2  501    0 -0.66535395524E+02  0.47530199751E+02 -0.53374358337E+03  0.53997063951E+03  0.00000000000E+00 0. -1.
          1    1    1    2  502    0  0.59068771794E+02 -0.79817907880E+02  0.32614571040E+03  0.34092674086E+03  0.00000000000E+00 0. -1.
         22    1    3    3    0    0 -0.55719838696E+02  0.19794939476E+02 -0.24933640027E+03  0.25625218156E+03  0.00000000000E+00 0.  1.
         22    1    3    3    0    0  0.63186462427E+02  0.12492768653E+02 -0.50463945394E+03  0.50873330614E+03  0.00000000000E+00 0.  1.
</event>
<event>
 7    1  0.6235964E-006  0.1930516E+03  0.7818608E-02  0.1176380E+00
          2   -1    0    0  502    0  0.00000000000E+00  0.00000000000E+00  0.46209850898E+02  0.46209850898E+02  0.00000000000E+00 0. -1.
          1   -1    0    0  501    0 -0.00000000000E+00 -0.00000000000E+00 -0.44085309766E+04  0.44085309766E+04  0.00000000000E+00 0. -1.
         25    2    1    2    0    0  0.83145913054E+02  0.37005909753E+02 -0.68643475585E+03  0.70363380992E+03  0.12500073680E+03 0.  0.
          2    1    1    2  501    0 -0.23017288066E+03 -0.76363041417E+02 -0.35362441925E+04  0.35445498809E+04  0.00000000000E+00 0. -1.
          1    1    1    2  502    0  0.14702696760E+03  0.39357131664E+02 -0.13964217727E+03  0.20655713661E+03  0.00000000000E+00 0. -1.
         22    1    3    3    0    0 -0.18219226873E+01 -0.39584753995E+02 -0.15074633279E+03  0.15586766502E+03  0.00000000000E+00 0. -1.
         22    1    3    3    0    0  0.84967835741E+02  0.76590663748E+02 -0.53568842306E+03  0.54776614489E+03  0.00000000000E+00 0. -1.
</event>
<event>
 7    1  0.6519640E-006  0.6801813E+02  0.7818608E-02  0.1461137E+00
          2   -1    0    0  502    0  0.00000000000E+00  0.00000000000E+00  0.96706910457E+03  0.96706910457E+03  0.00000000000E+00 0. -1.
          1   -1    0    0  501    0 -0.00000000000E+00 -0.00000000000E+00 -0.20216305851E+04  0.20216305851E+04  0.00000000000E+00 0. -1.
         25    2    1    2    0    0 -0.17990997598E+02  0.89004536706E+02 -0.13367970153E+03  0.20430513686E+03  0.12499937119E+03 0.  0.
          2    1    1    2  501    0 -0.14444958661E+02 -0.29375027576E+02 -0.18512569668E+04  0.18515463554E+04  0.00000000000E+00 0. -1.
          1    1    1    2  502    0  0.32435956259E+02 -0.59629509130E+02  0.93037518772E+03  0.93284819749E+03  0.00000000000E+00 0. -1.
         22    1    3    3    0    0  0.20130493077E+02 -0.25453129624E+02 -0.17731754601E+02  0.36979909145E+02  0.00000000000E+00 0.  1.
         22    1    3    3    0    0 -0.38121490675E+02  0.11445766633E+03 -0.11594794693E+03  0.16732522772E+03  0.00000000000E+00 0.  1.
</event>
<event>
 7    1  0.6235964E-006  0.1172639E+03  0.7818608E-02  0.1281657E+00
          2   -1    0    0  502    0  0.00000000000E+00  0.00000000000E+00  0.63058519479E+03  0.63058519479E+03  0.00000000000E+00 0. -1.
          1   -1    0    0  501    0 -0.00000000000E+00 -0.00000000000E+00 -0.21576550188E+04  0.21576550188E+04  0.00000000000E+00 0. -1.
         25    2    1    2    0    0 -0.61194535084E+02 -0.80448131808E+02 -0.14114020556E+04  0.14205271955E+04  0.12500031021E+03 0.  0.
          2    1    1    2  501    0  0.23802573357E+02  0.15587010578E+03 -0.73040908529E+03  0.74723455772E+03  0.00000000000E+00 0. -1.
          1    1    1    2  502    0  0.37391961727E+02 -0.75421973972E+02  0.61474131694E+03  0.62047846031E+03  0.00000000000E+00 0. -1.
         22    1    3    3    0    0 -0.67632369182E+02 -0.71635035523E+01 -0.34800105275E+03  0.35458452569E+03  0.00000000000E+00 0.  1.
         22    1    3    3    0    0  0.64378340980E+01 -0.73284628256E+02 -0.10634010029E+04  0.10659426698E+04  0.00000000000E+00 0.  1.
</event>
<event>
 7    1  0.6235964E-006  0.7952372E+02  0.7818608E-02  0.1346307E+00
          2   -1    0    0  502    0  0.00000000000E+00  0.00000000000E+00  0.60355273539E+03  0.60355273539E+03  0.00000000000E+00 0. -1.
          1   -1    0    0  501    0 -0.00000000000E+00 -0.00000000000E+00 -0.22348362803E+03  0.22348362803E+03  0.00000000000E+00 0. -1.
         25    2    1    2    0    0 -0.17827064933E+02 -0.10273812202E+03 -0.24777289036E+02  0.16465734632E+03  0.12500080674E+03 0.  0.
          2    1    1    2  501    0 -0.44388971742E+02  0.53175988373E+02 -0.11620896267E+03  0.13528706353E+03  0.00000000000E+00 0. -1.
          1    1    1    2  502    0  0.62216036676E+02  0.49562133644E+02  0.52105535907E+03  0.52709195358E+03  0.00000000000E+00 0. -1.
         22    1    3    3    0    0  0.75759986034E+01 -0.12666388693E+03 -0.11845693984E+02  0.12744197296E+03  0.00000000000E+00 0. -1.
         22    1    3    3    0    0 -0.25403063537E+02  0.23925764912E+02 -0.12931595052E+02  0.37215373359E+02  0.00000000000E+00 0. -1.
</event>
<event>
 7    1  0.6235964E-006  0.1572718E+03  0.7818608E-02  0.1261728E+00
          2   -1    0    0  502    0  0.00000000000E+00  0.00000000000E+00  0.46268406441E+03  0.46268406441E+03  0.00000000000E+00 0. -1.
          1   -1    0    0  501    0 -0.00000000000E+00 -0.00000000000E+00 -0.12505337885E+04  0.12505337885E+04  0.00000000000E+00 0. -1.
         25    2    1    2    0    0  0.12658407821E+03  0.12963318774E+03  0.14033293452E+03  0.26104808846E+03  0.12499791902E+03 0.  0.
          2    1    1    2  501    0 -0.14664806680E+03 -0.56259178222E+02 -0.11793360234E+04  0.11897496404E+04  0.00000000000E+00 0. -1.
          1    1    1    2  502    0  0.20063988583E+02 -0.73374009516E+02  0.25115336476E+03  0.26242012412E+03  0.00000000000E+00 0. -1.
         22    1    3    3    0    0 -0.20100726698E+02  0.47924185736E+02  0.28028735329E+02  0.59045548489E+02  0.00000000000E+00 0.  1.
         22    1    3    3    0    0  0.14668480491E+03  0.81709002003E+02  0.11230419919E+03  0.20200253997E+03  0.00000000000E+00 0.  1.
</event>
<event>
 7    1  0.6235964E-006  0.8700793E+02  0.7818608E-02  0.1321689E+00
          2   -1    0    0  502    0  0.00000000000E+00  0.00000000000E+00  0.18853131972E+03  0.18853131972E+03  0.00000000000E+00 0. -1.
          1   -1    0    0  501    0 -0.00000000000E+00 -0.00000000000E+00 -0.13508391403E+04  0.13508391403E+04  0.00000000000E+00 0. -1.
         25    2    1    2    0    0 -0.26306557195E+02 -0.43804830043E+01  0.45273983164E+02  0.13559441706E+03  0.12499955522E+03 0.  0.
          2    1    1    2  501    0  0.30554130999E+02  0.82779749834E+02 -0.12882140326E+04  0.12912325258E+04  0.00000000000E+00 0. -1.
          1    1    1    2  502    0 -0.42475738038E+01 -0.78399266830E+02  0.80632228860E+02  0.11254351715E+03  0.00000000000E+00 0. -1.
         22    1    3    3    0    0 -0.34069070763E+02 -0.43972535031E+02 -0.19785591180E+02  0.59040283181E+02  0.00000000000E+00 0. -1.
         22    1    3    3    0    0  0.77625135687E+01  0.39592052027E+02  0.65059574343E+02  0.76554133881E+02  0.00000000000E+00 0. -1.
</event>
<event>
 7    1  0.6235964E-006  0.1213376E+03  0.7818608E-02  0.1290863E+00
          2   -1    0    0  502    0  0.00000000000E+00  0.00000000000E+00  0.55569607614E+03  0.55569607614E+03  0.00000000000E+00 0. -1.
          1   -1    0    0  501    0 -0.00000000000E+00 -0.00000000000E+00 -0.29064859829E+03  0.29064859829E+03  0.00000000000E+00 0. -1.
         25    2    1    2    0    0 -0.58731055679E+02  0.10006389872E+03  0.26894142072E+03  0.31846037047E+03  0.12500159622E+03 0.  0.
          2    1    1    2  501    0  0.66628917983E+02  0.33546411218E+02 -0.24282172317E+03  0.25402197476E+03  0.00000000000E+00 0. -1.
          1    1    1    2  502    0 -0.78978623033E+01 -0.13361030994E+03  0.23892778031E+03  0.27386232919E+03  0.00000000000E+00 0. -1.
         22    1    3    3    0    0  0.14021268938E+02 -0.16573226483E+02  0.91279133286E+02  0.93825092550E+02  0.00000000000E+00 0. -1.
         22    1    3    3    0    0 -0.72752324617E+02  0.11663712520E+03  0.17766228743E+03  0.22463527792E+03  0.00000000000E+00 0. -1.
</event>
<event>
 7    1  0.6235964E-006  0.1348064E+03  0.7818608E-02  0.1258564E+00
          2   -1    0    0  502    0  0.00000000000E+00  0.00000000000E+00  0.84024900208E+03  0.84024900208E+03  0.00000000000E+00 0. -1.
          1   -1    0    0  501    0 -0.00000000000E+00 -0.00000000000E+00 -0.15343588678E+04  0.15343588678E+04  0.00000000000E+00 0. -1.
         25    2    1    2    0    0  0.29463635746E+02 -0.18502934839E+03 -0.98920864653E+02  0.24599665745E+03  0.12500020966E+03 0.  0.
          2    1    1    2  501    0 -0.70896242703E+02  0.57918052257E+02 -0.13545151566E+04  0.13576052767E+04  0.00000000000E+00 0. -1.
          1    1    1    2  502    0  0.41432606957E+02  0.12711129614E+03  0.75932615548E+03  0.77100593572E+03  0.00000000000E+00 0. -1.
         22    1    3    3    0    0  0.56351029244E+02 -0.16394359509E+03 -0.40043461677E+02  0.17792251036E+03  0.00000000000E+00 0.  1.
         22    1    3    3    0    0 -0.26887393498E+02 -0.21085753303E+02 -0.58877402976E+02  0.68074147095E+02  0.00000000000E+00 0.  1.
</event>
<event>
 7    1  0.6235964E-006  0.1390612E+03  0.7818608E-02  0.1272474E+00
          2   -1    0    0  502    0  0.00000000000E+00  0.00000000000E+00  0.27443375440E+03  0.27443375440E+03  0.00000000000E+00 0. -1.
          1   -1    0    0  501    0 -0.00000000000E+00 -0.00000000000E+00 -0.19469910956E+03  0.19469910956E+03  0.00000000000E+00 0. -1.
         25    2    1    2    0    0  0.12965213392E+03  0.77199446376E+02  0.86326110037E+02  0.21411739074E+03  0.12499851756E+03 0.  0.
          2    1    1    2  501    0 -0.63033025131E+02  0.45091716135E+02 -0.67730089612E+02  0.10292613934E+03  0.00000000000E+00 0. -1.
          1    1    1    2  502    0 -0.66619108785E+02 -0.12229116251E+03  0.61138624413E+02  0.15208933388E+03  0.00000000000E+00 0. -1.
         22    1    3    3    0    0  0.23202324147E+02 -0.29360562333E+02  0.43798153643E+02  0.57607887731E+02  0.00000000000E+00 0.  1.
         22    1    3    3    0    0  0.10644980977E+03  0.10656000871E+03  0.42527956394E+02  0.15650950300E+03  0.00000000000E+00 0.  1.
</event>
<event>
 7    1  0.6235964E-006  0.1062235E+03  0.7818608E-02  0.1330882E+00
          2   -1    0    0  502    0  0.00000000000E+00  0.00000000000E+00  0.21043609181E+03  0.21043609181E+03  0.00000000000E+00 0. -1.
          1   -1    0    0  501    0 -0.00000000000E+00 -0.00000000000E+00 -0.23655169653E+04  0.23655169653E+04  0.00000000000E+00 0. -1.
         25    2    1    2    0    0 -0.95905822614E+02 -0.29111912757E+02 -0.11617768276E+02  0.16064292681E+03  0.12500298844E+03 0.  0.
          2    1    1    2  501    0  0.10233553975E+03 -0.29826312637E+02 -0.22716117211E+04  0.22741112513E+04  0.00000000000E+00 0. -1.
          1    1    1    2  502    0 -0.64297171319E+01  0.58938225395E+02  0.12814861591E+03  0.14119887902E+03  0.00000000000E+00 0. -1.
         22    1    3    3    0    0 -0.30406160758E+02 -0.27666157777E+02 -0.64473595339E+02  0.76464340670E+02  0.00000000000E+00 0.  1.
         22    1    3    3    0    0 -0.65499661856E+02 -0.14457549809E+01  0.52855827063E+02  0.84178586144E+02  0.00000000000E+00 0.  1.
</event>
<event>
 7    1  0.6235964E-006  0.5771248E+02  0.7818608E-02  0.1432103E+00
          2   -1    0    0  502    0  0.00000000000E+00  0.00000000000E+00  0.16825065993E+04  0.16825065993E+04  0.00000000000E+00 0. -1.
          1   -1    0    0  501    0 -0.00000000000E+00 -0.00000000000E+00 -0.36505226359E+03  0.36505226359E+03  0.00000000000E+00 0. -1.
         25    2    1    2    0    0  0.10360581793E+03 -0.10489555516E+02  0.24696402078E+02  0.16455813802E+03  0.12500108891E+03 0.  0.
          2    1    1    2  501    0 -0.56278622939E+02  0.35634208714E+01 -0.29206349149E+03  0.29745766830E+03  0.00000000000E+00 0. -1.
          1    1    1    2  502    0 -0.47327194990E+02  0.69261346448E+01  0.15848214251E+04  0.15855430566E+04  0.00000000000E+00 0. -1.
         22    1    3    3    0    0 -0.21377882267E+02  0.24621467812E+02  0.12152932093E+01  0.32629855424E+02  0.00000000000E+00 0.  1.
         22    1    3    3    0    0  0.12498370020E+03 -0.35111023328E+02  0.23481108869E+02  0.13192828259E+03  0.00000000000E+00 0.  1.
</event>
<event>
 7    1  0.6235964E-006  0.7057809E+02  0.7818608E-02  0.1378265E+00
          2   -1    0    0  502    0  0.00000000000E+00  0.00000000000E+00  0.38353062182E+03  0.38353062182E+03  0.00000000000E+00 0. -1.
          1   -1    0    0  501    0 -0.00000000000E+00 -0.00000000000E+00 -0.19608392832E+03  0.19608392832E+03  0.00000000000E+00 0. -1.
         25    2    1    2    0    0  0.17289807355E+02  0.72959787846E+02 -0.13800487281E+03  0.20073067950E+03  0.12500157075E+03 0.  0.
          2    1    1    2  501    0  0.45164428437E+02 -0.39071011236E+02  0.16627465605E+02  0.61990661615E+02  0.00000000000E+00 0. -1.
          1    1    1    2  502    0 -0.62454235791E+02 -0.33888776610E+02  0.30882410071E+03  0.31689320903E+03  0.00000000000E+00 0. -1.
         22    1    3    3    0    0  0.47142765444E+02  0.83388658335E+01 -0.11715087007E+03  0.12655553475E+03  0.00000000000E+00 0. -1.
         22    1    3    3    0    0 -0.29852958089E+02  0.64620922012E+02 -0.20854002746E+02  0.74175144751E+02  0.00000000000E+00 0. -1.
</event>
<event>
 7    1  0.6235964E-006  0.1543691E+03  0.7818608E-02  0.1272735E+00
          2   -1    0    0  502    0  0.00000000000E+00  0.00000000000E+00  0.40743467967E+04  0.40743467967E+04  0.00000000000E+00 0. -1.
          1   -1    0    0  501    0 -0.00000000000E+00 -0.00000000000E+00 -0.69227340443E+03  0.69227340443E+03  0.00000000000E+00 0. -1.
         25    2    1    2    0    0 -0.18665407842E+03  0.40749388702E+01 -0.20211828599E+03  0.30221652676E+03  0.12500670941E+03 0.  0.
          2    1    1    2  501    0  0.43808031051E+02  0.54135195265E+02 -0.43586269902E+03  0.44139104584E+03  0.00000000000E+00 0. -1.
          1    1    1    2  502    0  0.14284604737E+03 -0.58210134135E+02  0.40200543773E+04  0.40230126285E+04  0.00000000000E+00 0. -1.
         22    1    3    3    0    0 -0.61260483155E+02  0.35897796162E+02 -0.11627426832E+02  0.71949257261E+02  0.00000000000E+00 0. -1.
         22    1    3    3    0    0 -0.12539359527E+03 -0.31822857292E+02 -0.19049085916E+03  0.23026726950E+03  0.00000000000E+00 0. -1.
</event>
<event>
 7    1  0.6235964E-006  0.1237282E+03  0.7818608E-02  0.1365306E+00
          2   -1    0    0  502    0  0.00000000000E+00  0.00000000000E+00  0.10243288352E+04  0.10243288352E+04  0.00000000000E+00 0. -1.
          1   -1    0    0  501    0 -0.00000000000E+00 -0.00000000000E+00 -0.50179021881E+03  0.50179021881E+03  0.00000000000E+00 0. -1.
         25    2    1    2    0    0 -0.15363260809E+03  0.14148589957E+02  0.43219003175E+02  0.20321637343E+03  0.12500340527E+03 0.  0.
          2    1    1    2  501    0  0.12150409368E+03  0.59784816390E+01 -0.41260895335E+03  0.43016872900E+03  0.00000000000E+00 0. -1.
          1    1    1    2  502    0  0.32128514408E+02 -0.20127071596E+02  0.89192856653E+03  0.89273395154E+03  0.00000000000E+00 0. -1.
         22    1    3    3    0    0  0.20972918717E+02 -0.82095169422E+01  0.41448748212E+01  0.22900643554E+02  0.00000000000E+00 0.  1.
         22    1    3    3    0    0 -0.17460552681E+03  0.22358106899E+02  0.39074128354E+02  0.18031572988E+03  0.00000000000E+00 0.  1.
</event>
<event>
 7    1  0.6235964E-006  0.7348604E+02  0.7818608E-02  0.1382831E+00
          2   -1    0    0  502    0  0.00000000000E+00  0.00000000000E+00  0.81860938611E+03  0.81860938611E+03  0.00000000000E+00 0. -1.
          1   -1    0    0  501    0 -0.00000000000E+00 -0.00000000000E+00 -0.70892099690E+03  0.70892099690E+03  0.00000000000E+00 0. -1.
         25    2    1    2    0    0 -0.36883932151E+01  0.24630106614E+02 -0.90786926011E+01  0.12778389185E+03  0.12500421577E+03 0.  0.
          2    1    1    2  501    0 -0.44608607818E+02  0.32616829684E+02 -0.63744422670E+03  0.63983507846E+03  0.00000000000E+00 0. -1.
          1    1    1    2  502    0  0.48297001033E+02 -0.57246936298E+02  0.75621130851E+03  0.75991141270E+03  0.00000000000E+00 0. -1.
         22    1    3    3    0    0  0.29435868476E+02  0.59028882403E+02  0.23447344981E+02  0.70004694824E+02  0.00000000000E+00 0.  1.
         22    1    3    3    0    0 -0.33124261691E+02 -0.34398775790E+02 -0.32526037582E+02  0.57779197028E+02  0.00000000000E+00 0.  1.
</event>
<event>
 7    1  0.6235964E-006  0.1543431E+03  0.7818608E-02  0.1324938E+00
          2   -1    0    0  502    0  0.00000000000E+00  0.00000000000E+00  0.11225179870E+04  0.11225179870E+04  0.00000000000E+00 0. -1.
          1   -1    0    0  501    0 -0.00000000000E+00 -0.00000000000E+00 -0.29493684139E+04  0.29493684139E+04  0.00000000000E+00 0. -1.
         25    2    1    2    0    0 -0.14047063472E+03  0.83679494093E+02 -0.22510317396E+03  0.30500938051E+03  0.12500010528E+03 0.  0.
          2    1    1    2  501    0 -0.81247828008E+01 -0.42226522556E+02 -0.26786427311E+04  0.26789878634E+04  0.00000000000E+00 0. -1.
          1    1    1    2  502    0  0.14859541752E+03 -0.41452971536E+02  0.10768954782E+04  0.10878891570E+04  0.00000000000E+00 0. -1.
         22    1    3    3    0    0 -0.16050193362E+03  0.73098740769E+02 -0.21967963726E+03  0.28171517464E+03  0.00000000000E+00 0. -1.
         22    1    3    3    0    0  0.20031298899E+02  0.10580753324E+02 -0.54235367027E+01  0.23294205864E+02  0.00000000000E+00 0. -1.
</event>
<event>
 7    1  0.6235964E-006  0.8983277E+02  0.7818608E-02  0.1355242E+00
          2   -1    0    0  502    0  0.00000000000E+00  0.00000000000E+00  0.46880553421E+03  0.46880553421E+03  0.00000000000E+00 0. -1.
          1   -1    0    0  501    0 -0.00000000000E+00 -0.00000000000E+00 -0.32815045960E+03  0.32815045960E+03  0.00000000000E+00 0. -1.
         25    2    1    2    0    0  0.38512682699E+02 -0.11640086111E+02  0.44017342456E+02  0.13849601049E+03  0.12499960061E+03 0.  0.
          2    1    1    2  501    0  0.48991652780E+02 -0.28787125952E+02 -0.27177199821E+03  0.27764887839E+03  0.00000000000E+00 0. -1.
          1    1    1    2  502    0 -0.87504335479E+02  0.40427212063E+02  0.36840973037E+03  0.38081110492E+03  0.00000000000E+00 0. -1.
         22    1    3    3    0    0  0.86017970302E+00 -0.58922263257E+02 -0.70756060829E+01  0.59351808885E+02  0.00000000000E+00 0.  1.
         22    1    3    3    0    0  0.37652502996E+02  0.47282177146E+02  0.51092948539E+02  0.79144201607E+02  0.00000000000E+00 0.  1.
</event>
<event>
 7    1  0.6353562E-006  0.1560258E+03  0.7818608E-02  0.1280486E+00
          2   -1    0    0  502    0  0.00000000000E+00  0.00000000000E+00  0.28813666498E+04  0.28813666498E+04  0.00000000000E+00 0. -1.
          1   -1    0    0  501    0 -0.00000000000E+00 -0.00000000000E+00 -0.81931940229E+03  0.81931940229E+03  0.00000000000E+00 0. -1.
         25    2    1    2    0    0  0.11953746176E+03  0.12466977348E+03 -0.20244824871E+03  0.29401244035E+03  0.12500505787E+03 0.  0.
          2    1    1    2  501    0 -0.58253303969E+02 -0.14303406275E+03 -0.56027869971E+03  0.58117502689E+03  0.00000000000E+00 0. -1.
          1    1    1    2  502    0 -0.61284157789E+02  0.18364289269E+02  0.28247741959E+04  0.28254985848E+04  0.00000000000E+00 0. -1.
         22    1    3    3    0    0  0.13321661038E+02  0.64470839303E+02 -0.14466467059E+03  0.15893968255E+03  0.00000000000E+00 0. -1.
         22    1    3    3    0    0  0.10621580072E+03  0.60198934180E+02 -0.57783578119E+02  0.13507275780E+03  0.00000000000E+00 0. -1.
</event>
<event>
 7    1  0.6235964E-006  0.1140189E+03  0.7818608E-02  0.1350783E+00
          2   -1    0    0  502    0  0.00000000000E+00  0.00000000000E+00  0.26444111923E+03  0.26444111923E+03  0.00000000000E+00 0. -1.
          1   -1    0    0  501    0 -0.00000000000E+00 -0.00000000000E+00 -0.36756015620E+03  0.36756015620E+03  0.00000000000E+00 0. -1.
         25    2    1    2    0    0  0.47745377899E+02 -0.80053183601E+02  0.10062726033E+03  0.18558105535E+03  0.12500539694E+03 0.  0.
          2    1    1    2  501    0 -0.16856594760E+02  0.11480808222E+03 -0.30969332745E+03  0.33071891025E+03  0.00000000000E+00 0. -1.
          1    1    1    2  502    0 -0.30888783139E+02 -0.34754898615E+02  0.10594703015E+03  0.11570130984E+03  0.00000000000E+00 0. -1.
         22    1    3    3    0    0 -0.85614701509E+01  0.17216972045E+02 -0.14957924411E+02  0.24361083725E+02  0.00000000000E+00 0.  1.
         22    1    3    3    0    0  0.56306848049E+02 -0.97270155647E+02  0.11558518474E+03  0.16121997162E+03  0.00000000000E+00 0.  1.
</event>
<event>
 7    1  0.6235964E-006  0.1020241E+03  0.7818608E-02  0.1303915E+00
          2   -1    0    0  502    0  0.00000000000E+00  0.00000000000E+00  0.14487801907E+04  0.14487801907E+04  0.00000000000E+00 0. -1.
          1   -1    0    0  501    0 -0.00000000000E+00 -0.00000000000E+00 -0.31818719617E+03  0.31818719617E+03  0.00000000000E+00 0. -1.
         25    2    1    2    0    0 -0.10774889618E+02 -0.35921297576E+02  0.16413160086E+03  0.20968982935E+03  0.12499681702E+03 0.  0.
          2    1    1    2  501    0 -0.67586581251E+02 -0.40169047134E+02 -0.28776085997E+03  0.29830824804E+03  0.00000000000E+00 0. -1.
          1    1    1    2  502    0  0.78361470869E+02  0.76090344709E+02  0.12542222536E+04  0.12589693095E+04  0.00000000000E+00 0. -1.
         22    1    3    3    0    0  0.54207549413E+02 -0.66385158710E+01  0.44552962497E+02  0.70480456678E+02  0.00000000000E+00 0. -1.
         22    1    3    3    0    0 -0.64982439031E+02 -0.29282781705E+02  0.11957863836E+03  0.13920937267E+03  0.00000000000E+00 0. -1.
</event>
<event>
 7    1  0.6235964E-006  0.2373666E+03  0.7818608E-02  0.1282573E+00
          2   -1    0    0  502    0  0.00000000000E+00  0.00000000000E+00  0.12177085893E+03  0.12177085893E+03  0.00000000000E+00 0. -1.
          1   -1    0    0  501    0 -0.00000000000E+00 -0.00000000000E+00 -0.24858221039E+04  0.24858221039E+04  0.00000000000E+00 0. -1.
         25    2    1    2    0    0  0.12331891483E+03  0.22857925827E+03 -0.43561066305E+03  0.52233934878E+03  0.12500285379E+03 0.  0.
          2    1    1    2  501    0 -0.83259911892E+02 -0.21883151642E+03 -0.19940593753E+04  0.20077580127E+04  0.00000000000E+00 0. -1.
          1    1    1    2  502    0 -0.40059002942E+02 -0.97477418491E+01  0.65618793339E+02  0.77495601341E+02  0.00000000000E+00 0. -1.
         22    1    3    3    0    0  0.13077603109E+03  0.20838626645E+03 -0.31432554327E+03  0.39915880737E+03  0.00000000000E+00 0. -1.
         22    1    3    3    0    0 -0.74571162577E+01  0.20192991819E+02 -0.12128511977E+03  0.12318054140E+03  0.00000000000E+00 0. -1.
</event>
<event>
 7    1  0.6235964E-006  0.1888338E+03  0.7818608E-02  0.1178664E+00
          2   -1    0    0  502    0  0.00000000000E+00  0.00000000000E+00  0.12613968070E+04  0.12613968070E+04  0.00000000000E+00 0. -1.
          1   -1    0    0  501    0 -0.00000000000E+00 -0.00000000000E+00 -0.11472276448E+04  0.11472276448E+04  0.00000000000E+00 0. -1.
         25    2    1    2    0    0 -0.72949858508E+02  0.10716151834E+03 -0.34018240589E+03  0.38490779505E+03  0.12499867415E+03 0.  0.
          2    1    1    2  501    0  0.26343347884E+02 -0.25146545481E+03 -0.75947371450E+03  0.80045560149E+03  0.00000000000E+00 0. -1.
          1    1    1    2  502    0  0.46606510624E+02  0.14430393647E+03  0.12138252826E+04  0.12232610553E+04  0.00000000000E+00 0. -1.
         22    1    3    3    0    0 -0.95574492994E+02  0.74289943714E+02 -0.16154169167E+03  0.20186430491E+03  0.00000000000E+00 0.  1.
         22    1    3    3    0    0  0.22624634486E+02  0.32871574630E+02 -0.17864071422E+03  0.18304349014E+03  0.00000000000E+00 0.  1.
</event>
<event>
 7    1  0.6235964E-006  0.4058588E+02  0.7818608E-02  0.1601549E+00
          2   -1    0    0  502    0  0.00000000000E+00  0.00000000000E+00  0.35690139640E+03  0.35690139640E+03  0.00000000000E+00 0. -1.
          1   -1    0    0  501    0 -0.00000000000E+00 -0.00000000000E+00 -0.82895051018E+03  0.82895051018E+03  0.00000000000E+00 0. -1.
         25    2    1    2    0    0  0.55542630804E+01 -0.32720421223E+02 -0.39961722026E+03  0.42002462777E+03  0.12500115760E+03 0.  0.
          2    1    1    2  501    0 -0.27248070373E+02  0.31690022770E+02 -0.41774571541E+03  0.41983115371E+03  0.00000000000E+00 0. -1.
          1    1    1    2  502    0  0.21693807292E+02  0.10303984529E+01  0.34531382189E+03  0.34599612510E+03  0.00000000000E+00 0. -1.
         22    1    3    3    0    0  0.57000325922E+02 -0.45092369786E+02 -0.27901064963E+03  0.28832152465E+03  0.00000000000E+00 0.  1.
         22    1    3    3    0    0 -0.51446062841E+02  0.12371948562E+02 -0.12060657063E+03  0.13170310312E+03  0.00000000000E+00 0.  1.
</event>
<event>
 7    1  0.6235964E-006  0.5534789E+02  0.7818608E-02  0.1427516E+00
          2   -1    0    0  502    0  0.00000000000E+00  0.00000000000E+00  0.26033232044E+04  0.26033232044E+04  0.00000000000E+00 0. -1.
          1   -1    0    0  501    0 -0.00000000000E+00 -0.00000000000E+00 -0.13804716736E+03  0.13804716736E+03  0.00000000000E+00 0. -1.
         25    2    1    2    0    0 -0.34189707724E+02  0.72829447226E+01  0.13172048975E+02  0.13046380778E+03  0.12500129946E+03 0.  0.
          2    1    1    2  501    0  0.21411176649E+02 -0.57316928560E+02 -0.67310113217E+02  0.90963289993E+02  0.00000000000E+00 0. -1.
          1    1    1    2  502    0  0.12778531075E+02  0.50033983838E+02  0.25194141013E+04  0.25199432740E+04  0.00000000000E+00 0. -1.
         22    1    3    3    0    0 -0.20903493107E+02  0.24663416115E+02 -0.52270767247E+02  0.61461152179E+02  0.00000000000E+00 0.  1.
         22    1    3    3    0    0 -0.13286214617E+02 -0.17380471392E+02  0.65442816222E+02  0.69002655599E+02  0.00000000000E+00 0.  1.
</event>
<event>
 7    1  0.6235964E-006  0.6761583E+02  0.7818608E-02  0.1397081E+00
          2   -1    0    0  502    0  0.00000000000E+00  0.00000000000E+00  0.17441713436E+04  0.17441713436E+04  0.00000000000E+00 0. -1.
          1   -1    0    0  501    0 -0.00000000000E+00 -0.00000000000E+00 -0.14003113821E+03  0.14003113821E+03  0.00000000000E+00 0. -1.
         25    2    1    2    0    0 -0.35308533660E+02 -0.46589507187E+02  0.19292543374E+03  0.23719694680E+03  0.12499957542E+03 0.  0.
          2    1    1    2  501    0  0.49457869307E+02 -0.20558189909E+02 -0.11099905314E+03  0.12324572936E+03  0.00000000000E+00 0. -1.
          1    1    1    2  502    0 -0.14149335647E+02  0.67147697096E+02  0.15222138248E+04  0.15237598056E+04  0.00000000000E+00 0. -1.
         22    1    3    3    0    0 -0.68071931219E+02 -0.21267677699E+02  0.46760557335E+02  0.85279843204E+02  0.00000000000E+00 0. -1.
         22    1    3    3    0    0  0.32763397559E+02 -0.25321829488E+02  0.14616487641E+03  0.15191710359E+03  0.00000000000E+00 0. -1.
</event>
<event>
 7    1  0.6235964E-006  0.7765447E+02  0.7818608E-02  0.1421423E+00
          2   -1    0    0  502    0  0.00000000000E+00  0.00000000000E+00  0.13881855467E+03  0.13881855467E+03  0.00000000000E+00 0. -1.
          1   -1    0    0  501    0 -0.00000000000E+00 -0.00000000000E+00 -0.32658316441E+03  0.32658316441E+03  0.00000000000E+00 0. -1.
         25    2    1    2    0    0 -0.84142660187E+02  0.43210681938E+02 -0.61039301999E+02  0.16821855470E+03  0.12499814182E+03 0.  0.
          2    1    1    2  501    0  0.35437670980E+02  0.15201001455E+02 -0.19268868011E+03  0.19650910008E+03  0.00000000000E+00 0. -1.
          1    1    1    2  502    0  0.48704989208E+02 -0.58411683393E+02  0.65963372367E+02  0.10067406431E+03  0.00000000000E+00 0. -1.
         22    1    3    3    0    0 -0.11210349236E+03  0.32609974702E+02 -0.71067225304E+02  0.13667901800E+03  0.00000000000E+00 0. -1.
         22    1    3    3    0    0  0.27960832169E+02  0.10600707235E+02  0.10027923305E+02  0.31539536700E+02  0.00000000000E+00 0. -1.
</event>
<event>
 7    1  0.6235964E-006  0.7933335E+02  0.7818608E-02  0.1388447E+00
          2   -1    0    0  502    0  0.00000000000E+00  0.00000000000E+00  0.20194229094E+04  0.20194229094E+04  0.00000000000E+00 0. -1.
          1   -1    0    0  501    0 -0.00000000000E+00 -0.00000000000E+00 -0.20551762639E+03  0.20551762639E+03  0.00000000000E+00 0. -1.
         25    2    1    2    0    0 -0.12504847758E+02  0.31297547403E+02  0.10905433564E+03  0.16927374856E+03  0.12499938456E+03 0.  0.
          2    1    1    2  501    0  0.34948966110E+02 -0.74759893358E+02 -0.16536378141E+03  0.18481247817E+03  0.00000000000E+00 0. -1.
          1    1    1    2  502    0 -0.22444118352E+02  0.43462345954E+02  0.18702147288E+04  0.18708543091E+04  0.00000000000E+00 0. -1.
         22    1    3    3    0    0 -0.26253999474E+02 -0.28719299564E+02 -0.54244960591E+01  0.39287349278E+02  0.00000000000E+00 0. -1.
         22    1    3    3    0    0  0.13749151716E+02  0.60016846967E+02  0.11447883170E+03  0.12998639929E+03  0.00000000000E+00 0. -1.
</event>
<event>
 7    1  0.6235964E-006  0.1351780E+03  0.7818608E-02  0.1389760E+00
          2   -1    0    0  502    0  0.00000000000E+00  0.00000000000E+00  0.13574424540E+03  0.13574424540E+03  0.00000000000E+00 0. -1.
          1   -1    0    0  501    0 -0.00000000000E+00 -0.00000000000E+00 -0.15564605467E+04  0.15564605467E+04  0.00000000000E+00 0. -1.
         25    2    1    2    0    0 -0.11100252599E+03  0.10282304199E+02 -0.22618400328E+03  0.28143372481E+03  0.12497380351E+03 0.  0.
          2    1    1    2  501    0 -0.27134565100E+02  0.84024020571E+01 -0.12574950950E+04  0.12578158843E+04  0.00000000000E+00 0. -1.
          1    1    1    2  502    0  0.13813709109E+03 -0.18684706256E+02  0.62962796975E+02  0.15295518293E+03  0.00000000000E+00 0. -1.
         22    1    3    3    0    0 -0.56293207677E+02  0.67109978640E+02 -0.13421271006E+03  0.16026766987E+03  0.00000000000E+00 0.  1.
         22    1    3    3    0    0 -0.54709318314E+02 -0.56827674441E+02 -0.91971293211E+02  0.12116605493E+03  0.00000000000E+00 0.  1.
</event>
<event>
 7    1  0.6235964E-006  0.9231069E+02  0.7818608E-02  0.1332291E+00
          2   -1    0    0  502    0  0.00000000000E+00  0.00000000000E+00  0.13889917940E+04  0.13889917940E+04  0.00000000000E+00 0. -1.
          1   -1    0    0  501    0 -0.00000000000E+00 -0.00000000000E+00 -0.12133900529E+03  0.12133900529E+03  0.00000000000E+00 0. -1.
         25    2    1    2    0    0 -0.14452389690E+03  0.47213231889E+02  0.43022469485E+03  0.47311786696E+03  0.12502392548E+03 0.  0.
          2    1    1    2  501    0  0.77152035708E+02 -0.45884746920E+02 -0.78234965117E+02  0.11907374346E+03  0.00000000000E+00 0. -1.
          1    1    1    2  502    0  0.67371861190E+02 -0.13284849693E+01  0.91566305901E+03  0.91813918890E+03  0.00000000000E+00 0. -1.
         22    1    3    3    0    0 -0.11649632527E+03  0.33342110851E+01  0.39080417084E+03  0.40781173439E+03  0.00000000000E+00 0. -1.
         22    1    3    3    0    0 -0.28027571631E+02  0.43879020804E+02  0.39420524013E+02  0.65306132573E+02  0.00000000000E+00 0. -1.
</event>
<event>
 7    1  0.6235964E-006  0.4976994E+02  0.7818608E-02  0.1469250E+00
          2   -1    0    0  502    0  0.00000000000E+00  0.00000000000E+00  0.11945061166E+04  0.11945061166E+04  0.00000000000E+00 0. -1.
          1   -1    0    0  501    0 -0.00000000000E+00 -0.00000000000E+00 -0.14908017372E+02  0.14908017372E+02  0.00000000000E+00 0. -1.
         25    2    1    2    0    0 -0.18571530860E+01  0.13894841347E+01  0.62339747447E+03  0.63581146508E+03  0.12500571295E+03 0.  0.
          2    1    1    2  501    0  0.16172654441E+01  0.49743653630E+02  0.77018587885E+02  0.91700106345E+02  0.00000000000E+00 0. -1.
          1    1    1    2  502    0  0.23988764192E+00 -0.51133137765E+02  0.47918203685E+03  0.48190256252E+03  0.00000000000E+00 0. -1.
         22    1    3    3    0    0 -0.17425883317E+02 -0.20291889828E+02  0.24354386956E+02  0.36174001246E+02  0.00000000000E+00 0.  1.
         22    1    3    3    0    0  0.15568730231E+02  0.21681373962E+02  0.59904308751E+03  0.59963746383E+03  0.00000000000E+00 0.  1.
</event>
<event>
 7    1  0.6235964E-006  0.7656628E+02  0.7818608E-02  0.1402672E+00
          2   -1    0    0  502    0  0.00000000000E+00  0.00000000000E+00  0.28677876729E+03  0.28677876729E+03  0.00000000000E+00 0. -1.
          1   -1    0    0  501    0 -0.00000000000E+00 -0.00000000000E+00 -0.17940689433E+04  0.17940689433E+04  0.00000000000E+00 0. -1.
         25    2    1    2    0    0 -0.39200945094E-01 -0.11858025939E+03 -0.22494680992E+03  0.28335077817E+03  0.12500126696E+03 0.  0.
          2    1    1    2  501    0  0.10459221891E+02  0.74545274797E+02 -0.15370044832E+04  0.15388467028E+04  0.00000000000E+00 0. -1.
          1    1    1    2  502    0 -0.10420020946E+02  0.44034984595E+02  0.25466111713E+03  0.25865022962E+03  0.00000000000E+00 0. -1.
         22    1    3    3    0    0 -0.55605604664E+02 -0.90725316487E+02 -0.16907471394E+03  0.19977318443E+03  0.00000000000E+00 0.  1.
         22    1    3    3    0    0  0.55566403719E+02 -0.27854942904E+02 -0.55872095978E+02  0.83577593740E+02  0.00000000000E+00 0.  1.
</event>
<event>
 7    1  0.6235964E-006  0.1070685E+03  0.7818608E-02  0.1366566E+00
          2   -1    0    0  502    0  0.00000000000E+00  0.00000000000E+00  0.21654397741E+04  0.21654397741E+04  0.00000000000E+00 0. -1.
          1   -1    0    0  501    0 -0.00000000000E+00 -0.00000000000E+00 -0.72407662950E+02  0.72407662950E+02  0.00000000000E+00 0. -1.
         25    2    1    2    0    0  0.10991547461E+03  0.68437232160E+02  0.61520226364E+03  0.64098278193E+03  0.12498013939E+03 0.  0.
          2    1    1    2  501    0 -0.41901730423E+02  0.11126915909E+02 -0.49586238471E+02  0.65866215284E+02  0.00000000000E+00 0. -1.
          1    1    1    2  502    0 -0.68013744185E+02 -0.79564148069E+02  0.15274160860E+04  0.15309984398E+04  0.00000000000E+00 0. -1.
         22    1    3    3    0    0  0.30571336201E+02  0.91726925634E+02  0.35707253847E+03  0.36993138988E+03  0.00000000000E+00 0. -1.
         22    1    3    3    0    0  0.79344138408E+02 -0.23289693474E+02  0.25812972516E+03  0.27105139205E+03  0.00000000000E+00 0. -1.
</event>
<event>
 7    1  0.6235964E-006  0.7408920E+02  0.7818608E-02  0.1399542E+00
          2   -1    0    0  502    0  0.00000000000E+00  0.00000000000E+00  0.63808953608E+02  0.63808953608E+02  0.00000000000E+00 0. -1.
          1   -1    0    0  501    0 -0.00000000000E+00 -0.00000000000E+00 -0.84791214413E+03  0.84791214413E+03  0.00000000000E+00 0. -1.
         25    2    1    2    0    0  0.24720411075E+02  0.23869234750E+02 -0.45432598939E+03  0.47245880688E+03  0.12499752188E+03 0.  0.
          2    1    1    2  501    0  0.47931766769E+02  0.56992826632E+00 -0.35526425591E+03  0.35848357091E+03  0.00000000000E+00 0. -1.
          1    1    1    2  502    0 -0.72652177844E+02 -0.24439163017E+02  0.25487054779E+02  0.80778719943E+02  0.00000000000E+00 0. -1.
         22    1    3    3    0    0  0.15694925437E+02  0.57782397925E+02 -0.10114915252E+03  0.11754270394E+03  0.00000000000E+00 0. -1.
         22    1    3    3    0    0  0.90254856381E+01 -0.33913163174E+02 -0.35317683687E+03  0.35491610294E+03  0.00000000000E+00 0. -1.
</event>
<event>
 7    1  0.6235964E-006  0.1352034E+03  0.7818608E-02  0.1272521E+00
          2   -1    0    0  502    0  0.00000000000E+00  0.00000000000E+00  0.15924390938E+04  0.15924390938E+04  0.00000000000E+00 0. -1.
          1   -1    0    0  501    0 -0.00000000000E+00 -0.00000000000E+00 -0.30178752091E+03  0.30178752091E+03  0.00000000000E+00 0. -1.
         25    2    1    2    0    0 -0.36955420653E+02  0.89008922176E+02 -0.99740532163E+01  0.15815238647E+03  0.12499761705E+03 0.  0.
          2    1    1    2  501    0  0.65593030723E+02  0.45230688836E+02 -0.20721178643E+03  0.22200221920E+03  0.00000000000E+00 0. -1.
          1    1    1    2  502    0 -0.28637610070E+02 -0.13423961101E+03  0.15078374125E+04  0.15140720090E+04  0.00000000000E+00 0. -1.
         22    1    3    3    0    0 -0.10525074474E+02 -0.31195405273E+02  0.77068407928E+01  0.33813102458E+02  0.00000000000E+00 0.  1.
         22    1    3    3    0    0 -0.26430346179E+02  0.12020432745E+03 -0.17680894009E+02  0.12433928402E+03  0.00000000000E+00 0.  1.
</event>
<event>
 7    1  0.6235964E-006  0.1098637E+03  0.7818608E-02  0.1388956E+00
          2   -1    0    0  502    0  0.00000000000E+00  0.00000000000E+00  0.17060361988E+03  0.17060361988E+03  0.00000000000E+00 0. -1.
          1   -1    0    0  501    0 -0.00000000000E+00 -0.00000000000E+00 -0.11589161644E+04  0.11589161644E+04  0.00000000000E+00 0. -1.
         25    2    1    2    0    0 -0.41114615824E+01 -0.79322521630E+02 -0.21575209023E+03  0.26169310580E+03  0.12500140253E+03 0.  0.
          2    1    1    2  501    0  0.52910648719E+01  0.11448044515E+03 -0.91446946784E+03  0.92162257747E+03  0.00000000000E+00 0. -1.
          1    1    1    2  502    0 -0.11796032895E+01 -0.35157923518E+02  0.14190901351E+03  0.14620410105E+03  0.00000000000E+00 0. -1.
         22    1    3    3    0    0 -0.35909690251E+02 -0.96995571722E+02 -0.11548561254E+03  0.15503087916E+03  0.00000000000E+00 0.  1.
         22    1    3    3    0    0  0.31798228669E+02  0.17673050092E+02 -0.10026647768E+03  0.10666222665E+03  0.00000000000E+00 0.  1.
</event>
<event>
 7    1  0.6235964E-006  0.2261674E+03  0.7818608E-02  0.1161138E+00
          2   -1    0    0  502    0  0.00000000000E+00  0.00000000000E+00  0.13515985364E+04  0.13515985364E+04  0.00000000000E+00 0. -1.
          1   -1    0    0  501    0 -0.00000000000E+00 -0.00000000000E+00 -0.31608295108E+03  0.31608295108E+03  0.00000000000E+00 0. -1.
         25    2    1    2    0    0  0.82298937311E+02 -0.61522344917E+02 -0.84370196744E+02  0.18248761132E+03  0.12500113671E+03 0.  0.
          2    1    1    2  501    0  0.18055862830E+02 -0.15366212007E+03 -0.13664814730E+03  0.20642378130E+03  0.00000000000E+00 0. -1.
          1    1    1    2  502    0 -0.10035480014E+03  0.21518446499E+03  0.12565339294E+04  0.12787700949E+04  0.00000000000E+00 0. -1.
         22    1    3    3    0    0 -0.30216420653E+02 -0.24379290014E+02 -0.33942666824E+01  0.38973104893E+02  0.00000000000E+00 0.  1.
         22    1    3    3    0    0  0.11251535796E+03 -0.37143054903E+02 -0.80975930062E+02  0.14351450643E+03  0.00000000000E+00 0.  1.
</event>
<event>
 7    1  0.6235964E-006  0.1244876E+03  0.7818608E-02  0.1381977E+00
          2   -1    0    0  502    0  0.00000000000E+00  0.00000000000E+00  0.12414475885E+04  0.12414475885E+04  0.00000000000E+00 0. -1.
          1   -1    0    0  501    0 -0.00000000000E+00 -0.00000000000E+00 -0.74873365976E+03  0.74873365976E+03  0.00000000000E+00 0. -1.
         25    2    1    2    0    0 -0.95726944861E+02 -0.11676107130E+03  0.28881738303E+03  0.34905171022E+03  0.12499927970E+03 0.  0.
          2    1    1    2  501    0  0.28743636953E+02  0.15900325913E+02 -0.71426465268E+03  0.71501958791E+03  0.00000000000E+00 0. -1.
          1    1    1    2  502    0  0.66983307908E+02  0.10086074539E+03  0.91816119841E+03  0.92610995014E+03  0.00000000000E+00 0. -1.
         22    1    3    3    0    0 -0.11720125628E+03 -0.79182607853E+02  0.16203225426E+03  0.21508247553E+03  0.00000000000E+00 0. -1.
         22    1    3    3    0    0  0.21474311422E+02 -0.37578463448E+02  0.12678512877E+03  0.13396923469E+03  0.00000000000E+00 0. -1.
</event>
<event>
 7    1  0.6235964E-006  0.9545532E+02  0.7818608E-02  0.1402635E+00
          2   -1    0    0  502    0  0.00000000000E+00  0.00000000000E+00  0.11436866065E+04  0.11436866065E+04  0.00000000000E+00 0. -1.
          1   -1    0    0  501    0 -0.00000000000E+00 -0.00000000000E+00 -0.85172864988E+03  0.85172864988E+03  0.00000000000E+00 0. -1.
         25    2    1    2    0    0 -0.73521089410E+02 -0.47831261889E+02  0.31379050197E+03  0.34897693521E+03  0.12500896761E+03 0.  0.
          2    1    1    2  501    0 -0.22243563580E+02  0.28695263129E+02 -0.83080233552E+03  0.83159528314E+03  0.00000000000E+00 0. -1.
          1    1    1    2  502    0  0.95764652990E+02  0.19135998760E+02  0.80896979014E+03  0.81484303799E+03  0.00000000000E+00 0. -1.
         22    1    3    3    0    0 -0.30605376532E+02 -0.94327636767E+01  0.28077889704E+03  0.28259946059E+03  0.00000000000E+00 0.  1.
         22    1    3    3    0    0 -0.42915712877E+02 -0.38398498212E+02  0.33011604924E+02  0.66377474616E+02  0.00000000000E+00 0.  1.
</event>
<event>
 7    1  0.6235964E-006  0.8906978E+02  0.7818608E-02  0.1418400E+00
          2   -1    0    0  502    0  0.00000000000E+00  0.00000000000E+00  0.48030386262E+03  0.48030386262E+03  0.00000000000E+00 0. -1.
          1   -1    0    0  501    0 -0.00000000000E+00 -0.00000000000E+00 -0.28857152716E+03  0.28857152716E+03  0.00000000000E+00 0. -1.
         25    2    1    2    0    0  0.19442013576E+02 -0.60194349665E+02  0.76757467338E+02  0.15974563536E+03  0.12500243038E+03 0.  0.
          2    1    1    2  501    0 -0.40527767472E+01  0.90970467470E+02 -0.23782176679E+03  0.25465907349E+03  0.00000000000E+00 0. -1.
          1    1    1    2  502    0 -0.15389236828E+02 -0.30776117805E+02  0.35279663491E+03  0.35447068094E+03  0.00000000000E+00 0. -1.
         22    1    3    3    0    0  0.16513079849E+02 -0.66299586292E+02 -0.13153805521E+02  0.69579735184E+02  0.00000000000E+00 0.  1.
         22    1    3    3    0    0  0.29289337271E+01  0.61052366264E+01  0.89911272859E+02  0.90165900174E+02  0.00000000000E+00 0.  1.
</event>
<event>
 7    1  0.6235964E-006  0.1136784E+03  0.7818608E-02  0.1280223E+00
          2   -1    0    0  502    0  0.00000000000E+00  0.00000000000E+00  0.19424814395E+03  0.19424814395E+03  0.00000000000E+00 0. -1.
          1   -1    0    0  501    0 -0.00000000000E+00 -0.00000000000E+00 -0.18194043156E+04  0.18194043156E+04  0.00000000000E+00 0. -1.
         25    2    1    2    0    0  0.82706758888E+02 -0.11672735859E+02 -0.40690337999E+03  0.43379679660E+03  0.12503055374E+03 0.  0.
          2    1    1    2  501    0 -0.99506931789E+02 -0.74737654971E+02 -0.13853823857E+04  0.13909607115E+04  0.00000000000E+00 0. -1.
          1    1    1    2  502    0  0.16800172901E+02  0.86410390830E+02  0.16712959403E+03  0.18889495137E+03  0.00000000000E+00 0. -1.
         22    1    3    3    0    0 -0.24352867105E+02 -0.29510110634E+02 -0.15214327672E+03  0.15688048131E+03  0.00000000000E+00 0.  1.
         22    1    3    3    0    0  0.10705962599E+03  0.17837374775E+02 -0.25476010327E+03  0.27691631529E+03  0.00000000000E+00 0.  1.
</event>
<event>
 7    1  0.6235964E-006  0.6878699E+02  0.7818608E-02  0.1499500E+00
          2   -1    0    0  502    0  0.00000000000E+00  0.00000000000E+00  0.77608519891E+03  0.77608519891E+03  0.00000000000E+00 0. -1.
          1   -1    0    0  501    0 -0.00000000000E+00 -0.00000000000E+00 -0.10396504026E+04  0.10396504026E+04  0.00000000000E+00 0. -1.
         25    2    1    2    0    0 -0.48198436690E+02  0.49896884271E+00 -0.22504739793E+03  0.26190735792E+03  0.12500317816E+03 0.  0.
          2    1    1    2  501    0  0.69344312549E+02 -0.13239322621E+02 -0.79440615058E+03  0.79753686149E+03  0.00000000000E+00 0. -1.
          1    1    1    2  502    0 -0.21145875859E+02  0.12740353778E+02  0.75588834486E+03  0.75629138206E+03  0.00000000000E+00 0. -1.
         22    1    3    3    0    0 -0.28516928023E+00  0.29549562317E+02  0.44829486629E+00  0.29554338479E+02  0.00000000000E+00 0. -1.
         22    1    3    3    0    0 -0.47913267410E+02 -0.29050593475E+02 -0.22549569279E+03  0.23235301944E+03  0.00000000000E+00 0. -1.
</event>
<event>
 7    1  0.6235964E-006  0.2445725E+03  0.7818608E-02  0.1298019E+00
          2   -1    0    0  502    0  0.00000000000E+00  0.00000000000E+00  0.51092121329E+03  0.51092121329E+03  0.00000000000E+00 0. -1.
          1   -1    0    0  501    0 -0.00000000000E+00 -0.00000000000E+00 -0.93237461900E+03  0.93237461900E+03  0.00000000000E+00 0. -1.
         25    2    1    2    0    0  0.24014838879E+03 -0.46126254251E+02  0.24458572969E+03  0.36775784328E+03  0.12499908863E+03 0.  0.
          2    1    1    2  501    0 -0.23138743784E+03  0.79626244054E+02 -0.85196704653E+03  0.88641318441E+03  0.00000000000E+00 0. -1.
          1    1    1    2  502    0 -0.87609509521E+01 -0.33499989803E+02  0.18592791113E+03  0.18912480460E+03  0.00000000000E+00 0. -1.
         22    1    3    3    0    0  0.65771891568E+02 -0.38886939845E+02  0.15216359885E+03  0.17027006967E+03  0.00000000000E+00 0.  1.
         22    1    3    3    0    0  0.17437649722E+03 -0.72393144060E+01  0.92422130838E+02  0.19748777361E+03  0.00000000000E+00 0.  1.
</event>
<event>
 7    1  0.6235964E-006  0.1297925E+03  0.7818608E-02  0.1330559E+00
          2   -1    0    0  502    0  0.00000000000E+00  0.00000000000E+00  0.29256031421E+03  0.29256031421E+03  0.00000000000E+00 0. -1.
          1   -1    0    0  501    0 -0.00000000000E+00 -0.00000000000E+00 -0.13505716062E+04  0.13505716062E+04  0.00000000000E+00 0. -1.
         25    2    1    2    0    0  0.70839427854E+02 -0.15589852188E+03  0.12536749664E+03  0.24630201277E+03  0.12500039447E+03 0.  0.
          2    1    1    2  501    0 -0.71877199961E+02  0.10724995088E+03 -0.12811395430E+04  0.12876286004E+04  0.00000000000E+00 0. -1.
          1    1    1    2  502    0  0.10377721068E+01  0.48648570992E+02  0.97760754333E+02  0.10920130731E+03  0.00000000000E+00 0. -1.
         22    1    3    3    0    0  0.16546296749E+02 -0.13984796201E+03  0.12704393228E+03  0.18966125894E+03  0.00000000000E+00 0.  1.
         22    1    3    3    0    0  0.54293131105E+02 -0.16050559864E+02 -0.16764356445E+01  0.56640753823E+02  0.00000000000E+00 0.  1.
</event>
<event>
 7    1  0.6235964E-006  0.1119715E+03  0.7818608E-02  0.1318480E+00
          2   -1    0    0  502    0  0.00000000000E+00  0.00000000000E+00  0.92724913632E+02  0.92724913632E+02  0.00000000000E+00 0. -1.
          1   -1    0    0  501    0 -0.00000000000E+00 -0.00000000000E+00 -0.14383315806E+04  0.14383315806E+04  0.00000000000E+00 0. -1.
         25    2    1    2    0    0  0.72171889794E+02  0.13117596722E+03 -0.82408443372E+03  0.84685159733E+03  0.12500623164E+03 0.  0.
          2    1    1    2  501    0  0.13677305278E+02 -0.61276068697E+02 -0.56262241256E+03  0.56611465658E+03  0.00000000000E+00 0. -1.
          1    1    1    2  502    0 -0.85849195072E+02 -0.69899898519E+02  0.41100179355E+02  0.11809024028E+03  0.00000000000E+00 0. -1.
         22    1    3    3    0    0  0.98500269469E+01 -0.19657815764E+02 -0.22046257216E+03  0.22155630994E+03  0.00000000000E+00 0.  1.
         22    1    3    3    0    0  0.62321862847E+02  0.15083378298E+03 -0.60362186156E+03  0.62529528739E+03  0.00000000000E+00 0.  1.
</event>
<event>
 7    1  0.6235964E-006  0.8497066E+02  0.7818608E-02  0.1338551E+00
          2   -1    0    0  502    0  0.00000000000E+00  0.00000000000E+00  0.74232894785E+03  0.74232894785E+03  0.00000000000E+00 0. -1.
          1   -1    0    0  501    0 -0.00000000000E+00 -0.00000000000E+00 -0.12730581109E+04  0.12730581109E+04  0.00000000000E+00 0. -1.
         25    2    1    2    0    0  0.76762825586E+00 -0.10912387356E+03 -0.18950758234E+02  0.16700911981E+03  0.12499722328E+03 0.  0.
          2    1    1    2  501    0  0.53660189107E+02  0.43877793560E+02 -0.11763531582E+04  0.11783935801E+04  0.00000000000E+00 0. -1.
          1    1    1    2  502    0 -0.54427817362E+02  0.65246080004E+02  0.66457475341E+03  0.66998435887E+03  0.00000000000E+00 0. -1.
         22    1    3    3    0    0 -0.21981195740E+02 -0.11067944653E+03  0.26720972874E+02  0.11596173180E+03  0.00000000000E+00 0.  1.
         22    1    3    3    0    0  0.22748823996E+02  0.15555729681E+01 -0.45671731108E+02  0.51047388012E+02  0.00000000000E+00 0.  1.
</event>
<event>
 7    1  0.6235964E-006  0.1054748E+03  0.7818608E-02  0.1357172E+00
          2   -1    0    0  502    0  0.00000000000E+00  0.00000000000E+00  0.73613343542E+02  0.73613343542E+02  0.00000000000E+00 0. -1.
          1   -1    0    0  501    0 -0.00000000000E+00 -0.00000000000E+00 -0.17435895254E+04  0.17435895254E+04  0.00000000000E+00 0. -1.
         25    2    1    2    0    0 -0.91088329618E+02 -0.95852855151E+02 -0.40764490432E+03  0.44641636111E+03  0.12501338255E+03 0.  0.
          2    1    1    2  501    0  0.47551740741E+02  0.24239615997E+01 -0.12667237351E+04  0.12676182646E+04  0.00000000000E+00 0. -1.
          1    1    1    2  502    0  0.43536588876E+02  0.93428893551E+02  0.43924576103E+01  0.10316824320E+03  0.00000000000E+00 0. -1.
         22    1    3    3    0    0 -0.38722590129E+02 -0.37512472322E+02 -0.32034910649E+02  0.62712519215E+02  0.00000000000E+00 0. -1.
         22    1    3    3    0    0 -0.52365739489E+02 -0.58340382828E+02 -0.37560999367E+03  0.38370384189E+03  0.00000000000E+00 0. -1.
</event>
<event>
 7    1  0.6235964E-006  0.6401179E+02  0.7818608E-02  0.1493442E+00
          2   -1    0    0  502    0  0.00000000000E+00  0.00000000000E+00  0.11830301387E+04  0.11830301387E+04  0.00000000000E+00 0. -1.
          1   -1    0    0  501    0 -0.00000000000E+00 -0.00000000000E+00 -0.66713727091E+03  0.66713727091E+03  0.00000000000E+00 0. -1.
         25    2    1    2    0    0 -0.47775385371E+02  0.55434747786E+02  0.54818113232E+03  0.56699496897E+03  0.12500096921E+03 0.  0.
          2    1    1    2  501    0  0.56891075686E+02 -0.29317785493E+02 -0.65586608524E+03  0.65898137213E+03  0.00000000000E+00 0. -1.
          1    1    1    2  502    0 -0.91156903154E+01 -0.26116962293E+02  0.62357782071E+03  0.62419106851E+03  0.00000000000E+00 0. -1.
         22    1    3    3    0    0 -0.32190435039E+02  0.89320306966E+02  0.26756199659E+03  0.28390801920E+03  0.00000000000E+00 0.  1.
         22    1    3    3    0    0 -0.15584950332E+02 -0.33885559180E+02  0.28061913573E+03  0.28308694978E+03  0.00000000000E+00 0.  1.
</event>
<event>
 7    1  0.6235964E-006  0.3652011E+03  0.7818608E-02  0.1160511E+00
          2   -1    0    0  502    0  0.00000000000E+00  0.00000000000E+00  0.15513199631E+04  0.15513199631E+04  0.00000000000E+00 0. -1.
          1   -1    0    0  501    0 -0.00000000000E+00 -0.00000000000E+00 -0.62173565447E+03  0.62173565447E+03  0.00000000000E+00 0. -1.
         25    2    1    2    0    0 -0.27998113078E+03 -0.37024575647E+02 -0.23198483396E+02  0.30971940720E+03  0.12501075461E+03 0.  0.
          2    1    1    2  501    0 -0.92159354897E+02 -0.28674881548E+02 -0.42440557924E+03  0.43524210644E+03  0.00000000000E+00 0. -1.
          1    1    1    2  502    0  0.37214048568E+03  0.65699457195E+02  0.13771883713E+04  0.14280941039E+04  0.00000000000E+00 0. -1.
         22    1    3    3    0    0 -0.52443679981E+01  0.18695283638E+02  0.17880259785E+02  0.26395467716E+02  0.00000000000E+00 0. -1.
         22    1    3    3    0    0 -0.27473676278E+03 -0.55719859285E+02 -0.41078743180E+02  0.28332393948E+03  0.00000000000E+00 0. -1.
</event>
<event>
 7    1  0.6235964E-006  0.1619129E+03  0.7818608E-02  0.1282498E+00
          2   -1    0    0  502    0  0.00000000000E+00  0.00000000000E+00  0.30110869842E+04  0.30110869842E+04  0.00000000000E+00 0. -1.
          1   -1    0    0  501    0 -0.00000000000E+00 -0.00000000000E+00 -0.65611975975E+03  0.65611975975E+03  0.00000000000E+00 0. -1.
         25    2    1    2    0    0  0.15842332059E+03 -0.13693952779E+03  0.24230178893E+02  0.24507602724E+03  0.12499909913E+03 0.  0.
          2    1    1    2  501    0 -0.59695753699E+02  0.97319519226E+01 -0.54175902568E+03  0.54512488093E+03  0.00000000000E+00 0. -1.
          1    1    1    2  502    0 -0.98727566888E+02  0.12720757587E+03  0.28724960712E+04  0.28770058358E+04  0.00000000000E+00 0. -1.
         22    1    3    3    0    0  0.96377067998E+02 -0.11907708434E+03 -0.35352665457E+02  0.15721864459E+03  0.00000000000E+00 0. -1.
         22    1    3    3    0    0  0.62046252589E+02 -0.17862443447E+02  0.59582844350E+02  0.87857382656E+02  0.00000000000E+00 0. -1.
</event>
<event>
 7    1  0.6235964E-006  0.1275684E+03  0.7818608E-02  0.1349106E+00
          2   -1    0    0  502    0  0.00000000000E+00  0.00000000000E+00  0.14867638015E+02  0.14867638015E+02  0.00000000000E+00 0. -1.
          1   -1    0    0  501    0 -0.00000000000E+00 -0.00000000000E+00 -0.27895224612E+04  0.27895224612E+04  0.00000000000E+00 0. -1.
         25    2    1    2    0    0 -0.11174048128E+03 -0.77674015862E+02 -0.14159120723E+04  0.14279172985E+04  0.12498650641E+03 0.  0.
          2    1    1    2  501    0  0.35345962915E+02 -0.22977043452E+02 -0.88997966524E+03  0.89097760138E+03  0.00000000000E+00 0. -1.
          1    1    1    2  502    0  0.76394518366E+02  0.10065105931E+03 -0.46876308561E+03  0.48549519937E+03  0.00000000000E+00 0. -1.
         22    1    3    3    0    0  0.12666186739E+02 -0.47531813433E+02 -0.60136411194E+03  0.60337260520E+03  0.00000000000E+00 0.  1.
         22    1    3    3    0    0 -0.12440666802E+03 -0.30142202429E+02 -0.81454796039E+03  0.82454469326E+03  0.00000000000E+00 0.  1.
</event>
<event>
 7    1  0.6235964E-006  0.5746736E+02  0.7818608E-02  0.1477189E+00
          2   -1    0    0  502    0  0.00000000000E+00  0.00000000000E+00  0.24848924753E+03  0.24848924753E+03  0.00000000000E+00 0. -1.
          1   -1    0    0  501    0 -0.00000000000E+00 -0.00000000000E+00 -0.14076964555E+04  0.14076964555E+04  0.00000000000E+00 0. -1.
         25    2    1    2    0    0  0.66670221318E+00 -0.55086224525E+02  0.16770323152E+03  0.21629815822E+03  0.12500233102E+03 0.  0.
          2    1    1    2  501    0 -0.34493288267E+02  0.16264519231E+01 -0.13653996104E+04  0.13658362012E+04  0.00000000000E+00 0. -1.
          1    1    1    2  502    0  0.33826586054E+02  0.53459772602E+02  0.38489170960E+02  0.74051343620E+02  0.00000000000E+00 0. -1.
         22    1    3    3    0    0 -0.24076001928E+02 -0.24739932992E+01  0.15488163055E+03  0.15676126432E+03  0.00000000000E+00 0.  1.
         22    1    3    3    0    0  0.24742704141E+02 -0.52612231226E+02  0.12821600979E+02  0.59536893894E+02  0.00000000000E+00 0.  1.
</event>
<event>
 7    1  0.6235964E-006  0.5867854E+02  0.7818608E-02  0.1427212E+00
          2   -1    0    0  502    0  0.00000000000E+00  0.00000000000E+00  0.38965804195E+04  0.38965804195E+04  0.00000000000E+00 0. -1.
          1   -1    0    0  501    0 -0.00000000000E+00 -0.00000000000E+00 -0.12434258675E+03  0.12434258675E+03  0.00000000000E+00 0. -1.
         25    2    1    2    0    0 -0.46274531491E+02  0.89962585258E+02  0.97774063966E+03  0.99087658111E+03  0.12500016618E+03 0.  0.
          2    1    1    2  501    0  0.73868052381E+01 -0.48259707086E+02 -0.11242339013E+03  0.12256664663E+03  0.00000000000E+00 0. -1.
          1    1    1    2  502    0  0.38887726253E+02 -0.41702878173E+02  0.29069205832E+04  0.29074797785E+04  0.00000000000E+00 0. -1.
         22    1    3    3    0    0 -0.31622180074E+02  0.11747784871E+03  0.62291910467E+03  0.63468828425E+03  0.00000000000E+00 0. -1.
         22    1    3    3    0    0 -0.14652351418E+02 -0.27515263452E+02  0.35482153499E+03  0.35618829686E+03  0.00000000000E+00 0. -1.
</event>
<event>
 7    1  0.6235964E-006  0.1151085E+03  0.7818608E-02  0.1266250E+00
          2   -1    0    0  502    0  0.00000000000E+00  0.00000000000E+00  0.93014722952E+03  0.93014722952E+03  0.00000000000E+00 0. -1.
          1   -1    0    0  501    0 -0.00000000000E+00 -0.00000000000E+00 -0.50795146197E+02  0.50795146197E+02  0.00000000000E+00 0. -1.
         25    2    1    2    0    0 -0.51567067074E+02 -0.45472541879E+02  0.34763775917E+03  0.37577032870E+03  0.12499765543E+03 0.  0.
          2    1    1    2  501    0 -0.91324737694E+02 -0.39350554084E+02  0.93443609399E+02  0.13645652040E+03  0.00000000000E+00 0. -1.
          1    1    1    2  502    0  0.14289180477E+03  0.84823095962E+02  0.43827071476E+03  0.46871552662E+03  0.00000000000E+00 0. -1.
         22    1    3    3    0    0 -0.55285195407E+02 -0.26879368406E+01  0.31988304548E+03  0.32463647457E+03  0.00000000000E+00 0. -1.
         22    1    3    3    0    0  0.37181283326E+01 -0.42784605038E+02  0.27754713690E+02  0.51133854134E+02  0.00000000000E+00 0. -1.
</event>
<event>
 7    1  0.6235964E-006  0.1753944E+03  0.7818608E-02  0.1301474E+00
          2   -1    0    0  502    0  0.00000000000E+00  0.00000000000E+00  0.28064109455E+04  0.28064109455E+04  0.00000000000E+00 0. -1.
          1   -1    0    0  501    0 -0.00000000000E+00 -0.00000000000E+00 -0.18473453375E+02  0.18473453375E+02  0.00000000000E+00 0. -1.
         25    2    1    2    0    0  0.44138334393E+02  0.18296891799E+03  0.11572601031E+04  0.11791104217E+04  0.12499849193E+03 0.  0.
          2    1    1    2  501    0 -0.75382949401E+02 -0.14816660757E+03  0.10352455302E+04  0.10485081022E+04  0.00000000000E+00 0. -1.
          1    1    1    2  502    0  0.31244615009E+02 -0.34802310414E+02  0.59543185883E+03  0.59726587488E+03  0.00000000000E+00 0. -1.
         22    1    3    3    0    0 -0.31187629224E+02  0.58917203512E+02  0.58284131086E+03  0.58664120102E+03  0.00000000000E+00 0. -1.
         22    1    3    3    0    0  0.75325963617E+02  0.12405171447E+03  0.57441879220E+03  0.59246922071E+03  0.00000000000E+00 0. -1.
</event>
<event>
 7    1  0.6235964E-006  0.5753243E+02  0.7818608E-02  0.1426793E+00
          2   -1    0    0  502    0  0.00000000000E+00  0.00000000000E+00  0.18853072393E+04  0.18853072393E+04  0.00000000000E+00 0. -1.
          1   -1    0    0  501    0 -0.00000000000E+00 -0.00000000000E+00 -0.83384875400E+02  0.83384875400E+02  0.00000000000E+00 0. -1.
         25    2    1    2    0    0  0.26466779970E+02  0.42074083449E+01  0.10327330880E+03  0.16433682221E+03  0.12499208814E+03 0.  0.
          2    1    1    2  501    0 -0.33230590459E+02 -0.53700890310E+02 -0.33499771629E+02  0.71486309609E+02  0.00000000000E+00 0. -1.
          1    1    1    2  502    0  0.67638104896E+01  0.49493481965E+02  0.17321488267E+04  0.17328689828E+04  0.00000000000E+00 0. -1.
         22    1    3    3    0    0  0.10912704144E+02  0.13032301195E+02  0.13058749752E+03  0.13168911304E+03  0.00000000000E+00 0.  1.
         22    1    3    3    0    0  0.15554075825E+02 -0.88248928506E+01 -0.27314188717E+02  0.32647709167E+02  0.00000000000E+00 0.  1.
</event>
<event>
 7    1  0.6235964E-006  0.8799201E+02  0.7818608E-02  0.1357084E+00
          2   -1    0    0  502    0  0.00000000000E+00  0.00000000000E+00  0.30644115498E+02  0.30644115498E+02  0.00000000000E+00 0. -1.
          1   -1    0    0  501    0 -0.00000000000E+00 -0.00000000000E+00 -0.26680572512E+04  0.26680572512E+04  0.00000000000E+00 0. -1.
         25    2    1    2    0    0 -0.99759519738E+02 -0.10005848969E+03 -0.11164084066E+04  0.11322350073E+04  0.12499887331E+03 0.  0.
          2    1    1    2  501    0  0.41269274591E+02  0.39485291728E+02 -0.14632387131E+04  0.14643530219E+04  0.00000000000E+00 0. -1.
          1    1    1    2  502    0  0.58490245147E+02  0.60573197957E+02 -0.57766016057E+02  0.10211333752E+03  0.00000000000E+00 0. -1.
         22    1    3    3    0    0 -0.78935432100E+02 -0.11801077245E+03 -0.66484852123E+03  0.67983887874E+03  0.00000000000E+00 0. -1.
         22    1    3    3    0    0 -0.20824087638E+02  0.17952282762E+02 -0.45155988539E+03  0.45239612860E+03  0.00000000000E+00 0. -1.
</event>
<event>
 7    1  0.6235964E-006  0.9382320E+02  0.7818608E-02  0.1366655E+00
          2   -1    0    0  502    0  0.00000000000E+00  0.00000000000E+00  0.27584895301E+04  0.27584895301E+04  0.00000000000E+00 0. -1.
          1   -1    0    0  501    0 -0.00000000000E+00 -0.00000000000E+00 -0.74143994480E+03  0.74143994480E+03  0.00000000000E+00 0. -1.
         25    2    1    2    0    0  0.72673100354E+02  0.80426442201E+02  0.12173096588E+03  0.20540005239E+03  0.12498384435E+03 0.  0.
          2    1    1    2  501    0 -0.87650194607E+02 -0.33311974784E+02 -0.69622673055E+03  0.70251256544E+03  0.00000000000E+00 0. -1.
          1    1    1    2  502    0  0.14977094254E+02 -0.47114467416E+02  0.25915453500E+04  0.25920168571E+04  0.00000000000E+00 0. -1.
         22    1    3    3    0    0  0.28466773863E+02 -0.23449312113E+02  0.74299398369E+02  0.82949551239E+02  0.00000000000E+00 0. -1.
         22    1    3    3    0    0  0.44206326491E+02  0.10387575431E+03  0.47431567511E+02  0.12245050115E+03  0.00000000000E+00 0. -1.
</event>
<event>
 7    1  0.6235964E-006  0.1551648E+03  0.7818608E-02  0.1378579E+00
          2   -1    0    0  502    0  0.00000000000E+00  0.00000000000E+00  0.43943559183E+03  0.43943559183E+03  0.00000000000E+00 0. -1.
          1   -1    0    0  501    0 -0.00000000000E+00 -0.00000000000E+00 -0.90270805778E+03  0.90270805778E+03  0.00000000000E+00 0. -1.
         25    2    1    2    0    0 -0.13090397338E+03  0.10141412961E+03 -0.49056095214E+02  0.21319381864E+03  0.12499771157E+03 0.  0.
          2    1    1    2  501    0 -0.38906597379E+01 -0.26813350211E+02 -0.75472471085E+03  0.75521088588E+03  0.00000000000E+00 0. -1.
          1    1    1    2  502    0  0.13479463312E+03 -0.74600779397E+02  0.34050834010E+03  0.37373894510E+03  0.00000000000E+00 0. -1.
         22    1    3    3    0    0 -0.31600302296E+02  0.89055201111E+02  0.13088615317E+02  0.95397692850E+02  0.00000000000E+00 0. -1.
         22    1    3    3    0    0 -0.99303671081E+02  0.12358928497E+02 -0.62144710531E+02  0.11779612579E+03  0.00000000000E+00 0. -1.
</event>
<event>
 7    1  0.6235964E-006  0.3616131E+02  0.7818608E-02  0.1582434E+00
          2   -1    0    0  502    0  0.00000000000E+00  0.00000000000E+00  0.13386070889E+03  0.13386070889E+03  0.00000000000E+00 0. -1.
          1   -1    0    0  501    0 -0.00000000000E+00 -0.00000000000E+00 -0.61550542839E+03  0.61550542839E+03  0.00000000000E+00 0. -1.
         25    2    1    2    0    0 -0.11375021599E+02 -0.53158397816E+02 -0.37025806103E+02  0.14124886398E+03  0.12500049953E+03 0.  0.
          2    1    1    2  501    0 -0.10673197360E+02  0.25213082534E+02 -0.52211747822E+03  0.52283484748E+03  0.00000000000E+00 0. -1.
          1    1    1    2  502    0  0.22048218959E+02  0.27945315283E+02  0.77498564823E+02  0.85282425828E+02  0.00000000000E+00 0. -1.
         22    1    3    3    0    0  0.31589486371E+02  0.16904491806E+02 -0.46295986218E+02  0.58540377794E+02  0.00000000000E+00 0. -1.
         22    1    3    3    0    0 -0.42964507969E+02 -0.70062889622E+02  0.92701801150E+01  0.82708486182E+02  0.00000000000E+00 0. -1.
</event>
<event>
 7    1  0.6235964E-006  0.5291363E+02  0.7818608E-02  0.1447987E+00
          2   -1    0    0  502    0  0.00000000000E+00  0.00000000000E+00  0.23841529806E+02  0.23841529806E+02  0.00000000000E+00 0. -1.
          1   -1    0    0  501    0 -0.00000000000E+00 -0.00000000000E+00 -0.63426996531E+03  0.63426996531E+03  0.00000000000E+00 0. -1.
         25    2    1    2    0    0 -0.38160747641E+02 -0.11738526098E+02 -0.36008588868E+03  0.38325548703E+03  0.12501554086E+03 0.  0.
          2    1    1    2  501    0  0.55861314497E+02 -0.31077673036E+02 -0.17609865698E+03  0.18734205404E+03  0.00000000000E+00 0. -1.
          1    1    1    2  502    0 -0.17700566856E+02  0.42816199134E+02 -0.74243889843E+02  0.87513954055E+02  0.00000000000E+00 0. -1.
         22    1    3    3    0    0  0.39764430705E+02 -0.63540497384E+01 -0.21241736029E+03  0.21620064489E+03  0.00000000000E+00 0. -1.
         22    1    3    3    0    0 -0.77925178346E+02 -0.53844763595E+01 -0.14766852839E+03  0.16705484214E+03  0.00000000000E+00 0. -1.
</event>
<event>
 7    1  0.6235964E-006  0.1118512E+03  0.7818608E-02  0.1320640E+00
          2   -1    0    0  502    0  0.00000000000E+00  0.00000000000E+00  0.61825742624E+03  0.61825742624E+03  0.00000000000E+00 0. -1.
          1   -1    0    0  501    0 -0.00000000000E+00 -0.00000000000E+00 -0.75446415998E+03  0.75446415998E+03  0.00000000000E+00 0. -1.
         25    2    1    2    0    0  0.44803703113E+02 -0.25395096795E+02 -0.24560726774E+03  0.28035773695E+03  0.12500099180E+03 0.  0.
          2    1    1    2  501    0  0.51297175604E+02 -0.34195148619E+02 -0.48418994625E+03  0.48809897814E+03  0.00000000000E+00 0. -1.
          1    1    1    2  502    0 -0.96100878716E+02  0.59590245414E+02  0.59359048025E+03  0.60426487113E+03  0.00000000000E+00 0. -1.
         22    1    3    3    0    0  0.17735771933E+02  0.33266106165E+02 -0.19411715488E+03  0.19774392847E+03  0.00000000000E+00 0.  1.
         22    1    3    3    0    0  0.27067931179E+02 -0.58661202960E+02 -0.51490112854E+02  0.82613808487E+02  0.00000000000E+00 0.  1.
</event>
<event>
 7    1  0.6235964E-006  0.6978217E+02  0.7818608E-02  0.1404314E+00
          2   -1    0    0  502    0  0.00000000000E+00  0.00000000000E+00  0.75296363445E+03  0.75296363445E+03  0.00000000000E+00 0. -1.
          1   -1    0    0  501    0 -0.00000000000E+00 -0.00000000000E+00 -0.38410627023E+03  0.38410627023E+03  0.00000000000E+00 0. -1.
         25    2    1    2    0    0  0.27852940236E+02 -0.32159866197E+02 -0.14808197813E+03  0.19840397458E+03  0.12500328640E+03 0.  0.
          2    1    1    2  501    0 -0.12384048937E+02  0.78666815772E+02 -0.20248075621E+03  0.21757823698E+03  0.00000000000E+00 0. -1.
          1    1    1    2  502    0 -0.15468891299E+02 -0.46506949575E+02  0.71942009856E+03  0.72108769312E+03  0.00000000000E+00 0. -1.
         22    1    3    3    0    0 -0.27481094775E+02  0.14204693258E+02  0.28799135146E+01  0.31068919879E+02  0.00000000000E+00 0.  1.
         22    1    3    3    0    0  0.55334035011E+02 -0.46364559455E+02 -0.15096189164E+03  0.16733505470E+03  0.00000000000E+00 0.  1.
</event>
<event>
 7    1  0.6235964E-006  0.3819657E+02  0.7818608E-02  0.1577636E+00
          2   -1    0    0  502    0  0.00000000000E+00  0.00000000000E+00  0.68842559547E+03  0.68842559547E+03  0.00000000000E+00 0. -1.
          1   -1    0    0  501    0 -0.00000000000E+00 -0.00000000000E+00 -0.10785770708E+04  0.10785770708E+04  0.00000000000E+00 0. -1.
         25    2    1    2    0    0 -0.12051198176E+02  0.62966590491E+02 -0.20253133540E+03  0.24648396971E+03  0.12500153042E+03 0.  0.
          2    1    1    2  501    0  0.96104222514E+01 -0.24909987899E+02 -0.85331491962E+03  0.85373252238E+03  0.00000000000E+00 0. -1.
          1    1    1    2  502    0  0.24407759249E+01 -0.38056602592E+02  0.66569477969E+03  0.66678617419E+03  0.00000000000E+00 0. -1.
         22    1    3    3    0    0 -0.52397039688E+02  0.32583226934E+02 -0.33794712251E+02  0.70350543862E+02  0.00000000000E+00 0. -1.
         22    1    3    3    0    0  0.40345841512E+02  0.30383363557E+02 -0.16873662315E+03  0.17613342585E+03  0.00000000000E+00 0. -1.
</event>
<event>
 7    1  0.6235964E-006  0.1191132E+03  0.7818608E-02  0.1285393E+00
          2   -1    0    0  502    0  0.00000000000E+00  0.00000000000E+00  0.27480260556E+03  0.27480260556E+03  0.00000000000E+00 0. -1.
          1   -1    0    0  501    0 -0.00000000000E+00 -0.00000000000E+00 -0.48450072898E+03  0.48450072898E+03  0.00000000000E+00 0. -1.
         25    2    1    2    0    0  0.11556234204E+03 -0.32221189255E+01 -0.33925964951E+02  0.17360789911E+03  0.12499477823E+03 0.  0.
          2    1    1    2  501    0 -0.21314090741E+02 -0.77104704398E+02 -0.35719207387E+03  0.36604043976E+03  0.00000000000E+00 0. -1.
          1    1    1    2  502    0 -0.94248251303E+02  0.80326823324E+02  0.18141991540E+03  0.21965499567E+03  0.00000000000E+00 0. -1.
         22    1    3    3    0    0  0.13819121363E+03  0.17101659545E+02 -0.22170015962E+02  0.14099924784E+03  0.00000000000E+00 0. -1.
         22    1    3    3    0    0 -0.22628871589E+02 -0.20323778471E+02 -0.11755948989E+02  0.32608651265E+02  0.00000000000E+00 0. -1.
</event>
<event>
 7    1  0.6235964E-006  0.9278855E+02  0.7818608E-02  0.1461575E+00
          2   -1    0    0  502    0  0.00000000000E+00  0.00000000000E+00  0.49321089919E+03  0.49321089919E+03  0.00000000000E+00 0. -1.
          1   -1    0    0  501    0 -0.00000000000E+00 -0.00000000000E+00 -0.98346467897E+02  0.98346467897E+02  0.00000000000E+00 0. -1.
         25    2    1    2    0    0  0.44005721123E+02  0.92119654900E+02  0.12755112433E+03  0.20571244523E+03  0.12500314594E+03 0.  0.
          2    1    1    2  501    0 -0.20296259196E+02 -0.88954051099E+02 -0.23364826116E+02  0.94184268558E+02  0.00000000000E+00 0. -1.
          1    1    1    2  502    0 -0.23709461927E+02 -0.31656038006E+01  0.29067813308E+03  0.29166065330E+03  0.00000000000E+00 0. -1.
         22    1    3    3    0    0  0.86142170197E+02  0.43065244599E+02  0.68968009078E+02  0.11845537157E+03  0.00000000000E+00 0. -1.
         22    1    3    3    0    0 -0.42136449074E+02  0.49054410301E+02  0.58583115252E+02  0.87257073657E+02  0.00000000000E+00 0. -1.
</event>
<event>
 7    1  0.6235964E-006  0.4966332E+02  0.7818608E-02  0.1468667E+00
          2   -1    0    0  502    0  0.00000000000E+00  0.00000000000E+00  0.23558014337E+04  0.23558014337E+04  0.00000000000E+00 0. -1.
          1   -1    0    0  501    0 -0.00000000000E+00 -0.00000000000E+00 -0.15461641901E+04  0.15461641901E+04  0.00000000000E+00 0. -1.
         25    2    1    2    0    0  0.10283177681E+02 -0.71497333550E+02  0.59543488477E+03  0.61268720424E+03  0.12500118318E+03 0.  0.
          2    1    1    2  501    0  0.23316454436E+02  0.35488120350E+02 -0.15368985627E+04  0.15374850425E+04  0.00000000000E+00 0. -1.
          1    1    1    2  502    0 -0.33599632117E+02  0.36009213200E+02  0.17511009216E+04  0.17517933771E+04  0.00000000000E+00 0. -1.
         22    1    3    3    0    0  0.63904336787E+02 -0.14492252660E+02  0.24417783462E+03  0.25281733439E+03  0.00000000000E+00 0.  1.
         22    1    3    3    0    0 -0.53621159106E+02 -0.57005080889E+02  0.35125705015E+03  0.35986986985E+03  0.00000000000E+00 0.  1.
</event>
<event>
 7    1  0.6235964E-006  0.1379266E+03  0.7818608E-02  0.1218804E+00
          2   -1    0    0  502    0  0.00000000000E+00  0.00000000000E+00  0.26286937304E+04  0.26286937304E+04  0.00000000000E+00 0. -1.
          1   -1    0    0  501    0 -0.00000000000E+00 -0.00000000000E+00 -0.14439555207E+04  0.14439555207E+04  0.00000000000E+00 0. -1.
         25    2    1    2    0    0 -0.21660598889E+02  0.12827612691E+02  0.18451648046E+03  0.22429024114E+03  0.12500420600E+03 0.  0.
          2    1    1    2  501    0  0.28118103585E+02  0.13503007669E+03 -0.14184617602E+04  0.14251517514E+04  0.00000000000E+00 0. -1.
          1    1    1    2  502    0 -0.64575046959E+01 -0.14785768938E+03  0.24186834894E+04  0.24232072585E+04  0.00000000000E+00 0. -1.
         22    1    3    3    0    0  0.84475984430E+01 -0.41102502477E+02  0.14503779688E+03  0.15098589389E+03  0.00000000000E+00 0. -1.
         22    1    3    3    0    0 -0.30108197332E+02  0.53930115168E+02  0.39478683580E+02  0.73304347251E+02  0.00000000000E+00 0. -1.
</event>
<event>
 7    1  0.6235964E-006  0.4479368E+02  0.7818608E-02  0.1521810E+00
          2   -1    0    0  502    0  0.00000000000E+00  0.00000000000E+00  0.48457191958E+03  0.48457191958E+03  0.00000000000E+00 0. -1.
          1   -1    0    0  501    0 -0.00000000000E+00 -0.00000000000E+00 -0.66589372056E+03  0.66589372056E+03  0.00000000000E+00 0. -1.
         25    2    1    2    0    0  0.22423135128E+02  0.52877125987E+02  0.70965793403E+02  0.15479137053E+03  0.12500174845E+03 0.  0.
          2    1    1    2  501    0 -0.37734005253E+02 -0.24102430072E+02 -0.62246066573E+03  0.62406895666E+03  0.00000000000E+00 0. -1.
          1    1    1    2  502    0  0.15310870125E+02 -0.28774695915E+02  0.37017307134E+03  0.37160531295E+03  0.00000000000E+00 0. -1.
         22    1    3    3    0    0  0.62011159015E+02 -0.10377575011E+02  0.29988646053E+02  0.69659147264E+02  0.00000000000E+00 0.  1.
         22    1    3    3    0    0 -0.39588023887E+02  0.63254700998E+02  0.40977147349E+02  0.85132223268E+02  0.00000000000E+00 0.  1.
</event>
<event>
 7    1  0.6235964E-006  0.7933565E+02  0.7818608E-02  0.1379920E+00
          2   -1    0    0  502    0  0.00000000000E+00  0.00000000000E+00  0.97740787202E+03  0.97740787202E+03  0.00000000000E+00 0. -1.
          1   -1    0    0  501    0 -0.00000000000E+00 -0.00000000000E+00 -0.73335619128E+02  0.73335619128E+02  0.00000000000E+00 0. -1.
         25    2    1    2    0    0  0.72923441981E+02  0.56017453026E+02  0.48102310183E+03  0.50543107821E+03  0.12498626680E+03 0.  0.
          2    1    1    2  501    0 -0.48648860735E+02  0.19506970528E+02 -0.45918077402E+02  0.69682877253E+02  0.00000000000E+00 0. -1.
          1    1    1    2  502    0 -0.24274581246E+02 -0.75524423554E+02  0.46896722845E+03  0.47562953568E+03  0.00000000000E+00 0. -1.
         22    1    3    3    0    0  0.68073427478E+02 -0.17015393384E+02  0.13950314117E+03  0.15615582453E+03  0.00000000000E+00 0. -1.
         22    1    3    3    0    0  0.48500145038E+01  0.73032846410E+02  0.34151996067E+03  0.34927525368E+03  0.00000000000E+00 0. -1.
</event>
<event>
 7    1  0.6235964E-006  0.1584032E+03  0.7818608E-02  0.1196717E+00
          2   -1    0    0  502    0  0.00000000000E+00  0.00000000000E+00  0.20796162766E+03  0.20796162766E+03  0.00000000000E+00 0. -1.
          1   -1    0    0  501    0 -0.00000000000E+00 -0.00000000000E+00 -0.12259821684E+04  0.12259821684E+04  0.00000000000E+00 0. -1.
         25    2    1    2    0    0 -0.54541832582E+02 -0.98786132239E+01 -0.94715820271E+02  0.16633744968E+03  0.12499864822E+03 0.  0.
          2    1    1    2  501    0  0.40045775884E+02  0.16761715059E+03 -0.10504465090E+04  0.10644890989E+04  0.00000000000E+00 0. -1.
          1    1    1    2  502    0  0.14496056698E+02 -0.15773853737E+03  0.12714178856E+03  0.20311724749E+03  0.00000000000E+00 0. -1.
         22    1    3    3    0    0 -0.63680708091E+02  0.38502170210E+02 -0.90140943131E+02  0.11688900428E+03  0.00000000000E+00 0.  1.
         22    1    3    3    0    0  0.91388755088E+01 -0.48380783434E+02 -0.45748771403E+01  0.49448445396E+02  0.00000000000E+00 0.  1.
</event>
<event>
 7    1  0.6235964E-006  0.1228156E+03  0.7818608E-02  0.1343755E+00
          2   -1    0    0  502    0  0.00000000000E+00  0.00000000000E+00  0.19713295494E+03  0.19713295494E+03  0.00000000000E+00 0. -1.
          1   -1    0    0  501    0 -0.00000000000E+00 -0.00000000000E+00 -0.93229667563E+03  0.93229667563E+03  0.00000000000E+00 0. -1.
         25    2    1    2    0    0  0.83443632447E+02  0.70793914801E+02 -0.29140941497E+03  0.33543808441E+03  0.12499857265E+03 0.  0.
          2    1    1    2  501    0 -0.12072940855E+03 -0.44117342766E+02 -0.60904475011E+03  0.62246079207E+03  0.00000000000E+00 0. -1.
          1    1    1    2  502    0  0.37285776107E+02 -0.26676572035E+02  0.16529044439E+03  0.17153075410E+03  0.00000000000E+00 0. -1.
         22    1    3    3    0    0 -0.29158651628E+02  0.33537553067E+02 -0.11064750249E+03  0.11923868599E+03  0.00000000000E+00 0.  1.
         22    1    3    3    0    0  0.11260228407E+03  0.37256361734E+02 -0.18076191249E+03  0.21619939841E+03  0.00000000000E+00 0.  1.
</event>
<event>
 7    1  0.6235964E-006  0.5203156E+02  0.7818608E-02  0.1570263E+00
          2   -1    0    0  502    0  0.00000000000E+00  0.00000000000E+00  0.70558451006E+03  0.70558451006E+03  0.00000000000E+00 0. -1.
          1   -1    0    0  501    0 -0.00000000000E+00 -0.00000000000E+00 -0.18146137916E+03  0.18146137916E+03  0.00000000000E+00 0. -1.
         25    2    1    2    0    0 -0.36382887501E+02 -0.47988435566E+02  0.30593726261E+03  0.33593155812E+03  0.12500319452E+03 0.  0.
          2    1    1    2  501    0  0.43338416617E+02  0.28682576437E+02 -0.16212458108E+03  0.17025066325E+03  0.00000000000E+00 0. -1.
          1    1    1    2  502    0 -0.69555291158E+01  0.19305859129E+02  0.38031044938E+03  0.38086366785E+03  0.00000000000E+00 0. -1.
         22    1    3    3    0    0 -0.66263312845E+02 -0.66314731556E+02  0.15642890123E+03  0.18236905272E+03  0.00000000000E+00 0. -1.
         22    1    3    3    0    0  0.29880425344E+02  0.18326295990E+02  0.14950836138E+03  0.15356250540E+03  0.00000000000E+00 0. -1.
</event>
<event>
 7    1  0.6235964E-006  0.1063810E+03  0.7818608E-02  0.1283997E+00
          2   -1    0    0  502    0  0.00000000000E+00  0.00000000000E+00  0.72685731490E+03  0.72685731490E+03  0.00000000000E+00 0. -1.
          1   -1    0    0  501    0 -0.00000000000E+00 -0.00000000000E+00 -0.94781507902E+03  0.94781507902E+03  0.00000000000E+00 0. -1.
         25    2    1    2    0    0  0.15016945957E+03  0.92921384739E+02  0.33592786403E+02  0.21894489825E+03  0.12499257116E+03 0.  0.
          2    1    1    2  501    0 -0.47760957487E+02 -0.77176602826E+02 -0.84823134867E+03  0.85307312579E+03  0.00000000000E+00 0. -1.
          1    1    1    2  502    0 -0.10240850208E+03 -0.15744781913E+02  0.59368079814E+03  0.60265436988E+03  0.00000000000E+00 0. -1.
         22    1    3    3    0    0  0.15579540564E+03  0.38110766605E+02  0.16395389670E+02  0.16122483602E+03  0.00000000000E+00 0. -1.
         22    1    3    3    0    0 -0.56259460695E+01  0.54810618134E+02  0.17197396733E+02  0.57720062229E+02  0.00000000000E+00 0. -1.
</event>
<event>
 7    1  0.6235964E-006  0.1464791E+03  0.7818608E-02  0.1289367E+00
          2   -1    0    0  502    0  0.00000000000E+00  0.00000000000E+00  0.18295203703E+04  0.18295203703E+04  0.00000000000E+00 0. -1.
          1   -1    0    0  501    0 -0.00000000000E+00 -0.00000000000E+00 -0.13693967923E+03  0.13693967923E+03  0.00000000000E+00 0. -1.
         25    2    1    2    0    0  0.17037255207E+01 -0.19977683539E+03  0.13354963774E+03  0.27087812405E+03  0.12500306281E+03 0.  0.
          2    1    1    2  501    0 -0.24825404843E+02  0.57538193644E+02 -0.49964462774E+02  0.80146066614E+02  0.00000000000E+00 0. -1.
          1    1    1    2  502    0  0.23121679322E+02  0.14223864174E+03  0.16089955161E+04  0.16154358588E+04  0.00000000000E+00 0. -1.
         22    1    3    3    0    0  0.58412950838E+02 -0.10817325157E+03  0.98668658484E+02  0.15763574895E+03  0.00000000000E+00 0.  1.
         22    1    3    3    0    0 -0.56709225318E+02 -0.91603583818E+02  0.34880979253E+02  0.11324237510E+03  0.00000000000E+00 0.  1.
</event>
<event>
 7    1  0.6235964E-006  0.1693876E+03  0.7818608E-02  0.1279256E+00
          2   -1    0    0  502    0  0.00000000000E+00  0.00000000000E+00  0.14612090022E+04  0.14612090022E+04  0.00000000000E+00 0. -1.
          1   -1    0    0  501    0 -0.00000000000E+00 -0.00000000000E+00 -0.43584502695E+03  0.43584502695E+03  0.00000000000E+00 0. -1.
         25    2    1    2    0    0 -0.11269123087E+03  0.31623508105E+02  0.31191520297E+03  0.35583026921E+03  0.12499890746E+03 0.  0.
          2    1    1    2  501    0  0.15646335820E+03 -0.72107583380E+02 -0.39512385716E+03  0.43104889344E+03  0.00000000000E+00 0. -1.
          1    1    1    2  502    0 -0.43772127332E+02  0.40484075275E+02  0.11085726294E+04  0.11101748665E+04  0.00000000000E+00 0. -1.
         22    1    3    3    0    0 -0.13302774520E+03  0.21967653528E+02  0.30294952212E+03  0.33159820830E+03  0.00000000000E+00 0.  1.
         22    1    3    3    0    0  0.20336514336E+02  0.96558545770E+01  0.89656808466E+01  0.24232060911E+02  0.00000000000E+00 0.  1.
</event>
<event>
 7    1  0.6235964E-006  0.2727456E+03  0.7818608E-02  0.1192437E+00
          2   -1    0    0  502    0  0.00000000000E+00  0.00000000000E+00  0.22653312314E+03  0.22653312314E+03  0.00000000000E+00 0. -1.
          1   -1    0    0  501    0 -0.00000000000E+00 -0.00000000000E+00 -0.12811784164E+04  0.12811784164E+04  0.00000000000E+00 0. -1.
         25    2    1    2    0    0 -0.19843498622E+03  0.17283682582E+02 -0.54388084669E+03  0.59254093589E+03  0.12499286330E+03 0.  0.
          2    1    1    2  501    0 -0.82971188421E+02  0.35035266308E+02 -0.60665709350E+03  0.61330621804E+03  0.00000000000E+00 0. -1.
          1    1    1    2  502    0  0.28140617464E+03 -0.52318948890E+02  0.95892646960E+02  0.30186438558E+03  0.00000000000E+00 0. -1.
         22    1    3    3    0    0 -0.69904936402E+02  0.14942698637E+02 -0.64699783256E+02  0.96416006603E+02  0.00000000000E+00 0. -1.
         22    1    3    3    0    0 -0.12853004982E+03  0.23409839452E+01 -0.47918106343E+03  0.49612492929E+03  0.00000000000E+00 0. -1.
</event>
<event>
 7    1  0.6235964E-006  0.5359129E+02  0.7818608E-02  0.1480887E+00
          2   -1    0    0  502    0  0.00000000000E+00  0.00000000000E+00  0.15871161141E+04  0.15871161141E+04  0.00000000000E+00 0. -1.
          1   -1    0    0  501    0 -0.00000000000E+00 -0.00000000000E+00 -0.26943535359E+02  0.26943535359E+02  0.00000000000E+00 0. -1.
         25    2    1    2    0    0 -0.26204224096E+01 -0.37928406491E+02  0.52881263697E+03  0.54471403297E+03  0.12500056824E+03 0.  0.
          2    1    1    2  501    0  0.38647412630E+02  0.39755360378E+02  0.22492244862E+02  0.59833203664E+02  0.00000000000E+00 0. -1.
          1    1    1    2  502    0 -0.36026990221E+02 -0.18269538871E+01  0.10088676969E+04  0.10095124128E+04  0.00000000000E+00 0. -1.
         22    1    3    3    0    0  0.16442543931E+02  0.42868839103E+02  0.14802189680E+03  0.15497927781E+03  0.00000000000E+00 0. -1.
         22    1    3    3    0    0 -0.19062966341E+02 -0.80797245594E+02  0.38079074018E+03  0.38973475517E+03  0.00000000000E+00 0. -1.
</event>
<event>
 7    1  0.6235964E-006  0.2240514E+03  0.7818608E-02  0.1228961E+00
          2   -1    0    0  502    0  0.00000000000E+00  0.00000000000E+00  0.41506388749E+03  0.41506388749E+03  0.00000000000E+00 0. -1.
          1   -1    0    0  501    0 -0.00000000000E+00 -0.00000000000E+00 -0.75627754308E+03  0.75627754308E+03  0.00000000000E+00 0. -1.
         25    2    1    2    0    0 -0.58450488376E+02  0.19577872681E+03 -0.14668987387E+03  0.28086958484E+03  0.12499614045E+03 0.  0.
          2    1    1    2  501    0 -0.73768519468E+02 -0.85500212228E+01 -0.50172138755E+03  0.50718758665E+03  0.00000000000E+00 0. -1.
          1    1    1    2  502    0  0.13221900784E+03 -0.18722870559E+03  0.30719760582E+03  0.38328425908E+03  0.00000000000E+00 0. -1.
         22    1    3    3    0    0 -0.15675081164E+02 -0.78144291328E+01  0.10232210982E+02  0.20284763093E+02  0.00000000000E+00 0.  1.
         22    1    3    3    0    0 -0.42775407213E+02  0.20359315595E+03 -0.15692208485E+03  0.26058482175E+03  0.00000000000E+00 0.  1.
</event>
<event>
 7    1  0.6235964E-006  0.1018757E+03  0.7818608E-02  0.1406139E+00
          2   -1    0    0  502    0  0.00000000000E+00  0.00000000000E+00  0.13869106721E+04  0.13869106721E+04  0.00000000000E+00 0. -1.
          1   -1    0    0  501    0 -0.00000000000E+00 -0.00000000000E+00 -0.62170633081E+02  0.62170633081E+02  0.00000000000E+00 0. -1.
         25    2    1    2    0    0 -0.12999652229E+03  0.74217263141E+01  0.67993017087E+03  0.70348090664E+03  0.12500468361E+03 0.  0.
          2    1    1    2  501    0  0.99713247479E+02  0.59252686646E+01 -0.52745782656E-01  0.99889155135E+02  0.00000000000E+00 0. -1.
          1    1    1    2  502    0  0.30283274811E+02 -0.13346994979E+02  0.64486261396E+03  0.64571124343E+03  0.00000000000E+00 0. -1.
         22    1    3    3    0    0 -0.13580124181E+03 -0.31109517950E+02  0.57232084431E+03  0.58903389394E+03  0.00000000000E+00 0.  1.
         22    1    3    3    0    0  0.58047195170E+01  0.38531244264E+02  0.10760932656E+03  0.11444701270E+03  0.00000000000E+00 0.  1.
</event>
<event>
 7    1  0.6235964E-006  0.1873381E+03  0.7818608E-02  0.1278090E+00
          2   -1    0    0  502    0  0.00000000000E+00  0.00000000000E+00  0.97119748590E+03  0.97119748590E+03  0.00000000000E+00 0. -1.
          1   -1    0    0  501    0 -0.00000000000E+00 -0.00000000000E+00 -0.16190896124E+04  0.16190896124E+04  0.00000000000E+00 0. -1.
         25    2    1    2    0    0 -0.16715264857E+03 -0.62773368548E+02  0.29324080236E+03  0.36537013471E+03  0.12499865379E+03 0.  0.
          2    1    1    2  501    0 -0.25286338955E+02  0.48293562812E+02 -0.15680356471E+04  0.15689829374E+04  0.00000000000E+00 0. -1.
          1    1    1    2  502    0  0.19243898752E+03  0.14479805736E+02  0.62690271821E+03  0.65593402625E+03  0.00000000000E+00 0. -1.
         22    1    3    3    0    0 -0.17832561225E+03 -0.54580726706E+02  0.29728431372E+03  0.35093737746E+03  0.00000000000E+00 0.  1.
         22    1    3    3    0    0  0.11172963681E+02 -0.81926418424E+01 -0.40435113639E+01  0.14432757253E+02  0.00000000000E+00 0.  1.
</event>
<event>
 7    1  0.6235964E-006  0.4864359E+02  0.7818608E-02  0.1529968E+00
          2   -1    0    0  502    0  0.00000000000E+00  0.00000000000E+00  0.33958890204E+03  0.33958890204E+03  0.00000000000E+00 0. -1.
          1   -1    0    0  501    0 -0.00000000000E+00 -0.00000000000E+00 -0.69139970746E+03  0.69139970746E+03  0.00000000000E+00 0. -1.
         25    2    1    2    0    0  0.40987488209E+02 -0.24241444166E+02  0.17984536212E+02  0.13496804379E+03  0.12500122998E+03 0.  0.
          2    1    1    2  501    0 -0.20687175755E+02  0.44150528747E+02 -0.63119686063E+03  0.63307717168E+03  0.00000000000E+00 0. -1.
          1    1    1    2  502    0 -0.20300312455E+02 -0.19909084581E+02  0.26140151899E+03  0.26294339404E+03  0.00000000000E+00 0. -1.
         22    1    3    3    0    0 -0.14582091069E+02 -0.16091718024E+02 -0.45372168370E+02  0.50301236878E+02  0.00000000000E+00 0.  1.
         22    1    3    3    0    0  0.55569579278E+02 -0.81497261428E+01  0.63356704582E+02  0.84666806913E+02  0.00000000000E+00 0.  1.
</event>
<event>
 7    1  0.6235964E-006  0.1444996E+03  0.7818608E-02  0.1313005E+00
          2   -1    0    0  502    0  0.00000000000E+00  0.00000000000E+00  0.59277915486E+03  0.59277915486E+03  0.00000000000E+00 0. -1.
          1   -1    0    0  501    0 -0.00000000000E+00 -0.00000000000E+00 -0.10507193219E+04  0.10507193219E+04  0.00000000000E+00 0. -1.
         25    2    1    2    0    0  0.43328640629E+01 -0.19138019233E+03 -0.92846834598E+02  0.24675715540E+03  0.12499362911E+03 0.  0.
          2    1    1    2  501    0 -0.10650581268E+02  0.14066577687E+03 -0.87398159933E+03  0.88529324612E+03  0.00000000000E+00 0. -1.
          1    1    1    2  502    0  0.63177172048E+01  0.50714415464E+02  0.50888826689E+03  0.51144807524E+03  0.00000000000E+00 0. -1.
         22    1    3    3    0    0  0.20964231089E+02  0.10765936567E+02 -0.21039637637E+02  0.31592257394E+02  0.00000000000E+00 0. -1.
         22    1    3    3    0    0 -0.16631367026E+02 -0.20214612890E+03 -0.71807196961E+02  0.21516489800E+03  0.00000000000E+00 0. -1.
</event>
<event>
 7    1  0.6235964E-006  0.1117215E+03  0.7818608E-02  0.1350469E+00
          2   -1    0    0  502    0  0.00000000000E+00  0.00000000000E+00  0.57066001584E+03  0.57066001584E+03  0.00000000000E+00 0. -1.
          1   -1    0    0  501    0 -0.00000000000E+00 -0.00000000000E+00 -0.32165555210E+03  0.32165555210E+03  0.00000000000E+00 0. -1.
         25    2    1    2    0    0  0.11154012650E+03 -0.40797941388E+02 -0.79197672888E+02  0.18973982912E+03  0.12499303789E+03 0.  0.
          2    1    1    2  501    0 -0.80937715481E+02  0.77232078479E+02 -0.16923405656E+03  0.20286910468E+03  0.00000000000E+00 0. -1.
          1    1    1    2  502    0 -0.30602411021E+02 -0.36434137090E+02  0.49743619319E+03  0.49970663414E+03  0.00000000000E+00 0. -1.
         22    1    3    3    0    0 -0.33448531450E+01 -0.21960260602E+02 -0.69446908591E+02  0.72913059195E+02  0.00000000000E+00 0. -1.
         22    1    3    3    0    0  0.11488497965E+03 -0.18837680787E+02 -0.97507642972E+01  0.11682676992E+03  0.00000000000E+00 0. -1.
</event>
<event>
 7    1  0.6235964E-006  0.7889719E+02  0.7818608E-02  0.1391538E+00
          2   -1    0    0  502    0  0.00000000000E+00  0.00000000000E+00  0.12190437338E+04  0.12190437338E+04  0.00000000000E+00 0. -1.
          1   -1    0    0  501    0 -0.00000000000E+00 -0.00000000000E+00 -0.71517707827E+02  0.71517707827E+02  0.00000000000E+00 0. -1.
         25    2    1    2    0    0 -0.96108846238E+02 -0.71613044927E+02  0.29827943448E+03  0.34490715646E+03  0.12499994806E+03 0.  0.
          2    1    1    2  501    0  0.50949336119E+02  0.55406935925E+02 -0.17746193926E+02  0.77334926123E+02  0.00000000000E+00 0. -1.
          1    1    1    2  502    0  0.45159510119E+02  0.16206109002E+02  0.86699278539E+03  0.86831935901E+03  0.00000000000E+00 0. -1.
         22    1    3    3    0    0 -0.72428838242E+02 -0.72287726255E+02  0.93035513997E+02  0.13830061041E+03  0.00000000000E+00 0.  1.
         22    1    3    3    0    0 -0.23680007996E+02  0.67468132811E+00  0.20524392048E+03  0.20660654604E+03  0.00000000000E+00 0.  1.
</event>
<event>
 7    1  0.7139148E-006  0.5331528E+02  0.7818608E-02  0.1501344E+00
          2   -1    0    0  502    0  0.00000000000E+00  0.00000000000E+00  0.25842608027E+04  0.25842608027E+04  0.00000000000E+00 0. -1.
          1   -1    0    0  501    0 -0.00000000000E+00 -0.00000000000E+00 -0.93540275339E+03  0.93540275339E+03  0.00000000000E+00 0. -1.
         25    2    1    2    0    0 -0.59981491563E+02  0.35220121426E+00 -0.18613510549E+02  0.13989136067E+03  0.12500090655E+03 0.  0.
          2    1    1    2  501    0  0.14371048715E+02 -0.27975113069E+02 -0.85557968627E+03  0.85615754014E+03  0.00000000000E+00 0. -1.
          1    1    1    2  502    0  0.45610442848E+02  0.27622911855E+02  0.25230512461E+04  0.25236146553E+04  0.00000000000E+00 0. -1.
         22    1    3    3    0    0 -0.75605664016E+02  0.25358912250E+02  0.28183891476E+02  0.84579090799E+02  0.00000000000E+00 0.  1.
         22    1    3    3    0    0  0.15624172453E+02 -0.25006711035E+02 -0.46797402024E+02  0.55312269867E+02  0.00000000000E+00 0.  1.
</event>
<event>
 7    1  0.6235964E-006  0.1820925E+03  0.7818608E-02  0.1389871E+00
          2   -1    0    0  502    0  0.00000000000E+00  0.00000000000E+00  0.11011223048E+04  0.11011223048E+04  0.00000000000E+00 0. -1.
          1   -1    0    0  501    0 -0.00000000000E+00 -0.00000000000E+00 -0.13921255197E+03  0.13921255197E+03  0.00000000000E+00 0. -1.
         25    2    1    2    0    0  0.17762029657E+02 -0.20026376400E+03  0.62985081602E+03  0.67287496766E+03  0.12501042675E+03 0.  0.
          2    1    1    2  501    0 -0.13951560248E+02  0.17954263891E+03 -0.48355064092E+02  0.18646291171E+03  0.00000000000E+00 0. -1.
          1    1    1    2  502    0 -0.38104694089E+01  0.20721125090E+02  0.38041400092E+03  0.38099697741E+03  0.00000000000E+00 0. -1.
         22    1    3    3    0    0 -0.39707578273E+02 -0.14553745767E+03  0.33259832955E+03  0.36521157180E+03  0.00000000000E+00 0.  1.
         22    1    3    3    0    0  0.57469607930E+02 -0.54726306326E+02  0.29725248647E+03  0.30766339586E+03  0.00000000000E+00 0.  1.
</event>
<event>
 7    1  0.6235964E-006  0.7754184E+02  0.7818608E-02  0.1467257E+00
          2   -1    0    0  502    0  0.00000000000E+00  0.00000000000E+00  0.18840050757E+03  0.18840050757E+03  0.00000000000E+00 0. -1.
          1   -1    0    0  501    0 -0.00000000000E+00 -0.00000000000E+00 -0.69062762540E+03  0.69062762540E+03  0.00000000000E+00 0. -1.
         25    2    1    2    0    0  0.33142525171E+02 -0.52354125714E+02 -0.22840525955E+03  0.26764523613E+03  0.12500251349E+03 0.  0.
          2    1    1    2  501    0  0.27335582407E+02  0.27412525281E+01 -0.43308009170E+03  0.43395058977E+03  0.00000000000E+00 0. -1.
          1    1    1    2  502    0 -0.60478107578E+02  0.49612873186E+02  0.15925823342E+03  0.17743230708E+03  0.00000000000E+00 0. -1.
         22    1    3    3    0    0 -0.16382086983E+02 -0.67977356489E+02 -0.19169457994E+03  0.20404927285E+03  0.00000000000E+00 0. -1.
         22    1    3    3    0    0  0.49524612154E+02  0.15623230775E+02 -0.36710679608E+02  0.63595963285E+02  0.00000000000E+00 0. -1.
</event>
<event>
 7    1  0.6235964E-006  0.1906344E+03  0.7818608E-02  0.1267106E+00
          2   -1    0    0  502    0  0.00000000000E+00  0.00000000000E+00  0.35381222163E+03  0.35381222163E+03  0.00000000000E+00 0. -1.
          1   -1    0    0  501    0 -0.00000000000E+00 -0.00000000000E+00 -0.37535193933E+03  0.37535193933E+03  0.00000000000E+00 0. -1.
         25    2    1    2    0    0  0.87519896563E+02  0.14892514151E+03 -0.18737922937E+03  0.28385727767E+03  0.12500219365E+03 0.  0.
          2    1    1    2  501    0 -0.89762701969E+02 -0.20843003400E+03 -0.40521363482E+02  0.23052635996E+03  0.00000000000E+00 0. -1.
          1    1    1    2  502    0  0.22428054056E+01  0.59504892494E+02  0.20636087516E+03  0.21478052333E+03  0.00000000000E+00 0. -1.
         22    1    3    3    0    0 -0.14105096343E+02  0.88709077578E+02 -0.11265524887E+03  0.14408143283E+03  0.00000000000E+00 0.  1.
         22    1    3    3    0    0  0.10162499291E+03  0.60216063931E+02 -0.74723980498E+02  0.13977584484E+03  0.00000000000E+00 0.  1.
</event>
<event>
 7    1  0.6235964E-006  0.1680769E+03  0.7818608E-02  0.1392156E+00
          2   -1    0    0  502    0  0.00000000000E+00  0.00000000000E+00  0.20308231535E+04  0.20308231535E+04  0.00000000000E+00 0. -1.
          1   -1    0    0  501    0 -0.00000000000E+00 -0.00000000000E+00 -0.37868600330E+03  0.37868600330E+03  0.00000000000E+00 0. -1.
         25    2    1    2    0    0 -0.43509951406E+02  0.18119254922E+03  0.22081243008E+03  0.31481238885E+03  0.12499942053E+03 0.  0.
          2    1    1    2  501    0  0.14383814061E+02 -0.17185696256E+02 -0.32736752600E+03  0.32813372173E+03  0.00000000000E+00 0. -1.
          1    1    1    2  502    0  0.29126137346E+02 -0.16400685296E+03  0.17586922462E+04  0.17665630463E+04  0.00000000000E+00 0. -1.
         22    1    3    3    0    0 -0.43426792892E+02  0.41943080865E+02  0.14317079640E+03  0.15538013166E+03  0.00000000000E+00 0.  1.
         22    1    3    3    0    0 -0.83158514454E-01  0.13924946836E+03  0.77641633677E+02  0.15943225719E+03  0.00000000000E+00 0.  1.
</event>
<event>
 7    1  0.6235964E-006  0.1342842E+03  0.7818608E-02  0.1242667E+00
          2   -1    0    0  502    0  0.00000000000E+00  0.00000000000E+00  0.13911007701E+04  0.13911007701E+04  0.00000000000E+00 0. -1.
          1   -1    0    0  501    0 -0.00000000000E+00 -0.00000000000E+00 -0.47165824092E+03  0.47165824092E+03  0.00000000000E+00 0. -1.
         25    2    1    2    0    0 -0.13991582887E+03  0.58946162095E+02  0.55588124623E+03  0.58964439166E+03  0.12500183801E+03 0.  0.
          2    1    1    2  501    0  0.83545679861E+02  0.67970279919E+02 -0.44237711500E+03  0.45529918894E+03  0.00000000000E+00 0. -1.
          1    1    1    2  502    0  0.56370149010E+02 -0.12691644201E+03  0.80593839797E+03  0.81781543045E+03  0.00000000000E+00 0. -1.
         22    1    3    3    0    0 -0.44991938953E+02  0.42674422337E+02  0.41113892069E+03  0.41578912082E+03  0.00000000000E+00 0.  1.
         22    1    3    3    0    0 -0.94923889918E+02  0.16271739759E+02  0.14474232555E+03  0.17385527083E+03  0.00000000000E+00 0.  1.
</event>
<event>
 7    1  0.6235964E-006  0.1110733E+03  0.7818608E-02  0.1379244E+00
          2   -1    0    0  502    0  0.00000000000E+00  0.00000000000E+00  0.22369513486E+03  0.22369513486E+03  0.00000000000E+00 0. -1.
          1   -1    0    0  501    0 -0.00000000000E+00 -0.00000000000E+00 -0.76625417974E+03  0.76625417974E+03  0.00000000000E+00 0. -1.
         25    2    1    2    0    0 -0.48821704300E+02 -0.13353806378E+03 -0.27751477796E+03  0.33593821946E+03  0.12499624802E+03 0.  0.
          2    1    1    2  501    0  0.38788844113E+02  0.97255040427E+02 -0.45165932771E+03  0.46363699769E+03  0.00000000000E+00 0. -1.
          1    1    1    2  502    0  0.10032860187E+02  0.36283023349E+02  0.18661506079E+03  0.19037409745E+03  0.00000000000E+00 0. -1.
         22    1    3    3    0    0 -0.50158262814E+02 -0.98459388520E+02 -0.82787272365E+02  0.13807184717E+03  0.00000000000E+00 0. -1.
         22    1    3    3    0    0  0.13365585142E+01 -0.35078675256E+02 -0.19472750559E+03  0.19786637228E+03  0.00000000000E+00 0. -1.
</event>
<event>
 7    1  0.6235964E-006  0.1122104E+03  0.7818608E-02  0.1302646E+00
          2   -1    0    0  502    0  0.00000000000E+00  0.00000000000E+00  0.89672539078E+03  0.89672539078E+03  0.00000000000E+00 0. -1.
          1   -1    0    0  501    0 -0.00000000000E+00 -0.00000000000E+00 -0.14472119420E+03  0.14472119420E+03  0.00000000000E+00 0. -1.
         25    2    1    2    0    0  0.15232798500E+03 -0.92422383010E+02  0.13305111810E+03  0.25509503004E+03  0.12500064971E+03 0.  0.
          2    1    1    2  501    0 -0.54301486290E+02  0.47769180987E+02 -0.63017854865E+02  0.95925992814E+02  0.00000000000E+00 0. -1.
          1    1    1    2  502    0 -0.98026498713E+02  0.44653202023E+02  0.68197093335E+03  0.69042556212E+03  0.00000000000E+00 0. -1.
         22    1    3    3    0    0  0.42566880166E+02 -0.87614042197E+02  0.24052424814E+02  0.10033284017E+03  0.00000000000E+00 0. -1.
         22    1    3    3    0    0  0.10976110484E+03 -0.48083408130E+01  0.10899869328E+03  0.15476218987E+03  0.00000000000E+00 0. -1.
</event>
<event>
 7    1  0.1068153E-005  0.7178211E+02  0.7818608E-02  0.1384255E+00
          2   -1    0    0  502    0  0.00000000000E+00  0.00000000000E+00  0.12928773441E+04  0.12928773441E+04  0.00000000000E+00 0. -1.
          1   -1    0    0  501    0 -0.00000000000E+00 -0.00000000000E+00 -0.26645151911E+04  0.26645151911E+04  0.00000000000E+00 0. -1.
         25    2    1    2    0    0  0.88789066818E+02  0.53248456270E+02 -0.32796265668E+03  0.36592691303E+03  0.12499642002E+03 0.  0.
          2    1    1    2  501    0 -0.33688937382E+02 -0.62807419858E+02 -0.23164082926E+04  0.23175044972E+04  0.00000000000E+00 0. -1.
          1    1    1    2  502    0 -0.55100129436E+02  0.95589635876E+01  0.12727331023E+04  0.12739611249E+04  0.00000000000E+00 0. -1.
         22    1    3    3    0    0  0.63802514307E+02  0.52331622315E+02 -0.74315041096E+02  0.11104992057E+03  0.00000000000E+00 0.  1.
         22    1    3    3    0    0  0.24986552511E+02  0.91683395507E+00 -0.25364761559E+03  0.25487699246E+03  0.00000000000E+00 0.  1.
</event>
<event>
 7    1  0.6235964E-006  0.5898130E+02  0.7818608E-02  0.1411655E+00
          2   -1    0    0  502    0  0.00000000000E+00  0.00000000000E+00  0.11294351627E+03  0.11294351627E+03  0.00000000000E+00 0. -1.
          1   -1    0    0  501    0 -0.00000000000E+00 -0.00000000000E+00 -0.37376495362E+03  0.37376495362E+03  0.00000000000E+00 0. -1.
         25    2    1    2    0    0  0.75100080833E+01  0.23643569580E+01 -0.28684968997E+02  0.12849080599E+03  0.12500027749E+03 0.  0.
          2    1    1    2  501    0 -0.61725937095E+02 -0.99914240174E+01 -0.27914075049E+03  0.28605852277E+03  0.00000000000E+00 0. -1.
          1    1    1    2  502    0  0.54215929012E+02  0.76270670594E+01  0.47004282136E+02  0.72159141138E+02  0.00000000000E+00 0. -1.
         22    1    3    3    0    0  0.36389457863E+02  0.31078323625E+02 -0.60266562796E+02  0.76955269047E+02  0.00000000000E+00 0. -1.
         22    1    3    3    0    0 -0.28879449780E+02 -0.28713966667E+02  0.31581593799E+02  0.51535536945E+02  0.00000000000E+00 0. -1.
</event>
<event>
 7    1  0.7500754E-006  0.4885970E+02  0.7818608E-02  0.1500677E+00
          2   -1    0    0  502    0  0.00000000000E+00  0.00000000000E+00  0.19688876083E+04  0.19688876083E+04  0.00000000000E+00 0. -1.
          1   -1    0    0  501    0 -0.00000000000E+00 -0.00000000000E+00 -0.59079345886E+03  0.59079345886E+03  0.00000000000E+00 0. -1.
         25    2    1    2    0    0 -0.15416366955E+02 -0.46587932121E+02 -0.12312655807E+03  0.18219138937E+03  0.12500181306E+03 0.  0.
          2    1    1    2  501    0 -0.19044756919E+02  0.45575340624E+02 -0.43658850666E+03  0.43937380280E+03  0.00000000000E+00 0. -1.
          1    1    1    2  502    0  0.34461123874E+02  0.10125914972E+01  0.19378092142E+04  0.19381158750E+04  0.00000000000E+00 0. -1.
         22    1    3    3    0    0 -0.23261883913E+02 -0.87563781216E+02 -0.69171354833E+02  0.11398775089E+03  0.00000000000E+00 0. -1.
         22    1    3    3    0    0  0.78455169583E+01  0.40975849095E+02 -0.53955203237E+02  0.68203638479E+02  0.00000000000E+00 0. -1.
</event>
<event>
 7    1  0.6235964E-006  0.7254505E+02  0.7818608E-02  0.1468469E+00
          2   -1    0    0  502    0  0.00000000000E+00  0.00000000000E+00  0.14797628546E+03  0.14797628546E+03  0.00000000000E+00 0. -1.
          1   -1    0    0  501    0 -0.00000000000E+00 -0.00000000000E+00 -0.10941052344E+04  0.10941052344E+04  0.00000000000E+00 0. -1.
         25    2    1    2    0    0  0.44717413852E+02 -0.59962494884E+01 -0.60320526288E+02  0.14594578895E+03  0.12500402118E+03 0.  0.
          2    1    1    2  501    0 -0.71124837780E+02  0.18246362189E+02 -0.98756809876E+03  0.99029410882E+03  0.00000000000E+00 0. -1.
          1    1    1    2  502    0  0.26407423928E+02 -0.12250112700E+02  0.10175967607E+03  0.10584162213E+03  0.00000000000E+00 0. -1.
         22    1    3    3    0    0 -0.14056941356E+02 -0.25451214565E+02  0.26481508913E+02  0.39327245484E+02  0.00000000000E+00 0.  1.
         22    1    3    3    0    0  0.58774355208E+02  0.19454965076E+02 -0.86802035200E+02  0.10661854347E+03  0.00000000000E+00 0.  1.
</event>
<event>
 7    1  0.6235964E-006  0.1365108E+03  0.7818608E-02  0.1316392E+00
          2   -1    0    0  502    0  0.00000000000E+00  0.00000000000E+00  0.69209334146E+03  0.69209334146E+03  0.00000000000E+00 0. -1.
          1   -1    0    0  501    0 -0.00000000000E+00 -0.00000000000E+00 -0.38520374087E+03  0.38520374087E+03  0.00000000000E+00 0. -1.
         25    2    1    2    0    0 -0.76646499286E+02  0.38988350413E+02 -0.18763528982E+03  0.24130448825E+03  0.12500430691E+03 0.  0.
          2    1    1    2  501    0 -0.43477982125E+02  0.29375891291E+02 -0.15929946856E+03  0.16771880814E+03  0.00000000000E+00 0. -1.
          1    1    1    2  502    0  0.12012448141E+03 -0.68364241704E+02  0.65382435898E+03  0.66827378594E+03  0.00000000000E+00 0. -1.
         22    1    3    3    0    0 -0.18748503232E+02  0.72932661974E+02 -0.57023657926E+02  0.94458335362E+02  0.00000000000E+00 0. -1.
         22    1    3    3    0    0 -0.57897996054E+02 -0.33944311561E+02 -0.13061163189E+03  0.14684615289E+03  0.00000000000E+00 0. -1.
</event>
<event>
 7    1  0.6235964E-006  0.1808929E+03  0.7818608E-02  0.1396935E+00
          2   -1    0    0  502    0  0.00000000000E+00  0.00000000000E+00  0.20491856341E+04  0.20491856341E+04  0.00000000000E+00 0. -1.
          1   -1    0    0  501    0 -0.00000000000E+00 -0.00000000000E+00 -0.28899816793E+02  0.28899816793E+02  0.00000000000E+00 0. -1.
         25    2    1    2    0    0  0.26358551919E+02  0.16736563009E+03  0.80745461661E+03  0.83445405027E+03  0.12499830686E+03 0.  0.
          2    1    1    2  501    0 -0.25397668513E+02 -0.18738623310E+03  0.57120968417E+03  0.60169688815E+03  0.00000000000E+00 0. -1.
          1    1    1    2  502    0 -0.96088340661E+00  0.20020603013E+02  0.64162151650E+03  0.64193451245E+03  0.00000000000E+00 0. -1.
         22    1    3    3    0    0  0.11569806212E+01  0.16264152263E+03  0.49687266638E+03  0.52281550291E+03  0.00000000000E+00 0. -1.
         22    1    3    3    0    0  0.25201571298E+02  0.47241074623E+01  0.31058195023E+03  0.31163854736E+03  0.00000000000E+00 0. -1.
</event>
<event>
 7    1  0.6235964E-006  0.4127173E+03  0.7818608E-02  0.1082563E+00
          2   -1    0    0  502    0  0.00000000000E+00  0.00000000000E+00  0.96795809195E+03  0.96795809195E+03  0.00000000000E+00 0. -1.
          1   -1    0    0  501    0 -0.00000000000E+00 -0.00000000000E+00 -0.41928405271E+04  0.41928405271E+04  0.00000000000E+00 0. -1.
         25    2    1    2    0    0 -0.13374191546E+03 -0.41439328329E+03 -0.81958318811E+03  0.93645692039E+03  0.12500507319E+03 0.  0.
          2    1    1    2  501    0  0.31363897267E+03  0.27757353266E+03 -0.32872844177E+04  0.33138580709E+04  0.00000000000E+00 0. -1.
          1    1    1    2  502    0 -0.17989705721E+03  0.13681975064E+03  0.88198517061E+03  0.91048362782E+03  0.00000000000E+00 0. -1.
         22    1    3    3    0    0  0.10257675698E+02 -0.15826088624E+03 -0.26463507999E+03  0.30851815763E+03  0.00000000000E+00 0.  1.
         22    1    3    3    0    0 -0.14399959116E+03 -0.25613239706E+03 -0.55494810812E+03  0.62793876276E+03  0.00000000000E+00 0.  1.
</event>
<event>
 7    1  0.6235964E-006  0.3122644E+02  0.7818608E-02  0.1585375E+00
          2   -1    0    0  502    0  0.00000000000E+00  0.00000000000E+00  0.42089526626E+03  0.42089526626E+03  0.00000000000E+00 0. -1.
          1   -1    0    0  501    0 -0.00000000000E+00 -0.00000000000E+00 -0.19736252314E+03  0.19736252314E+03  0.00000000000E+00 0. -1.
         25    2    1    2    0    0 -0.14817806476E+02  0.24047211705E+02  0.19204081207E+01  0.12816459301E+03  0.12499855661E+03 0.  0.
          2    1    1    2  501    0  0.31003860360E+02  0.28907914205E+01 -0.13172787784E+03  0.13535815392E+03  0.00000000000E+00 0. -1.
          1    1    1    2  502    0 -0.16186053885E+02 -0.26938003126E+02  0.35334021284E+03  0.35473504248E+03  0.00000000000E+00 0. -1.
         22    1    3    3    0    0 -0.15581512041E+02 -0.19608633492E+01 -0.59459010828E+02  0.61497987537E+02  0.00000000000E+00 0.  1.
         22    1    3    3    0    0  0.76370556467E+00  0.26008075054E+02  0.61379418948E+02  0.66666605468E+02  0.00000000000E+00 0.  1.
</event>
<event>
 7    1  0.6235964E-006  0.1306610E+03  0.7818608E-02  0.1432254E+00
          2   -1    0    0  502    0  0.00000000000E+00  0.00000000000E+00  0.70186048105E+02  0.70186048105E+02  0.00000000000E+00 0. -1.
          1   -1    0    0  501    0 -0.00000000000E+00 -0.00000000000E+00 -0.18002928043E+04  0.18002928043E+04  0.00000000000E+00 0. -1.
         25    2    1    2    0    0 -0.86415873633E+02 -0.80038761636E+02 -0.79464381863E+03  0.81299272149E+03  0.12499784055E+03 0.  0.
          2    1    1    2  501    0 -0.20842796367E+02  0.33031871206E+01 -0.92494502197E+03  0.92518572561E+03  0.00000000000E+00 0. -1.
          1    1    1    2  502    0  0.10725867000E+03  0.76735574515E+02 -0.10517915568E+02  0.13230040527E+03  0.00000000000E+00 0. -1.
         22    1    3    3    0    0  0.20524988641E+02  0.17502126576E+02 -0.11907143602E+03  0.12208851899E+03  0.00000000000E+00 0.  1.
         22    1    3    3    0    0 -0.10694086227E+03 -0.97540888212E+02 -0.67557238261E+03  0.69090420250E+03  0.00000000000E+00 0.  1.
</event>
<event>
 7    1  0.6235964E-006  0.1113421E+03  0.7818608E-02  0.1410704E+00
          2   -1    0    0  502    0  0.00000000000E+00  0.00000000000E+00  0.16456596146E+03  0.16456596146E+03  0.00000000000E+00 0. -1.
          1   -1    0    0  501    0 -0.00000000000E+00 -0.00000000000E+00 -0.92754211108E+03  0.92754211108E+03  0.00000000000E+00 0. -1.
         25    2    1    2    0    0 -0.55416204408E+02  0.64882640444E+02 -0.23937580067E+03  0.28320763480E+03  0.12500031089E+03 0.  0.
          2    1    1    2  501    0 -0.11771471527E+02  0.26742079423E+02 -0.64324202232E+03  0.64390527691E+03  0.00000000000E+00 0. -1.
          1    1    1    2  502    0  0.67187675935E+02 -0.91624719867E+02  0.11964167337E+03  0.16499516082E+03  0.00000000000E+00 0. -1.
         22    1    3    3    0    0  0.20614526499E+02  0.46046231926E+01 -0.14939165290E+03  0.15087752389E+03  0.00000000000E+00 0.  1.
         22    1    3    3    0    0 -0.76030730907E+02  0.60278017251E+02 -0.89984147765E+02  0.13233011092E+03  0.00000000000E+00 0.  1.
</event>
<event>
 7    1  0.6235964E-006  0.1934188E+03  0.7818608E-02  0.1191124E+00
          2   -1    0    0  502    0  0.00000000000E+00  0.00000000000E+00  0.24288432120E+04  0.24288432120E+04  0.00000000000E+00 0. -1.
          1   -1    0    0  501    0 -0.00000000000E+00 -0.00000000000E+00 -0.51852918984E+03  0.51852918984E+03  0.00000000000E+00 0. -1.
         25    2    1    2    0    0 -0.65903111965E+02  0.93419101793E+02  0.54137933336E+03  0.56726246655E+03  0.12499909849E+03 0.  0.
          2    1    1    2  501    0 -0.11140941542E+02 -0.19670090103E+03 -0.48407182359E+03  0.52262883142E+03  0.00000000000E+00 0. -1.
          1    1    1    2  502    0  0.77044053507E+02  0.10328179924E+03  0.18530065124E+04  0.18574811039E+04  0.00000000000E+00 0. -1.
         22    1    3    3    0    0 -0.92087415933E+02  0.42659179132E+02  0.43321979169E+03  0.44494863259E+03  0.00000000000E+00 0.  1.
         22    1    3    3    0    0  0.26184303967E+02  0.50759922661E+02  0.10815954167E+03  0.12231383396E+03  0.00000000000E+00 0.  1.
</event>
<event>
 7    1  0.6235964E-006  0.2103525E+03  0.7818608E-02  0.1187245E+00
          2   -1    0    0  502    0  0.00000000000E+00  0.00000000000E+00  0.13370607844E+03  0.13370607844E+03  0.00000000000E+00 0. -1.
          1   -1    0    0  501    0 -0.00000000000E+00 -0.00000000000E+00 -0.21935617258E+04  0.21935617258E+04  0.00000000000E+00 0. -1.
         25    2    1    2    0    0  0.14972908329E+02  0.31856077553E+03 -0.40780081335E+03  0.53257068513E+03  0.12499950238E+03 0.  0.
          2    1    1    2  501    0 -0.36510225755E+02 -0.19677553201E+03 -0.16588084834E+04  0.16708378710E+04  0.00000000000E+00 0. -1.
          1    1    1    2  502    0  0.21537317427E+02 -0.12178524353E+03  0.67536493152E+01  0.12385924819E+03  0.00000000000E+00 0. -1.
         22    1    3    3    0    0 -0.48824337541E+02  0.10053298554E+03 -0.17219242685E+03  0.20528255889E+03  0.00000000000E+00 0.  1.
         22    1    3    3    0    0  0.63797245869E+02  0.21802778999E+03 -0.23560838649E+03  0.32728812623E+03  0.00000000000E+00 0.  1.
</event>
<event>
 7    1  0.6235964E-006  0.7569367E+02  0.7818608E-02  0.1355590E+00
          2   -1    0    0  502    0  0.00000000000E+00  0.00000000000E+00  0.16214404630E+04  0.16214404630E+04  0.00000000000E+00 0. -1.
          1   -1    0    0  501    0 -0.00000000000E+00 -0.00000000000E+00 -0.31781411523E+04  0.31781411523E+04  0.00000000000E+00 0. -1.
         25    2    1    2    0    0 -0.11816827169E+03  0.72686059400E+02  0.27727585629E+03  0.33430179521E+03  0.12501514360E+03 0.  0.
          2    1    1    2  501    0  0.53855733532E+02 -0.53063450058E+02 -0.31483149364E+04  0.31492226197E+04  0.00000000000E+00 0. -1.
          1    1    1    2  502    0  0.64312538155E+02 -0.19622609342E+02  0.13143383908E+04  0.13160572005E+04  0.00000000000E+00 0. -1.
         22    1    3    3    0    0 -0.10607107553E+02  0.36858076448E+02  0.41461338895E+01  0.38577441029E+02  0.00000000000E+00 0. -1.
         22    1    3    3    0    0 -0.10756116413E+03  0.35827982951E+02  0.27312972240E+03  0.29572435418E+03  0.00000000000E+00 0. -1.
</event>
<event>
 7    1  0.6235964E-006  0.7365793E+02  0.7818608E-02  0.1426532E+00
          2   -1    0    0  502    0  0.00000000000E+00  0.00000000000E+00  0.13817866493E+04  0.13817866493E+04  0.00000000000E+00 0. -1.
          1   -1    0    0  501    0 -0.00000000000E+00 -0.00000000000E+00 -0.13291011555E+04  0.13291011555E+04  0.00000000000E+00 0. -1.
         25    2    1    2    0    0  0.93710795492E+02  0.10177514960E+02  0.86831185596E+03  0.88231283736E+03  0.12500067506E+03 0.  0.
          2    1    1    2  501    0 -0.27672143184E+02 -0.27616786700E+02 -0.13195070290E+04  0.13200860707E+04  0.00000000000E+00 0. -1.
          1    1    1    2  502    0 -0.66038652308E+02  0.17439271740E+02  0.50388066675E+03  0.50848889676E+03  0.00000000000E+00 0. -1.
         22    1    3    3    0    0  0.35260691225E+02  0.11568110204E+02  0.74414155238E+03  0.74506629739E+03  0.00000000000E+00 0.  1.
         22    1    3    3    0    0  0.58450104267E+02 -0.13905952447E+01  0.12417030358E+03  0.13724653997E+03  0.00000000000E+00 0.  1.
</event>
<event>
 7    1  0.6235964E-006  0.3873341E+02  0.7818608E-02  0.1562417E+00
          2   -1    0    0  502    0  0.00000000000E+00  0.00000000000E+00  0.54291388929E+03  0.54291388929E+03  0.00000000000E+00 0. -1.
          1   -1    0    0  501    0 -0.00000000000E+00 -0.00000000000E+00 -0.68414750600E+03  0.68414750600E+03  0.00000000000E+00 0. -1.
         25    2    1    2    0    0  0.38637011276E+02 -0.30783313162E+01  0.27258194527E+02  0.13367783771E+03  0.12499784143E+03 0.  0.
          2    1    1    2  501    0 -0.12785292196E+02 -0.25984355531E+02 -0.62978645350E+03  0.63045192318E+03  0.00000000000E+00 0. -1.
          1    1    1    2  502    0 -0.25851719081E+02  0.29062686847E+02  0.46129464226E+03  0.46293163440E+03  0.00000000000E+00 0. -1.
         22    1    3    3    0    0 -0.12921528554E+02  0.48010904474E+02 -0.12014876820E+02  0.51150465429E+02  0.00000000000E+00 0. -1.
         22    1    3    3    0    0  0.51558539830E+02 -0.51089235790E+02  0.39273071348E+02  0.82527372284E+02  0.00000000000E+00 0. -1.
</event>
<event>
 7    1  0.6235964E-006  0.6596352E+02  0.7818608E-02  0.1428709E+00
          2   -1    0    0  502    0  0.00000000000E+00  0.00000000000E+00  0.29252637214E+03  0.29252637214E+03  0.00000000000E+00 0. -1.
          1   -1    0    0  501    0 -0.00000000000E+00 -0.00000000000E+00 -0.20228994371E+04  0.20228994371E+04  0.00000000000E+00 0. -1.
         25    2    1    2    0    0 -0.10268802732E+02 -0.29378968633E+02  0.66673701028E+02  0.14504527577E+03  0.12499670999E+03 0.  0.
          2    1    1    2  501    0  0.51416212496E+02  0.41650748772E+02 -0.19806845890E+04  0.19817895582E+04  0.00000000000E+00 0. -1.
          1    1    1    2  502    0 -0.41147409764E+02 -0.12271780139E+02  0.18363782301E+03  0.18859097529E+03  0.00000000000E+00 0. -1.
         22    1    3    3    0    0 -0.48309905688E+02 -0.45324977677E+02  0.77938295782E+02  0.10228674664E+03  0.00000000000E+00 0. -1.
         22    1    3    3    0    0  0.38041102956E+02  0.15946009044E+02 -0.11264594754E+02  0.42758529131E+02  0.00000000000E+00 0. -1.
</event>
<event>
 7    1  0.6235964E-006  0.1621332E+03  0.7818608E-02  0.1302776E+00
          2   -1    0    0  502    0  0.00000000000E+00  0.00000000000E+00  0.99329777375E+03  0.99329777375E+03  0.00000000000E+00 0. -1.
          1   -1    0    0  501    0 -0.00000000000E+00 -0.00000000000E+00 -0.25504507052E+03  0.25504507052E+03  0.00000000000E+00 0. -1.
         25    2    1    2    0    0  0.93778347355E+02 -0.10855393734E+03  0.25027481332E+03  0.31439027867E+03  0.12500171756E+03 0.  0.
          2    1    1    2  501    0  0.47605089621E+02  0.15268709279E+02 -0.20992109695E+03  0.21579213375E+03  0.00000000000E+00 0. -1.
          1    1    1    2  502    0 -0.14138343698E+03  0.93285228066E+02  0.69789898686E+03  0.71816043186E+03  0.00000000000E+00 0. -1.
         22    1    3    3    0    0  0.99641729185E+02 -0.25120362183E+02  0.16885568976E+03  0.19766575514E+03  0.00000000000E+00 0.  1.
         22    1    3    3    0    0 -0.58633818302E+01 -0.83433575162E+02  0.81419123557E+02  0.11672452352E+03  0.00000000000E+00 0.  1.
</event>
<event>
 7    1  0.6235964E-006  0.6629834E+02  0.7818608E-02  0.1520792E+00
          2   -1    0    0  502    0  0.00000000000E+00  0.00000000000E+00  0.11366121702E+03  0.11366121702E+03  0.00000000000E+00 0. -1.
          1   -1    0    0  501    0 -0.00000000000E+00 -0.00000000000E+00 -0.35155867380E+03  0.35155867380E+03  0.00000000000E+00 0. -1.
         25    2    1    2    0    0  0.13882792616E+02 -0.52811834409E+02 -0.12228586329E+02  0.13696185534E+03  0.12500875854E+03 0.  0.
          2    1    1    2  501    0  0.30232171759E+01  0.67157450017E+02 -0.27024026285E+03  0.27847632323E+03  0.00000000000E+00 0. -1.
          1    1    1    2  502    0 -0.16906009791E+02 -0.14345615607E+02  0.44571392400E+02  0.49781712252E+02  0.00000000000E+00 0. -1.
         22    1    3    3    0    0 -0.52098124223E+02 -0.25138488939E+02 -0.27106558712E+02  0.63882107815E+02  0.00000000000E+00 0.  1.
         22    1    3    3    0    0  0.65980916839E+02 -0.27673345470E+02  0.14877972383E+02  0.73079747527E+02  0.00000000000E+00 0.  1.
</event>
<event>
 7    1  0.6235964E-006  0.7570910E+02  0.7818608E-02  0.1504925E+00
          2   -1    0    0  502    0  0.00000000000E+00  0.00000000000E+00  0.12208548470E+04  0.12208548470E+04  0.00000000000E+00 0. -1.
          1   -1    0    0  501    0 -0.00000000000E+00 -0.00000000000E+00 -0.41473394004E+03  0.41473394004E+03  0.00000000000E+00 0. -1.
         25    2    1    2    0    0 -0.41452754963E+02  0.61495460747E+02 -0.54574284747E+02  0.15525442839E+03  0.12500224955E+03 0.  0.
          2    1    1    2  501    0  0.18731362065E+02  0.10779796527E+02 -0.30821485137E+03  0.30897162094E+03  0.00000000000E+00 0. -1.
          1    1    1    2  502    0  0.22721392899E+02 -0.72275257274E+02  0.11689100430E+04  0.11713627377E+04  0.00000000000E+00 0. -1.
         22    1    3    3    0    0 -0.53935144967E+02  0.66441905869E+02 -0.85850414954E+02  0.12121806988E+03  0.00000000000E+00 0.  1.
         22    1    3    3    0    0  0.12482390003E+02 -0.49464451219E+01  0.31276130207E+02  0.34036358505E+02  0.00000000000E+00 0.  1.
</event>
<event>
 7    1  0.6235964E-006  0.1064901E+03  0.7818608E-02  0.1321350E+00
          2   -1    0    0  502    0  0.00000000000E+00  0.00000000000E+00  0.18161749945E+03  0.18161749945E+03  0.00000000000E+00 0. -1.
          1   -1    0    0  501    0 -0.00000000000E+00 -0.00000000000E+00 -0.43858492660E+03  0.43858492660E+03  0.00000000000E+00 0. -1.
         25    2    1    2    0    0 -0.96439421855E+02 -0.12179723261E+03 -0.84239483232E+02  0.21646363905E+03  0.12500035415E+03 0.  0.
          2    1    1    2  501    0  0.16255212618E+02  0.62257469755E+02 -0.26199883325E+03  0.26978438261E+03  0.00000000000E+00 0. -1.
          1    1    1    2  502    0  0.80184209237E+02  0.59539762855E+02  0.89270889334E+02  0.13395440439E+03  0.00000000000E+00 0. -1.
         22    1    3    3    0    0 -0.12411021234E+03 -0.74936812233E+02 -0.61042947450E+02  0.15730579159E+03  0.00000000000E+00 0.  1.
         22    1    3    3    0    0  0.27670790484E+02 -0.46860420376E+02 -0.23196535782E+02  0.59157847460E+02  0.00000000000E+00 0.  1.
</event>
<event>
 7    1  0.6235964E-006  0.7531704E+02  0.7818608E-02  0.1393699E+00
          2   -1    0    0  502    0  0.00000000000E+00  0.00000000000E+00  0.19162332998E+04  0.19162332998E+04  0.00000000000E+00 0. -1.
          1   -1    0    0  501    0 -0.00000000000E+00 -0.00000000000E+00 -0.29892597574E+03  0.29892597574E+03  0.00000000000E+00 0. -1.
         25    2    1    2    0    0 -0.16482400265E+02  0.11064885979E+03  0.11558312142E+04  0.11679408549E+04  0.12500081982E+03 0.  0.
          2    1    1    2  501    0  0.22402070254E+02 -0.44026133972E+02 -0.28929082699E+03  0.29347799884E+03  0.00000000000E+00 0. -1.
          1    1    1    2  502    0 -0.59196699887E+01 -0.66622725814E+02  0.75076693677E+03  0.75374042179E+03  0.00000000000E+00 0. -1.
         22    1    3    3    0    0  0.12694781325E+02  0.32684472070E+02  0.64290655100E+02  0.73230598253E+02  0.00000000000E+00 0. -1.
         22    1    3    3    0    0 -0.29177181590E+02  0.77964387716E+02  0.10915405591E+04  0.10947102566E+04  0.00000000000E+00 0. -1.
</event>
<event>
 7    1  0.6235964E-006  0.7866669E+02  0.7818608E-02  0.1403909E+00
          2   -1    0    0  502    0  0.00000000000E+00  0.00000000000E+00  0.16712032045E+04  0.16712032045E+04  0.00000000000E+00 0. -1.
          1   -1    0    0  501    0 -0.00000000000E+00 -0.00000000000E+00 -0.16732945159E+04  0.16732945159E+04  0.00000000000E+00 0. -1.
         25    2    1    2    0    0 -0.10790931403E+03  0.41473473925E+02 -0.79511990835E+02  0.18791308169E+03  0.12499880196E+03 0.  0.
          2    1    1    2  501    0  0.43493244060E+02  0.32636367424E+01 -0.15383217429E+04  0.15389399268E+04  0.00000000000E+00 0. -1.
          1    1    1    2  502    0  0.64416069969E+02 -0.44737110667E+02  0.16157424223E+04  0.16176447120E+04  0.00000000000E+00 0. -1.
         22    1    3    3    0    0 -0.12154705936E+03  0.55539707943E+02 -0.94138274500E+02  0.16346363976E+03  0.00000000000E+00 0.  1.
         22    1    3    3    0    0  0.13637745327E+02 -0.14066234019E+02  0.14626283665E+02  0.24449441935E+02  0.00000000000E+00 0.  1.
</event>
<event>
 7    1  0.6235964E-006  0.7552872E+02  0.7818608E-02  0.1347906E+00
          2   -1    0    0  502    0  0.00000000000E+00  0.00000000000E+00  0.12941166231E+03  0.12941166231E+03  0.00000000000E+00 0. -1.
          1   -1    0    0  501    0 -0.00000000000E+00 -0.00000000000E+00 -0.33154532139E+03  0.33154532139E+03  0.00000000000E+00 0. -1.
         25    2    1    2    0    0  0.92225402420E+02  0.80947566263E+01  0.38925267418E+02  0.16034688137E+03  0.12499958394E+03 0.  0.
          2    1    1    2  501    0 -0.54749233465E+02  0.53312460048E+02 -0.20770081231E+03  0.22131272986E+03  0.00000000000E+00 0. -1.
          1    1    1    2  502    0 -0.37476168954E+02 -0.61407216674E+02 -0.33358114185E+02  0.79297372473E+02  0.00000000000E+00 0. -1.
         22    1    3    3    0    0  0.77481619766E+02 -0.25344394472E+02 -0.26234270361E+02  0.85638640076E+02  0.00000000000E+00 0.  1.
         22    1    3    3    0    0  0.14743782654E+02  0.33439151099E+02  0.65159537779E+02  0.74708241290E+02  0.00000000000E+00 0.  1.
</event>
<event>
 7    1  0.6235964E-006  0.2046902E+03  0.7818608E-02  0.1266888E+00
          2   -1    0    0  502    0  0.00000000000E+00  0.00000000000E+00  0.16801740977E+04  0.16801740977E+04  0.00000000000E+00 0. -1.
          1   -1    0    0  501    0 -0.00000000000E+00 -0.00000000000E+00 -0.23548741816E+03  0.23548741816E+03  0.00000000000E+00 0. -1.
         25    2    1    2    0    0 -0.16832193783E+03 -0.10234207267E+03  0.52802391962E+03  0.57727069965E+03  0.12500410546E+03 0.  0.
          2    1    1    2  501    0  0.24159293385E+02 -0.50049758473E+02 -0.19723325525E+03  0.20491365683E+03  0.00000000000E+00 0. -1.
          1    1    1    2  502    0  0.14416264445E+03  0.15239183114E+03  0.11138960152E+04  0.11334771594E+04  0.00000000000E+00 0. -1.
         22    1    3    3    0    0 -0.74688930475E+02 -0.67909680253E+02  0.11801341168E+03  0.15529754133E+03  0.00000000000E+00 0. -1.
         22    1    3    3    0    0 -0.93633007359E+02 -0.34432392415E+02  0.41001050794E+03  0.42197315831E+03  0.00000000000E+00 0. -1.
</event>
<event>
 7    1  0.6235964E-006  0.1218265E+03  0.7818608E-02  0.1313295E+00
          2   -1    0    0  502    0  0.00000000000E+00  0.00000000000E+00  0.22860387394E+04  0.22860387394E+04  0.00000000000E+00 0. -1.
          1   -1    0    0  501    0 -0.00000000000E+00 -0.00000000000E+00 -0.19697222098E+03  0.19697222098E+03  0.00000000000E+00 0. -1.
         25    2    1    2    0    0  0.89880527015E+02 -0.96790611598E+01  0.77134505055E+03  0.78661980462E+03  0.12500134658E+03 0.  0.
          2    1    1    2  501    0  0.32155948159E+02 -0.51198930755E+02 -0.18133267243E+03  0.19114621001E+03  0.00000000000E+00 0. -1.
          1    1    1    2  502    0 -0.12203647517E+03  0.60877991915E+02  0.14990541402E+04  0.15052449457E+04  0.00000000000E+00 0. -1.
         22    1    3    3    0    0  0.63339642860E+02 -0.65401679729E+02  0.51196302259E+03  0.51999560245E+03  0.00000000000E+00 0.  1.
         22    1    3    3    0    0  0.26540884155E+02  0.55722618569E+02  0.25938202796E+03  0.26662420217E+03  0.00000000000E+00 0.  1.
</event>
<event>
 7    1  0.6235964E-006  0.1451047E+03  0.7818608E-02  0.1303751E+00
          2   -1    0    0  502    0  0.00000000000E+00  0.00000000000E+00  0.44954695263E+03  0.44954695263E+03  0.00000000000E+00 0. -1.
          1   -1    0    0  501    0 -0.00000000000E+00 -0.00000000000E+00 -0.25695336284E+03  0.25695336284E+03  0.00000000000E+00 0. -1.
         25    2    1    2    0    0 -0.10462326329E+03 -0.60635398910E+01  0.65881411447E+02  0.17592015475E+03  0.12499898694E+03 0.  0.
          2    1    1    2  501    0 -0.54907607860E+02  0.70875809791E+01 -0.17811977123E+03  0.18652541947E+03  0.00000000000E+00 0. -1.
          1    1    1    2  502    0  0.15953087115E+03 -0.10240410881E+01  0.30483194957E+03  0.34405474126E+03  0.00000000000E+00 0. -1.
         22    1    3    3    0    0 -0.42888011363E+02  0.49477539354E+02 -0.64476868931E+01  0.65794992861E+02  0.00000000000E+00 0. -1.
         22    1    3    3    0    0 -0.61735251923E+02 -0.55541079245E+02  0.72329098340E+02  0.11012516189E+03  0.00000000000E+00 0. -1.
</event>
<event>
 7    1  0.6235964E-006  0.1243537E+03  0.7818608E-02  0.1368690E+00
          2   -1    0    0  502    0  0.00000000000E+00  0.00000000000E+00  0.38900294004E+03  0.38900294004E+03  0.00000000000E+00 0. -1.
          1   -1    0    0  501    0 -0.00000000000E+00 -0.00000000000E+00 -0.12899385813E+04  0.12899385813E+04  0.00000000000E+00 0. -1.
         25    2    1    2    0    0 -0.79033251661E+01  0.12889347311E+03 -0.35755758370E+01  0.17976297083E+03  0.12500380386E+03 0.  0.
          2    1    1    2  501    0 -0.34634822633E+02 -0.12061123110E+02 -0.11851297075E+04  0.11856970377E+04  0.00000000000E+00 0. -1.
          1    1    1    2  502    0  0.42538147799E+02 -0.11683235000E+03  0.28776964203E+03  0.31348151285E+03  0.00000000000E+00 0. -1.
         22    1    3    3    0    0 -0.36033210619E+02 -0.88407655176E+01  0.10292723289E+02  0.38503136952E+02  0.00000000000E+00 0.  1.
         22    1    3    3    0    0  0.28129885453E+02  0.13773423863E+03 -0.13868299126E+02  0.14125983388E+03  0.00000000000E+00 0.  1.
</event>
<event>
 7    1  0.6235964E-006  0.8836059E+02  0.7818608E-02  0.1401112E+00
          2   -1    0    0  502    0  0.00000000000E+00  0.00000000000E+00  0.11417792588E+04  0.11417792588E+04  0.00000000000E+00 0. -1.
          1   -1    0    0  501    0 -0.00000000000E+00 -0.00000000000E+00 -0.13453143495E+04  0.13453143495E+04  0.00000000000E+00 0. -1.
         25    2    1    2    0    0 -0.41234653138E+02 -0.28501296401E+02  0.29834003013E+03  0.32733165175E+03  0.12500646440E+03 0.  0.
          2    1    1    2  501    0  0.79551060831E+02  0.38878610435E+02 -0.13288691488E+04  0.13318157276E+04  0.00000000000E+00 0. -1.
          1    1    1    2  502    0 -0.38316407693E+02 -0.10377314035E+02  0.82699402792E+03  0.82794622891E+03  0.00000000000E+00 0. -1.
         22    1    3    3    0    0  0.19734122937E+02  0.48423313003E+01  0.22639946425E+03  0.22730948329E+03  0.00000000000E+00 0.  1.
         22    1    3    3    0    0 -0.60968776075E+02 -0.33343627701E+02  0.71940565882E+02  0.10002216846E+03  0.00000000000E+00 0.  1.
</event>
<event>
 7    1  0.6235964E-006  0.9471436E+02  0.7818608E-02  0.1312760E+00
          2   -1    0    0  502    0  0.00000000000E+00  0.00000000000E+00  0.60292299906E+03  0.60292299906E+03  0.00000000000E+00 0. -1.
          1   -1    0    0  501    0 -0.00000000000E+00 -0.00000000000E+00 -0.16759585925E+03  0.16759585925E+03  0.00000000000E+00 0. -1.
         25    2    1    2    0    0 -0.40402719240E+02 -0.28511318098E+02  0.25426643451E+03  0.28761201302E+03  0.12499590128E+03 0.  0.
          2    1    1    2  501    0  0.56853167593E+02 -0.75753069187E+02 -0.12633310346E+03  0.15789510184E+03  0.00000000000E+00 0. -1.
          1    1    1    2  502    0 -0.16450448353E+02  0.10426438729E+03  0.30739380877E+03  0.32501174344E+03  0.00000000000E+00 0. -1.
         22    1    3    3    0    0 -0.80348764896E+02 -0.45745890432E+01  0.20290187098E+03  0.21827968328E+03  0.00000000000E+00 0.  1.
         22    1    3    3    0    0  0.39946045656E+02 -0.23936729055E+02  0.51364563523E+02  0.69332329740E+02  0.00000000000E+00 0.  1.
</event>
<event>
 7    1  0.6235964E-006  0.4037527E+02  0.7818608E-02  0.1508354E+00
          2   -1    0    0  502    0  0.00000000000E+00  0.00000000000E+00  0.21480926762E+04  0.21480926762E+04  0.00000000000E+00 0. -1.
          1   -1    0    0  501    0 -0.00000000000E+00 -0.00000000000E+00 -0.12805925949E+04  0.12805925949E+04  0.00000000000E+00 0. -1.
         25    2    1    2    0    0  0.97757420347E+01  0.27265838507E+02  0.38795614957E+03  0.40862295570E+03  0.12499501931E+03 0.  0.
          2    1    1    2  501    0  0.31164939147E+02 -0.24415363335E+02 -0.12697099815E+04  0.12703270447E+04  0.00000000000E+00 0. -1.
          1    1    1    2  502    0 -0.40940681182E+02 -0.28504751722E+01  0.17492539132E+04  0.17497352707E+04  0.00000000000E+00 0. -1.
         22    1    3    3    0    0  0.29102911775E+02  0.56164926396E+02  0.98345140975E+02  0.11693265234E+03  0.00000000000E+00 0.  1.
         22    1    3    3    0    0 -0.19327169740E+02 -0.28899087889E+02  0.28961100860E+03  0.29169030336E+03  0.00000000000E+00 0.  1.
</event>
<event>
 7    1  0.6235964E-006  0.9244770E+02  0.7818608E-02  0.1362661E+00
          2   -1    0    0  502    0  0.00000000000E+00  0.00000000000E+00  0.22997647689E+03  0.22997647689E+03  0.00000000000E+00 0. -1.
          1   -1    0    0  501    0 -0.00000000000E+00 -0.00000000000E+00 -0.40168672388E+03  0.40168672388E+03  0.00000000000E+00 0. -1.
         25    2    1    2    0    0 -0.60542043926E+02 -0.21751868739E+02 -0.14456042750E+02  0.14132476489E+03  0.12500091649E+03 0.  0.
          2    1    1    2  501    0 -0.37588575362E+02  0.35749191930E+02 -0.30667336921E+03  0.31102967881E+03  0.00000000000E+00 0. -1.
          1    1    1    2  502    0  0.98130619288E+02 -0.13997323190E+02  0.14941916497E+03  0.17930875706E+03  0.00000000000E+00 0. -1.
         22    1    3    3    0    0 -0.91092920767E+02 -0.54995134769E+01 -0.38644914271E+02  0.99103956840E+02  0.00000000000E+00 0. -1.
         22    1    3    3    0    0  0.30550876841E+02 -0.16252355262E+02  0.24188871521E+02  0.42220808055E+02  0.00000000000E+00 0. -1.
</event>
<event>
 7    1  0.7296788E-006  0.9186071E+02  0.7818608E-02  0.1366052E+00
          2   -1    0    0  502    0  0.00000000000E+00  0.00000000000E+00  0.12019633181E+04  0.12019633181E+04  0.00000000000E+00 0. -1.
          1   -1    0    0  501    0 -0.00000000000E+00 -0.00000000000E+00 -0.10068893915E+04  0.10068893915E+04  0.00000000000E+00 0. -1.
         25    2    1    2    0    0  0.51748680603E+02 -0.83408440668E+01 -0.28412843034E+02  0.13849213379E+03  0.12500114339E+03 0.  0.
          2    1    1    2  501    0  0.37416209785E+02  0.34283758117E+02 -0.92085743280E+03  0.92225471556E+03  0.00000000000E+00 0. -1.
          1    1    1    2  502    0 -0.89164890388E+02 -0.25942914051E+02  0.11443442025E+04  0.11481058602E+04  0.00000000000E+00 0. -1.
         22    1    3    3    0    0  0.50144838912E+02  0.17761158944E+02 -0.70877810702E+02  0.88620695588E+02  0.00000000000E+00 0. -1.
         22    1    3    3    0    0  0.16038416915E+01 -0.26102003011E+02  0.42464967668E+02  0.49871438203E+02  0.00000000000E+00 0. -1.
</event>
<event>
 7    1  0.6235964E-006  0.7669914E+02  0.7818608E-02  0.1449734E+00
          2   -1    0    0  502    0  0.00000000000E+00  0.00000000000E+00  0.11501254240E+03  0.11501254240E+03  0.00000000000E+00 0. -1.
          1   -1    0    0  501    0 -0.00000000000E+00 -0.00000000000E+00 -0.14814331377E+04  0.14814331377E+04  0.00000000000E+00 0. -1.
         25    2    1    2    0    0 -0.53475906871E+02  0.25437975680E+02 -0.27681165493E+03  0.30945685944E+03  0.12502836609E+03 0.  0.
          2    1    1    2  501    0  0.78172410599E+02 -0.57985806289E+01 -0.11844477278E+04  0.11870387395E+04  0.00000000000E+00 0. -1.
          1    1    1    2  502    0 -0.24696503728E+02 -0.19639395051E+02  0.94838787374E+02  0.99950081165E+02  0.00000000000E+00 0. -1.
         22    1    3    3    0    0 -0.74500634706E+02  0.41382530444E+02 -0.26863966346E+03  0.28183350969E+03  0.00000000000E+00 0. -1.
         22    1    3    3    0    0  0.21024727835E+02 -0.15944554764E+02 -0.81719914721E+01  0.27623349756E+02  0.00000000000E+00 0. -1.
</event>
<event>
 7    1  0.6235964E-006  0.1628300E+03  0.7818608E-02  0.1357803E+00
          2   -1    0    0  502    0  0.00000000000E+00  0.00000000000E+00  0.26025835610E+04  0.26025835610E+04  0.00000000000E+00 0. -1.
          1   -1    0    0  501    0 -0.00000000000E+00 -0.00000000000E+00 -0.18246288955E+02  0.18246288955E+02  0.00000000000E+00 0. -1.
         25    2    1    2    0    0  0.72627864567E+02 -0.16592816271E+03  0.14226934976E+04  0.14396137455E+04  0.12499594470E+03 0.  0.
          2    1    1    2  501    0 -0.48402632434E+02  0.14710512322E+03  0.63246342516E+03  0.65114723087E+03  0.00000000000E+00 0. -1.
          1    1    1    2  502    0 -0.24225232133E+02  0.18823039492E+02  0.52918034936E+03  0.53006887367E+03  0.00000000000E+00 0. -1.
         22    1    3    3    0    0 -0.20515323081E+02 -0.71894164432E+01  0.48485881072E+02  0.53136116279E+02  0.00000000000E+00 0. -1.
         22    1    3    3    0    0  0.93143187648E+02 -0.15873874627E+03  0.13742076165E+04  0.13864776292E+04  0.00000000000E+00 0. -1.
</event>
<event>
 7    1  0.6235964E-006  0.3725016E+02  0.7818608E-02  0.1557001E+00
          2   -1    0    0  502    0  0.00000000000E+00  0.00000000000E+00  0.67959225487E+03  0.67959225487E+03  0.00000000000E+00 0. -1.
          1   -1    0    0  501    0 -0.00000000000E+00 -0.00000000000E+00 -0.11244896380E+04  0.11244896380E+04  0.00000000000E+00 0. -1.
         25    2    1    2    0    0  0.11779786337E+02 -0.23808463211E+02 -0.59627391288E+03  0.60981445507E+03  0.12500193660E+03 0.  0.
          2    1    1    2  501    0  0.25104495559E+02  0.18466270424E+02 -0.52046288139E+03  0.52139509946E+03  0.00000000000E+00 0. -1.
          1    1    1    2  502    0 -0.36884281896E+02  0.53421927867E+01  0.67183941116E+03  0.67287233831E+03  0.00000000000E+00 0. -1.
         22    1    3    3    0    0  0.52832263369E+02 -0.14062375632E+02 -0.12227063426E+03  0.13393694959E+03  0.00000000000E+00 0.  1.
         22    1    3    3    0    0 -0.41052477032E+02 -0.97460875794E+01 -0.47400327861E+03  0.47587750549E+03  0.00000000000E+00 0.  1.
</event>
<event>
 7    1  0.6235964E-006  0.1793046E+03  0.7818608E-02  0.1346707E+00
          2   -1    0    0  502    0  0.00000000000E+00  0.00000000000E+00  0.98456078483E+03  0.98456078483E+03  0.00000000000E+00 0. -1.
          1   -1    0    0  501    0 -0.00000000000E+00 -0.00000000000E+00 -0.24129710481E+03  0.24129710481E+03  0.00000000000E+00 0. -1.
         25    2    1    2    0    0 -0.17413010783E+03  0.14187512994E+02  0.46668936424E+03  0.51375736031E+03  0.12500033036E+03 0.  0.
          2    1    1    2  501    0  0.17416220221E+03 -0.44803489007E+02 -0.18003556950E+03  0.25446538388E+03  0.00000000000E+00 0. -1.
          1    1    1    2  502    0 -0.32094382032E-01  0.30615976012E+02  0.45660988528E+03  0.45763514545E+03  0.00000000000E+00 0. -1.
         22    1    3    3    0    0  0.56862968915E+00  0.71850009025E+01 -0.62468256531E+01  0.95378408684E+01  0.00000000000E+00 0.  1.
         22    1    3    3    0    0 -0.17469873752E+03  0.70025120919E+01  0.47293618990E+03  0.50421951944E+03  0.00000000000E+00 0.  1.
</event>
<event>
 7    1  0.6235964E-006  0.9190885E+02  0.7818608E-02  0.1332260E+00
          2   -1    0    0  502    0  0.00000000000E+00  0.00000000000E+00  0.57962984755E+03  0.57962984755E+03  0.00000000000E+00 0. -1.
          1   -1    0    0  501    0 -0.00000000000E+00 -0.00000000000E+00 -0.15417370713E+04  0.15417370713E+04  0.00000000000E+00 0. -1.
         25    2    1    2    0    0 -0.10018494542E+02 -0.52523176698E+02 -0.35345101999E+03  0.37869743336E+03  0.12500027269E+03 0.  0.
          2    1    1    2  501    0 -0.47387907325E+02  0.88405645234E+02 -0.11714912922E+04  0.11757776234E+04  0.00000000000E+00 0. -1.
          1    1    1    2  502    0  0.57406401867E+02 -0.35882468536E+02  0.56283508847E+03  0.56689186212E+03  0.00000000000E+00 0. -1.
         22    1    3    3    0    0  0.54284814849E+02 -0.35480751383E+02 -0.22336199880E+03  0.23258612889E+03  0.00000000000E+00 0. -1.
         22    1    3    3    0    0 -0.64303309392E+02 -0.17042425315E+02 -0.13008902119E+03  0.14611130447E+03  0.00000000000E+00 0. -1.
</event>
<event>
 7    1  0.6235964E-006  0.1753118E+03  0.7818608E-02  0.1206842E+00
          2   -1    0    0  502    0  0.00000000000E+00  0.00000000000E+00  0.13444330901E+04  0.13444330901E+04  0.00000000000E+00 0. -1.
          1   -1    0    0  501    0 -0.00000000000E+00 -0.00000000000E+00 -0.57573485545E+03  0.57573485545E+03  0.00000000000E+00 0. -1.
         25    2    1    2    0    0 -0.63303153463E+02 -0.27051531682E+02 -0.31970663097E+03  0.35010793996E+03  0.12499666049E+03 0.  0.
          2    1    1    2  501    0 -0.11371786091E+03  0.37741044079E+02 -0.21956090869E+03  0.25012622998E+03  0.00000000000E+00 0. -1.
          1    1    1    2  502    0  0.17702101437E+03 -0.10689512397E+02  0.13079657743E+04  0.13199337756E+04  0.00000000000E+00 0. -1.
         22    1    3    3    0    0 -0.25980572620E+02 -0.69069634083E+02 -0.10615212556E+03  0.12928216531E+03  0.00000000000E+00 0.  1.
         22    1    3    3    0    0 -0.37322580843E+02  0.42018102401E+02 -0.21355450541E+03  0.22082577466E+03  0.00000000000E+00 0.  1.
</event>
<event>
 7    1  0.6235964E-006  0.9093613E+02  0.7818608E-02  0.1369285E+00
          2   -1    0    0  502    0  0.00000000000E+00  0.00000000000E+00  0.69123871947E+03  0.69123871947E+03  0.00000000000E+00 0. -1.
          1   -1    0    0  501    0 -0.00000000000E+00 -0.00000000000E+00 -0.62583267418E+03  0.62583267418E+03  0.00000000000E+00 0. -1.
         25    2    1    2    0    0  0.50326868434E+02 -0.10377522964E+03 -0.27067027420E+03  0.31967334914E+03  0.12500624321E+03 0.  0.
          2    1    1    2  501    0 -0.66161708964E+02  0.56448256355E+02 -0.32398386982E+03  0.33545390933E+03  0.00000000000E+00 0. -1.
          1    1    1    2  502    0  0.15834840529E+02  0.47326973282E+02  0.66006018931E+03  0.66194413517E+03  0.00000000000E+00 0. -1.
         22    1    3    3    0    0  0.82003562362E+02 -0.73501765637E+02 -0.12049507679E+03  0.16323650732E+03  0.00000000000E+00 0. -1.
         22    1    3    3    0    0 -0.31676693927E+02 -0.30273464000E+02 -0.15017519741E+03  0.15643684182E+03  0.00000000000E+00 0. -1.
</event>
<event>
 7    1  0.6235964E-006  0.8544831E+02  0.7818608E-02  0.1486031E+00
          2   -1    0    0  502    0  0.00000000000E+00  0.00000000000E+00  0.80657450374E+03  0.80657450374E+03  0.00000000000E+00 0. -1.
          1   -1    0    0  501    0 -0.00000000000E+00 -0.00000000000E+00 -0.66773373274E+02  0.66773373274E+02  0.00000000000E+00 0. -1.
         25    2    1    2    0    0 -0.10387170434E+03 -0.33058479795E+01  0.15982028644E+03  0.22796460331E+03  0.12500030725E+03 0.  0.
          2    1    1    2  501    0  0.20612332950E+02 -0.71608748515E+01 -0.25815763510E+02  0.33802367430E+02  0.00000000000E+00 0. -1.
          1    1    1    2  502    0  0.83259371388E+02  0.10466722831E+02  0.60579660754E+03  0.61158090628E+03  0.00000000000E+00 0. -1.
         22    1    3    3    0    0 -0.32605306524E+02  0.58505869532E+02  0.52694781343E+02  0.85221961747E+02  0.00000000000E+00 0. -1.
         22    1    3    3    0    0 -0.71266397814E+02 -0.61811717511E+02  0.10712550509E+03  0.14274264156E+03  0.00000000000E+00 0. -1.
</event>
<event>
 7    1  0.6235964E-006  0.6575233E+02  0.7818608E-02  0.1414699E+00
          2   -1    0    0  502    0  0.00000000000E+00  0.00000000000E+00  0.42181908467E+03  0.42181908467E+03  0.00000000000E+00 0. -1.
          1   -1    0    0  501    0 -0.00000000000E+00 -0.00000000000E+00 -0.13567216521E+03  0.13567216521E+03  0.00000000000E+00 0. -1.
         25    2    1    2    0    0  0.65347154405E+02  0.66777679411E+02  0.15951223850E+03  0.22315802997E+03  0.12500337216E+03 0.  0.
          2    1    1    2  501    0 -0.17583103177E+02 -0.62398486772E+02 -0.90857684166E+02  0.11161476354E+03  0.00000000000E+00 0. -1.
          1    1    1    2  502    0 -0.47764051228E+02 -0.43791926387E+01  0.21749236513E+03  0.22271845637E+03  0.00000000000E+00 0. -1.
         22    1    3    3    0    0  0.21473752354E+02  0.82982781606E+02  0.39549503961E+02  0.94400356709E+02  0.00000000000E+00 0. -1.
         22    1    3    3    0    0  0.43873402051E+02 -0.16205102195E+02  0.11996273454E+03  0.12875767326E+03  0.00000000000E+00 0. -1.
</event>
<event>
 7    1  0.6235964E-006  0.9903709E+02  0.7818608E-02  0.1405845E+00
          2   -1    0    0  502    0  0.00000000000E+00  0.00000000000E+00  0.98286012058E+03  0.98286012058E+03  0.00000000000E+00 0. -1.
          1   -1    0    0  501    0 -0.00000000000E+00 -0.00000000000E+00 -0.76636917245E+03  0.76636917245E+03  0.00000000000E+00 0. -1.
         25    2    1    2    0    0 -0.36518294474E+02 -0.54601133813E+02 -0.45092020045E+03  0.47251370409E+03  0.12500121495E+03 0.  0.
          2    1    1    2  501    0 -0.24911062719E+02 -0.23317351664E+02 -0.30115434442E+03  0.30308117575E+03  0.00000000000E+00 0. -1.
          1    1    1    2  502    0  0.61429357194E+02  0.77918485477E+02  0.96856549300E+03  0.97363441319E+03  0.00000000000E+00 0. -1.
         22    1    3    3    0    0  0.37713805188E+02 -0.34136206571E+01 -0.57191926318E+02  0.68592276123E+02  0.00000000000E+00 0. -1.
         22    1    3    3    0    0 -0.74232099662E+02 -0.51187513156E+02 -0.39372827413E+03  0.40392142797E+03  0.00000000000E+00 0. -1.
</event>
<event>
 7    1  0.6235964E-006  0.2120112E+03  0.7818608E-02  0.1264747E+00
          2   -1    0    0  502    0  0.00000000000E+00  0.00000000000E+00  0.11393919653E+04  0.11393919653E+04  0.00000000000E+00 0. -1.
          1   -1    0    0  501    0 -0.00000000000E+00 -0.00000000000E+00 -0.68620921888E+03  0.68620921888E+03  0.00000000000E+00 0. -1.
         25    2    1    2    0    0  0.13400202744E+03  0.15102815674E+03 -0.40742366244E+03  0.47157715719E+03  0.12499970790E+03 0.  0.
          2    1    1    2  501    0 -0.38692349217E+02  0.38788064451E+02 -0.23332103115E+03  0.23966709288E+03  0.00000000000E+00 0. -1.
          1    1    1    2  502    0 -0.95309678219E+02 -0.18981622119E+03  0.10939274400E+04  0.11143569341E+04  0.00000000000E+00 0. -1.
         22    1    3    3    0    0  0.42796011147E+02 -0.10128257403E+02 -0.13655247360E+03  0.14345960482E+03  0.00000000000E+00 0. -1.
         22    1    3    3    0    0  0.91206016288E+02  0.16115641414E+03 -0.27087118884E+03  0.32811755237E+03  0.00000000000E+00 0. -1.
</event>
<event>
 7    1  0.6235964E-006  0.7876412E+02  0.7818608E-02  0.1361455E+00
          2   -1    0    0  502    0  0.00000000000E+00  0.00000000000E+00  0.68388297075E+03  0.68388297075E+03  0.00000000000E+00 0. -1.
          1   -1    0    0  501    0 -0.00000000000E+00 -0.00000000000E+00 -0.31904214459E+03  0.31904214459E+03  0.00000000000E+00 0. -1.
         25    2    1    2    0    0 -0.93413101384E+02 -0.74813160690E+02 -0.58482388473E+01  0.17315284725E+03  0.12499876036E+03 0.  0.
          2    1    1    2  501    0  0.74751336512E+02  0.16208875722E+02 -0.22153260320E+03  0.23436549286E+03  0.00000000000E+00 0. -1.
          1    1    1    2  502    0  0.18661764871E+02  0.58604284969E+02  0.59222166821E+03  0.59540677522E+03  0.00000000000E+00 0. -1.
         22    1    3    3    0    0 -0.68494694784E+02 -0.10665224814E+03 -0.23711854346E+02  0.12895145320E+03  0.00000000000E+00 0.  1.
         22    1    3    3    0    0 -0.24918406599E+02  0.31839087451E+02  0.17863615499E+02  0.44201394049E+02  0.00000000000E+00 0.  1.
</event>
<event>
 7    1  0.6235964E-006  0.1179024E+03  0.7818608E-02  0.1271316E+00
          2   -1    0    0  502    0  0.00000000000E+00  0.00000000000E+00  0.24293495667E+04  0.24293495667E+04  0.00000000000E+00 0. -1.
          1   -1    0    0  501    0 -0.00000000000E+00 -0.00000000000E+00 -0.30064803270E+03  0.30064803270E+03  0.00000000000E+00 0. -1.
         25    2    1    2    0    0  0.43617418786E+02  0.25782924571E+02  0.14135618433E+03  0.19538017446E+03  0.12499841319E+03 0.  0.
          2    1    1    2  501    0 -0.86421438469E+01  0.92030338231E+02 -0.26410589190E+03  0.27981456707E+03  0.00000000000E+00 0. -1.
          1    1    1    2  502    0 -0.34975274939E+02 -0.11781326280E+03  0.22514512415E+04  0.22548028578E+04  0.00000000000E+00 0. -1.
         22    1    3    3    0    0  0.77962557191E+02  0.25257780023E+02  0.45896697019E+02  0.93928816519E+02  0.00000000000E+00 0. -1.
         22    1    3    3    0    0 -0.34345138405E+02  0.52514454797E+00  0.95459487314E+02  0.10145135794E+03  0.00000000000E+00 0. -1.
</event>
<event>
 7    1  0.6235964E-006  0.8050017E+02  0.7818608E-02  0.1382978E+00
          2   -1    0    0  502    0  0.00000000000E+00  0.00000000000E+00  0.94833142974E+03  0.94833142974E+03  0.00000000000E+00 0. -1.
          1   -1    0    0  501    0 -0.00000000000E+00 -0.00000000000E+00 -0.10861460166E+04  0.10861460166E+04  0.00000000000E+00 0. -1.
         25    2    1    2    0    0 -0.43694352767E+02  0.25501302526E+01 -0.21842003485E+02  0.13423207749E+03  0.12500191152E+03 0.  0.
          2    1    1    2  501    0  0.66634154663E+02 -0.47411082399E+02 -0.10057365240E+04  0.10090559335E+04  0.00000000000E+00 0. -1.
          1    1    1    2  502    0 -0.22939801896E+02  0.44860952146E+02  0.88976394063E+03  0.89118943530E+03  0.00000000000E+00 0. -1.
         22    1    3    3    0    0 -0.37880235518E+02 -0.39546957093E+02 -0.57024852834E+02  0.79061418523E+02  0.00000000000E+00 0.  1.
         22    1    3    3    0    0 -0.58141172496E+01  0.42097087345E+02  0.35182849349E+02  0.55170658965E+02  0.00000000000E+00 0.  1.
</event>
<event>
 7    1  0.6235964E-006  0.4545972E+02  0.7818608E-02  0.1571425E+00
          2   -1    0    0  502    0  0.00000000000E+00  0.00000000000E+00  0.94849829812E+03  0.94849829812E+03  0.00000000000E+00 0. -1.
          1   -1    0    0  501    0 -0.00000000000E+00 -0.00000000000E+00 -0.91782606306E+02  0.91782606306E+02  0.00000000000E+00 0. -1.
         25    2    1    2    0    0  0.20687965917E+02  0.15356511509E+02  0.22265223747E+02  0.12952484457E+03  0.12496851921E+03 0.  0.
          2    1    1    2  501    0  0.23177874871E+02 -0.25458736167E+01 -0.33932384375E+02  0.41171617231E+02  0.00000000000E+00 0. -1.
          1    1    1    2  502    0 -0.43865840788E+02 -0.12810637893E+02  0.86838285244E+03  0.86958444262E+03  0.00000000000E+00 0. -1.
         22    1    3    3    0    0  0.12374924461E+02  0.36594587062E+02 -0.44525418300E+02  0.58947565111E+02  0.00000000000E+00 0. -1.
         22    1    3    3    0    0  0.83130414556E+01 -0.21238075552E+02  0.66790642047E+02  0.70577279464E+02  0.00000000000E+00 0. -1.
</event>
<event>
 7    1  0.6235964E-006  0.7882665E+02  0.7818608E-02  0.1454223E+00
          2   -1    0    0  502    0  0.00000000000E+00  0.00000000000E+00  0.56222002423E+03  0.56222002423E+03  0.00000000000E+00 0. -1.
          1   -1    0    0  501    0 -0.00000000000E+00 -0.00000000000E+00 -0.29935674238E+03  0.29935674238E+03  0.00000000000E+00 0. -1.
         25    2    1    2    0    0 -0.95554949716E+02  0.48516334902E+02 -0.44601180799E+02  0.17058450764E+03  0.12500090300E+03 0.  0.
          2    1    1    2  501    0  0.23889522103E+02 -0.17655893803E+02 -0.18753883107E+03  0.18987694176E+03  0.00000000000E+00 0. -1.
          1    1    1    2  502    0  0.71665427613E+02 -0.30860441099E+02  0.49500329373E+03  0.50111531721E+03  0.00000000000E+00 0. -1.
         22    1    3    3    0    0 -0.84647810881E+02 -0.23974124039E+02 -0.71551369969E+01  0.88267811210E+02  0.00000000000E+00 0.  1.
         22    1    3    3    0    0 -0.10907138836E+02  0.72490458941E+02 -0.37446043802E+02  0.82316696432E+02  0.00000000000E+00 0.  1.
</event>
<event>
 7    1  0.6235964E-006  0.1044240E+03  0.7818608E-02  0.1362229E+00
          2   -1    0    0  502    0  0.00000000000E+00  0.00000000000E+00  0.30742062584E+03  0.30742062584E+03  0.00000000000E+00 0. -1.
          1   -1    0    0  501    0 -0.00000000000E+00 -0.00000000000E+00 -0.71652933162E+03  0.71652933162E+03  0.00000000000E+00 0. -1.
         25    2    1    2    0    0 -0.97310617585E+02 -0.36257102465E+02 -0.39506440045E+03  0.42717331635E+03  0.12496890783E+03 0.  0.
          2    1    1    2  501    0  0.76228083688E+02  0.77243462839E+02 -0.29382452863E+03  0.31322536123E+03  0.00000000000E+00 0. -1.
          1    1    1    2  502    0  0.21082533897E+02 -0.40986360374E+02  0.27978022330E+03  0.28355127988E+03  0.00000000000E+00 0. -1.
         22    1    3    3    0    0 -0.10508351552E+03 -0.43452147599E+02 -0.18714117770E+03  0.21898048944E+03  0.00000000000E+00 0. -1.
         22    1    3    3    0    0  0.77728979351E+01  0.71950451336E+01 -0.20792322275E+03  0.20819282691E+03  0.00000000000E+00 0. -1.
</event>
<event>
 7    1  0.6235964E-006  0.9548944E+02  0.7818608E-02  0.1373905E+00
          2   -1    0    0  502    0  0.00000000000E+00  0.00000000000E+00  0.30789399296E+04  0.30789399296E+04  0.00000000000E+00 0. -1.
          1   -1    0    0  501    0 -0.00000000000E+00 -0.00000000000E+00 -0.27966691276E+02  0.27966691276E+02  0.00000000000E+00 0. -1.
         25    2    1    2    0    0  0.14141027467E+02  0.67390364698E+02  0.40198016618E+03  0.42656201501E+03  0.12500267492E+03 0.  0.
          2    1    1    2  501    0 -0.49161209918E+02 -0.96824231261E+02  0.17516445399E+03  0.20609304273E+03  0.00000000000E+00 0. -1.
          1    1    1    2  502    0  0.35020182450E+02  0.29433866563E+02  0.24738286181E+04  0.24742515631E+04  0.00000000000E+00 0. -1.
         22    1    3    3    0    0  0.65923514151E+02  0.13234917051E+02  0.20881733140E+03  0.21937582055E+03  0.00000000000E+00 0. -1.
         22    1    3    3    0    0 -0.51782486684E+02  0.54155447647E+02  0.19316283478E+03  0.20718619447E+03  0.00000000000E+00 0. -1.
</event>
<event>
 7    1  0.6235964E-006  0.4413068E+02  0.7818608E-02  0.1496437E+00
          2   -1    0    0  502    0  0.00000000000E+00  0.00000000000E+00  0.13928824186E+03  0.13928824186E+03  0.00000000000E+00 0. -1.
          1   -1    0    0  501    0 -0.00000000000E+00 -0.00000000000E+00 -0.18090067663E+04  0.18090067663E+04  0.00000000000E+00 0. -1.
         25    2    1    2    0    0  0.56169795056E+02  0.17151056330E+02 -0.10357428066E+04  0.10449105759E+04  0.12500298203E+03 0.  0.
          2    1    1    2  501    0 -0.33426824494E+02  0.20669635213E+02 -0.76454707700E+03  0.76555654224E+03  0.00000000000E+00 0. -1.
          1    1    1    2  502    0 -0.22742970561E+02 -0.37820691543E+02  0.13057135920E+03  0.13782789000E+03  0.00000000000E+00 0. -1.
         22    1    3    3    0    0 -0.68392139205E+01  0.27542180197E+02 -0.80482636797E+03  0.80532653571E+03  0.00000000000E+00 0. -1.
         22    1    3    3    0    0  0.63009008976E+02 -0.10391123867E+02 -0.23091643864E+03  0.23958404017E+03  0.00000000000E+00 0. -1.
</event>
<event>
 7    1  0.6235964E-006  0.2036878E+03  0.7818608E-02  0.1311095E+00
          2   -1    0    0  502    0  0.00000000000E+00  0.00000000000E+00  0.53992399545E+03  0.53992399545E+03  0.00000000000E+00 0. -1.
          1   -1    0    0  501    0 -0.00000000000E+00 -0.00000000000E+00 -0.15865873636E+04  0.15865873636E+04  0.00000000000E+00 0. -1.
         25    2    1    2    0    0  0.10312289235E+03  0.16178054275E+03  0.29927052530E+03  0.37681061204E+03  0.12496445531E+03 0.  0.
          2    1    1    2  501    0 -0.13811509725E+03 -0.15010886470E+03 -0.15393461631E+04  0.15528023252E+04  0.00000000000E+00 0. -1.
          1    1    1    2  502    0  0.34992204896E+02 -0.11671678048E+02  0.19341226963E+03  0.19689842182E+03  0.00000000000E+00 0. -1.
         22    1    3    3    0    0 -0.10275315606E+02 -0.13534375591E+02  0.43103100619E+02  0.46331832646E+02  0.00000000000E+00 0.  1.
         22    1    3    3    0    0  0.11339820796E+03  0.17531491834E+03  0.25616742468E+03  0.33047877939E+03  0.00000000000E+00 0.  1.
</event>
<event>
 7    1  0.6235964E-006  0.9594825E+02  0.7818608E-02  0.1352238E+00
          2   -1    0    0  502    0  0.00000000000E+00  0.00000000000E+00  0.19891038849E+03  0.19891038849E+03  0.00000000000E+00 0. -1.
          1   -1    0    0  501    0 -0.00000000000E+00 -0.00000000000E+00 -0.14473933404E+04  0.14473933404E+04  0.00000000000E+00 0. -1.
         25    2    1    2    0    0  0.78016713998E+02  0.87257626864E+02  0.96045144039E+02  0.19634195007E+03  0.12499996222E+03 0.  0.
          2    1    1    2  501    0 -0.89647937554E+02 -0.33936782494E+02 -0.13809994379E+04  0.13843221827E+04  0.00000000000E+00 0. -1.
          1    1    1    2  502    0  0.11631223556E+02 -0.53320844371E+02  0.36471341922E+02  0.65639596186E+02  0.00000000000E+00 0. -1.
         22    1    3    3    0    0  0.41092443596E+02  0.11313942822E+03  0.45695838984E+02  0.12875258770E+03  0.00000000000E+00 0.  1.
         22    1    3    3    0    0  0.36924270403E+02 -0.25881801357E+02  0.50349305056E+02  0.67589362372E+02  0.00000000000E+00 0.  1.
</event>
<event>
 7    1  0.6235964E-006  0.1800004E+03  0.7818608E-02  0.1348620E+00
          2   -1    0    0  502    0  0.00000000000E+00  0.00000000000E+00  0.38193706230E+03  0.38193706230E+03  0.00000000000E+00 0. -1.
          1   -1    0    0  501    0 -0.00000000000E+00 -0.00000000000E+00 -0.62051453629E+03  0.62051453629E+03  0.00000000000E+00 0. -1.
         25    2    1    2    0    0  0.15002498887E+03  0.42265486779E+02 -0.62344795360E+02  0.20929818088E+03  0.12499994541E+03 0.  0.
          2    1    1    2  501    0 -0.17904851809E+03 -0.49865773024E+02 -0.46607224152E+03  0.50176518559E+03  0.00000000000E+00 0. -1.
          1    1    1    2  502    0  0.29023529219E+02  0.76002862444E+01  0.28983956289E+03  0.29138823212E+03  0.00000000000E+00 0. -1.
         22    1    3    3    0    0  0.84484196532E+02 -0.33603860580E+02 -0.60146601766E+02  0.10901565307E+03  0.00000000000E+00 0. -1.
         22    1    3    3    0    0  0.65540792337E+02  0.75869347359E+02 -0.21981935943E+01  0.10028252781E+03  0.00000000000E+00 0. -1.
</event>
<event>
 7    1  0.6235964E-006  0.7142758E+02  0.7818608E-02  0.1410933E+00
          2   -1    0    0  502    0  0.00000000000E+00  0.00000000000E+00  0.23061382296E+03  0.23061382296E+03  0.00000000000E+00 0. -1.
          1   -1    0    0  501    0 -0.00000000000E+00 -0.00000000000E+00 -0.21244893743E+03  0.21244893743E+03  0.00000000000E+00 0. -1.
         25    2    1    2    0    0 -0.26526828176E+02 -0.21249673292E+02  0.21984742506E+02  0.13139433158E+03  0.12500368090E+03 0.  0.
          2    1    1    2  501    0  0.71769139652E+02  0.25739041356E+02 -0.14474100783E+03  0.16359482573E+03  0.00000000000E+00 0. -1.
          1    1    1    2  502    0 -0.45242311475E+02 -0.44893680635E+01  0.14092115085E+03  0.14807360309E+03  0.00000000000E+00 0. -1.
         22    1    3    3    0    0  0.40232184716E+02 -0.39690931240E+01 -0.25381426049E+02  0.47734674771E+02  0.00000000000E+00 0. -1.
         22    1    3    3    0    0 -0.66759012892E+02 -0.17280580168E+02  0.47366168555E+02  0.83659656806E+02  0.00000000000E+00 0. -1.
</event>
<event>
 7    1  0.6235964E-006  0.3036103E+03  0.7818608E-02  0.1210914E+00
          2   -1    0    0  502    0  0.00000000000E+00  0.00000000000E+00  0.63156617375E+03  0.63156617375E+03  0.00000000000E+00 0. -1.
          1   -1    0    0  501    0 -0.00000000000E+00 -0.00000000000E+00 -0.12632107448E+04  0.12632107448E+04  0.00000000000E+00 0. -1.
         25    2    1    2    0    0  0.32093608878E+03 -0.16053742345E+03 -0.69432842722E+03  0.79150961859E+03  0.12499309606E+03 0.  0.
          2    1    1    2  501    0 -0.40136808485E+02  0.52690834957E+02 -0.47906021378E+03  0.48361759264E+03  0.00000000000E+00 0. -1.
          1    1    1    2  502    0 -0.28079928029E+03  0.10784658849E+03  0.54174406995E+03  0.61964970732E+03  0.00000000000E+00 0. -1.
         22    1    3    3    0    0  0.64529991352E+02 -0.91708409787E+02 -0.16752658290E+03  0.20159292693E+03  0.00000000000E+00 0.  1.
         22    1    3    3    0    0  0.25640609743E+03 -0.68829013665E+02 -0.52680184432E+03  0.58991669166E+03  0.00000000000E+00 0.  1.
</event>
<event>
 7    1  0.6235964E-006  0.6126184E+02  0.7818608E-02  0.1415335E+00
          2   -1    0    0  502    0  0.00000000000E+00  0.00000000000E+00  0.11473416774E+04  0.11473416774E+04  0.00000000000E+00 0. -1.
          1   -1    0    0  501    0 -0.00000000000E+00 -0.00000000000E+00 -0.27840397567E+03  0.27840397567E+03  0.00000000000E+00 0. -1.
         25    2    1    2    0    0  0.10068879646E+03  0.19114728369E+02  0.55080696668E+03  0.57403616004E+03  0.12500236765E+03 0.  0.
          2    1    1    2  501    0 -0.51374655691E+02 -0.32982156804E+02 -0.26215355421E+03  0.26916846751E+03  0.00000000000E+00 0. -1.
          1    1    1    2  502    0 -0.49314140773E+02  0.13867428435E+02  0.58028428927E+03  0.58254102553E+03  0.00000000000E+00 0. -1.
         22    1    3    3    0    0  0.64375177315E+02  0.59931035017E+02  0.19317775897E+03  0.21225818941E+03  0.00000000000E+00 0. -1.
         22    1    3    3    0    0  0.36313619149E+02 -0.40816306648E+02  0.35762920772E+03  0.36177797063E+03  0.00000000000E+00 0. -1.
</event>
<event>
 7    1  0.6235964E-006  0.5874398E+02  0.7818608E-02  0.1425630E+00
          2   -1    0    0  502    0  0.00000000000E+00  0.00000000000E+00  0.18501774058E+03  0.18501774058E+03  0.00000000000E+00 0. -1.
          1   -1    0    0  501    0 -0.00000000000E+00 -0.00000000000E+00 -0.31449847252E+03  0.31449847252E+03  0.00000000000E+00 0. -1.
         25    2    1    2    0    0  0.68258301680E+02 -0.40934523894E+02  0.10384084429E+03  0.18095023287E+03  0.12500093935E+03 0.  0.
          2    1    1    2  501    0 -0.14905166261E+02  0.47054559652E+02 -0.25567547845E+03  0.26039632456E+03  0.00000000000E+00 0. -1.
          1    1    1    2  502    0 -0.53353135419E+02 -0.61200357582E+01  0.22353902222E+02  0.58169655674E+02  0.00000000000E+00 0. -1.
         22    1    3    3    0    0  0.87235186668E+02 -0.21941540978E+02  0.18965897602E+02  0.91929942268E+02  0.00000000000E+00 0.  1.
         22    1    3    3    0    0 -0.18976884988E+02 -0.18992982916E+02  0.84874946683E+02  0.89020290599E+02  0.00000000000E+00 0.  1.
</event>
<event>
 7    1  0.6235964E-006  0.1347360E+03  0.7818608E-02  0.1334631E+00
          2   -1    0    0  502    0  0.00000000000E+00  0.00000000000E+00  0.75733007812E+03  0.75733007812E+03  0.00000000000E+00 0. -1.
          1   -1    0    0  501    0 -0.00000000000E+00 -0.00000000000E+00 -0.17832608956E+03  0.17832608956E+03  0.00000000000E+00 0. -1.
         25    2    1    2    0    0 -0.88821218134E+02 -0.40684996940E+02  0.18461077852E+03  0.24340783875E+03  0.12498703392E+03 0.  0.
          2    1    1    2  501    0  0.11979285326E+03  0.73649376374E+02 -0.11450445139E+03  0.18134450011E+03  0.00000000000E+00 0. -1.
          1    1    1    2  502    0 -0.30971635126E+02 -0.32964379434E+02  0.50889766143E+03  0.51090382882E+03  0.00000000000E+00 0. -1.
         22    1    3    3    0    0 -0.25107125915E+02 -0.12064971926E+02  0.16972069602E+03  0.17199141251E+03  0.00000000000E+00 0.  1.
         22    1    3    3    0    0 -0.63714092220E+02 -0.28620025014E+02  0.14890082500E+02  0.71416426234E+02  0.00000000000E+00 0.  1.
</event>
<event>
 7    1  0.6235964E-006  0.7075995E+02  0.7818608E-02  0.1388723E+00
          2   -1    0    0  502    0  0.00000000000E+00  0.00000000000E+00  0.14134340186E+03  0.14134340186E+03  0.00000000000E+00 0. -1.
          1   -1    0    0  501    0 -0.00000000000E+00 -0.00000000000E+00 -0.63910650124E+03  0.63910650124E+03  0.00000000000E+00 0. -1.
         25    2    1    2    0    0 -0.11248908127E+03 -0.27975086452E+01 -0.12942680645E+03  0.21222142424E+03  0.12500006087E+03 0.  0.
          2    1    1    2  501    0  0.63236182429E+02  0.26640225227E+02 -0.45804033101E+03  0.46315166112E+03  0.00000000000E+00 0. -1.
          1    1    1    2  502    0  0.49252898839E+02 -0.23842716582E+02  0.89704038085E+02  0.10507681774E+03  0.00000000000E+00 0. -1.
         22    1    3    3    0    0 -0.67798772196E+02 -0.63241978239E+02 -0.77741656912E+02  0.12099581209E+03  0.00000000000E+00 0.  1.
         22    1    3    3    0    0 -0.44690309072E+02  0.60444469594E+02 -0.51685149541E+02  0.91225612152E+02  0.00000000000E+00 0.  1.
</event>
<event>
 7    1  0.6235964E-006  0.9260370E+02  0.7818608E-02  0.1382318E+00
          2   -1    0    0  502    0  0.00000000000E+00  0.00000000000E+00  0.17460133057E+04  0.17460133057E+04  0.00000000000E+00 0. -1.
          1   -1    0    0  501    0 -0.00000000000E+00 -0.00000000000E+00 -0.32635871055E+03  0.32635871055E+03  0.00000000000E+00 0. -1.
         25    2    1    2    0    0 -0.56735469727E+02  0.73563314396E+02 -0.43890031419E+02  0.16180745122E+03  0.12499936665E+03 0.  0.
          2    1    1    2  501    0  0.16980445942E+02 -0.92503052320E+02 -0.21331463654E+03  0.23312718502E+03  0.00000000000E+00 0. -1.
          1    1    1    2  502    0  0.39755023785E+02  0.18939737924E+02  0.16768592631E+04  0.16774373800E+04  0.00000000000E+00 0. -1.
         22    1    3    3    0    0  0.84184953017E+01 -0.23246878732E+01 -0.59883215548E+02  0.60516731085E+02  0.00000000000E+00 0.  1.
         22    1    3    3    0    0 -0.65153965029E+02  0.75888002269E+02  0.15993184129E+02  0.10129072014E+03  0.00000000000E+00 0.  1.
</event>
<event>
 7    1  0.6235964E-006  0.3573878E+02  0.7818608E-02  0.1548434E+00
          2   -1    0    0  502    0  0.00000000000E+00  0.00000000000E+00  0.14201813760E+04  0.14201813760E+04  0.00000000000E+00 0. -1.
          1   -1    0    0  501    0 -0.00000000000E+00 -0.00000000000E+00 -0.83182561098E+03  0.83182561098E+03  0.00000000000E+00 0. -1.
         25    2    1    2    0    0  0.20913548813E+01  0.35009797038E+01 -0.36534340160E+03  0.38616282101E+03  0.12501716929E+03 0.  0.
          2    1    1    2  501    0  0.33401826636E+02 -0.78559893889E+01 -0.45519991129E+03  0.45649135571E+03  0.00000000000E+00 0. -1.
          1    1    1    2  502    0 -0.35493181517E+02  0.43550096850E+01  0.14088990779E+04  0.14093528103E+04  0.00000000000E+00 0. -1.
         22    1    3    3    0    0  0.45969345152E+02 -0.26937218605E+02 -0.81713395798E+02  0.97549338761E+02  0.00000000000E+00 0.  1.
         22    1    3    3    0    0 -0.43877990271E+02  0.30438198309E+02 -0.28363000580E+03  0.28861348225E+03  0.00000000000E+00 0.  1.
</event>
<event>
 7    1  0.6235964E-006  0.4761178E+02  0.7818608E-02  0.1567845E+00
          2   -1    0    0  502    0  0.00000000000E+00  0.00000000000E+00  0.20335864955E+02  0.20335864955E+02  0.00000000000E+00 0. -1.
          1   -1    0    0  501    0 -0.00000000000E+00 -0.00000000000E+00 -0.24796765513E+04  0.24796765513E+04  0.00000000000E+00 0. -1.
         25    2    1    2    0    0  0.54358700291E+01 -0.31393338391E+02 -0.13484095053E+04  0.13545676543E+04  0.12502098176E+03 0.  0.
          2    1    1    2  501    0 -0.16861686016E+02 -0.15298918628E+02 -0.10943628270E+04  0.10945996393E+04  0.00000000000E+00 0. -1.
          1    1    1    2  502    0  0.11425815987E+02  0.46692257019E+02 -0.16568354143E+02  0.50845122632E+02  0.00000000000E+00 0. -1.
         22    1    3    3    0    0 -0.34452667257E+02  0.34157406497E+02 -0.68961554362E+03  0.69131997852E+03  0.00000000000E+00 0. -1.
         22    1    3    3    0    0  0.39888537286E+02 -0.65550744888E+02 -0.65879396166E+03  0.66324767582E+03  0.00000000000E+00 0. -1.
</event>
<event>
 7    1  0.6235964E-006  0.2332862E+03  0.7818608E-02  0.1241849E+00
          2   -1    0    0  502    0  0.00000000000E+00  0.00000000000E+00  0.66410762479E+03  0.66410762479E+03  0.00000000000E+00 0. -1.
          1   -1    0    0  501    0 -0.00000000000E+00 -0.00000000000E+00 -0.14101585250E+04  0.14101585250E+04  0.00000000000E+00 0. -1.
         25    2    1    2    0    0 -0.26699558833E+03 -0.71085014787E+02 -0.32280866090E+02  0.30497190049E+03  0.12500432897E+03 0.  0.
          2    1    1    2  501    0  0.58945658804E+02 -0.20808059039E+02 -0.12161881142E+04  0.12177935355E+04  0.00000000000E+00 0. -1.
          1    1    1    2  502    0  0.20804992952E+03  0.91893073827E+02  0.50241808004E+03  0.55150071382E+03  0.00000000000E+00 0. -1.
         22    1    3    3    0    0 -0.75024244933E+02 -0.78894379624E+02  0.61144782399E+01  0.10904286913E+03  0.00000000000E+00 0. -1.
         22    1    3    3    0    0 -0.19197134339E+03  0.78093648372E+01 -0.38395344329E+02  0.19592903136E+03  0.00000000000E+00 0. -1.
</event>
<event>
 7    1  0.6235964E-006  0.6965733E+02  0.7818608E-02  0.1477548E+00
          2   -1    0    0  502    0  0.00000000000E+00  0.00000000000E+00  0.42147266478E+02  0.42147266478E+02  0.00000000000E+00 0. -1.
          1   -1    0    0  501    0 -0.00000000000E+00 -0.00000000000E+00 -0.99430966526E+03  0.99430966526E+03  0.00000000000E+00 0. -1.
         25    2    1    2    0    0  0.28417887768E+02 -0.52543973684E+02 -0.84847219796E+03  0.85970887835E+03  0.12500335707E+03 0.  0.
          2    1    1    2  501    0 -0.22410992501E+02 -0.17470836357E+02 -0.10260546213E+03  0.10646766442E+03  0.00000000000E+00 0. -1.
          1    1    1    2  502    0 -0.60068952664E+01  0.70014810041E+02 -0.10847386900E+01  0.70280388970E+02  0.00000000000E+00 0. -1.
         22    1    3    3    0    0  0.74081260846E+01 -0.21666506723E+02 -0.20021398623E+02  0.30416677144E+02  0.00000000000E+00 0. -1.
         22    1    3    3    0    0  0.21009761683E+02 -0.30877466961E+02 -0.82845079934E+03  0.82929220120E+03  0.00000000000E+00 0. -1.
</event>
<event>
 7    1  0.6235964E-006  0.5227789E+02  0.7818608E-02  0.1529218E+00
          2   -1    0    0  502    0  0.00000000000E+00  0.00000000000E+00  0.62270825861E+03  0.62270825861E+03  0.00000000000E+00 0. -1.
          1   -1    0    0  501    0 -0.00000000000E+00 -0.00000000000E+00 -0.45997615113E+02  0.45997615113E+02  0.00000000000E+00 0. -1.
         25    2    1    2    0    0 -0.24444679120E+01  0.59647809933E+02  0.12085253027E+03  0.18383628068E+03  0.12500642931E+03 0.  0.
          2    1    1    2  501    0  0.24697016598E+02 -0.45095769274E+02  0.32822126901E+02  0.60998877445E+02  0.00000000000E+00 0. -1.
          1    1    1    2  502    0 -0.22252548686E+02 -0.14552040658E+02  0.42303598633E+03  0.42387071559E+03  0.00000000000E+00 0. -1.
         22    1    3    3    0    0  0.54134045666E+02 -0.99517791138E+00  0.60965271348E+02  0.81536798992E+02  0.00000000000E+00 0. -1.
         22    1    3    3    0    0 -0.56578513578E+02  0.60642987844E+02  0.59887258921E+02  0.10229948169E+03  0.00000000000E+00 0. -1.
</event>
<event>
 7    1  0.6235964E-006  0.7320966E+02  0.7818608E-02  0.1516893E+00
          2   -1    0    0  502    0  0.00000000000E+00  0.00000000000E+00  0.80086294102E+03  0.80086294102E+03  0.00000000000E+00 0. -1.
          1   -1    0    0  501    0 -0.00000000000E+00 -0.00000000000E+00 -0.25973005664E+03  0.25973005664E+03  0.00000000000E+00 0. -1.
         25    2    1    2    0    0  0.76084600466E+02 -0.41903804607E+02  0.25841504894E+03  0.29991269368E+03  0.12499796414E+03 0.  0.
          2    1    1    2  501    0 -0.69447580281E+02  0.22391291228E+02 -0.23320084920E+03  0.24435010210E+03  0.00000000000E+00 0. -1.
          1    1    1    2  502    0 -0.66370201846E+01  0.19512513379E+02  0.51591868464E+03  0.51633020188E+03  0.00000000000E+00 0. -1.
         22    1    3    3    0    0 -0.10766537216E+02 -0.61109517097E+02  0.12516515852E+03  0.13970185507E+03  0.00000000000E+00 0.  1.
         22    1    3    3    0    0  0.86851137682E+02  0.19205712490E+02  0.13324989043E+03  0.16021083861E+03  0.00000000000E+00 0.  1.
</event>
<event>
 7    1  0.6235964E-006  0.1127861E+03  0.7818608E-02  0.1321083E+00
          2   -1    0    0  502    0  0.00000000000E+00  0.00000000000E+00  0.19171311876E+04  0.19171311876E+04  0.00000000000E+00 0. -1.
          1   -1    0    0  501    0 -0.00000000000E+00 -0.00000000000E+00 -0.26226241806E+04  0.26226241806E+04  0.00000000000E+00 0. -1.
         25    2    1    2    0    0  0.93818490485E+02  0.13475427657E+03  0.95670442770E+02  0.22746209693E+03  0.12500219083E+03 0.  0.
          2    1    1    2  501    0 -0.52250393011E+02 -0.31279044920E+02 -0.25545943143E+04  0.25553200568E+04  0.00000000000E+00 0. -1.
          1    1    1    2  502    0 -0.41568097474E+02 -0.10347523165E+03  0.17534308785E+04  0.17569732144E+04  0.00000000000E+00 0. -1.
         22    1    3    3    0    0 -0.25753776051E+01  0.10207292435E+03  0.30346139863E+02  0.10651949427E+03  0.00000000000E+00 0. -1.
         22    1    3    3    0    0  0.96393868091E+02  0.32681352216E+02  0.65324302906E+02  0.12094260266E+03  0.00000000000E+00 0. -1.
</event>
<event>
 7    1  0.6235964E-006  0.4104690E+02  0.7818608E-02  0.1517294E+00
          2   -1    0    0  502    0  0.00000000000E+00  0.00000000000E+00  0.15504111912E+04  0.15504111912E+04  0.00000000000E+00 0. -1.
          1   -1    0    0  501    0 -0.00000000000E+00 -0.00000000000E+00 -0.28858268086E+03  0.28858268086E+03  0.00000000000E+00 0. -1.
         25    2    1    2    0    0 -0.97390606307E+01 -0.64383736636E+02  0.62428192278E+03  0.63999477404E+03  0.12500110735E+03 0.  0.
          2    1    1    2  501    0  0.24684866626E+02  0.27105197684E+02 -0.27908771944E+03  0.28148532737E+03  0.00000000000E+00 0. -1.
          1    1    1    2  502    0 -0.14945805995E+02  0.37278538952E+02  0.91663430703E+03  0.91751377069E+03  0.00000000000E+00 0. -1.
         22    1    3    3    0    0 -0.10924534301E+02 -0.55825252413E+02  0.95610411145E+02  0.11125266278E+03  0.00000000000E+00 0. -1.
         22    1    3    3    0    0  0.11854736700E+01 -0.85584842234E+01  0.52867151164E+03  0.52874211126E+03  0.00000000000E+00 0. -1.
</event>
<event>
 7    1  0.6235964E-006  0.2616737E+03  0.7818608E-02  0.1333659E+00
          2   -1    0    0  502    0  0.00000000000E+00  0.00000000000E+00  0.12900483081E+04  0.12900483081E+04  0.00000000000E+00 0. -1.
          1   -1    0    0  501    0 -0.00000000000E+00 -0.00000000000E+00 -0.13236175327E+04  0.13236175327E+04  0.00000000000E+00 0. -1.
         25    2    1    2    0    0  0.18021736039E+03 -0.17994203321E+03 -0.13247241860E+03  0.31309887592E+03  0.12499812843E+03 0.  0.
          2    1    1    2  501    0  0.20566537895E+02  0.11345473071E+02 -0.10863796439E+04  0.10866335320E+04  0.00000000000E+00 0. -1.
          1    1    1    2  502    0 -0.20078389829E+03  0.16859656013E+03  0.11852828378E+04  0.12139334329E+04  0.00000000000E+00 0. -1.
         22    1    3    3    0    0  0.17005095556E+03 -0.90189612240E+02 -0.10150528872E+03  0.21761162028E+03  0.00000000000E+00 0.  1.
         22    1    3    3    0    0  0.10166404830E+02 -0.89752420966E+02 -0.30967129887E+02  0.95487255641E+02  0.00000000000E+00 0.  1.
</event>
<event>
 7    1  0.6235964E-006  0.6626105E+02  0.7818608E-02  0.1495502E+00
          2   -1    0    0  502    0  0.00000000000E+00  0.00000000000E+00  0.81364886055E+03  0.81364886055E+03  0.00000000000E+00 0. -1.
          1   -1    0    0  501    0 -0.00000000000E+00 -0.00000000000E+00 -0.87256447552E+03  0.87256447552E+03  0.00000000000E+00 0. -1.
         25    2    1    2    0    0 -0.85396948585E+01  0.53645311439E+02 -0.46166772793E+03  0.48136332516E+03  0.12499125555E+03 0.  0.
          2    1    1    2  501    0  0.24015009535E+02  0.10831247703E+02 -0.39924661545E+03  0.40011485421E+03  0.00000000000E+00 0. -1.
          1    1    1    2  502    0 -0.15475314676E+02 -0.64476559142E+02  0.80199872842E+03  0.80473515670E+03  0.00000000000E+00 0. -1.
         22    1    3    3    0    0 -0.55108184566E+02  0.65764685300E+02 -0.25066038005E+03  0.26493873247E+03  0.00000000000E+00 0.  1.
         22    1    3    3    0    0  0.46568489708E+02 -0.12119373861E+02 -0.21100734789E+03  0.21642459268E+03  0.00000000000E+00 0.  1.
</event>
<event>
 7    1  0.6235964E-006  0.4210379E+02  0.7818608E-02  0.1574870E+00
          2   -1    0    0  502    0  0.00000000000E+00  0.00000000000E+00  0.17895365103E+04  0.17895365103E+04  0.00000000000E+00 0. -1.
          1   -1    0    0  501    0 -0.00000000000E+00 -0.00000000000E+00 -0.41968489862E+03  0.41968489862E+03  0.00000000000E+00 0. -1.
         25    2    1    2    0    0  0.12337015141E+02 -0.34031241605E+02 -0.46640996848E+02  0.13824402289E+03  0.12500279969E+03 0.  0.
          2    1    1    2  501    0 -0.34923832955E+02  0.24181002360E+02 -0.32577641439E+03  0.32853411871E+03  0.00000000000E+00 0. -1.
          1    1    1    2  502    0  0.22586817814E+02  0.98502392449E+01  0.17422690230E+04  0.17424432673E+04  0.00000000000E+00 0. -1.
         22    1    3    3    0    0  0.46869371825E+02 -0.55772915988E+02  0.42948242640E+01  0.72978090469E+02  0.00000000000E+00 0. -1.
         22    1    3    3    0    0 -0.34532356683E+02  0.21741674383E+02 -0.50935821112E+02  0.65265932426E+02  0.00000000000E+00 0. -1.
</event>
<event>
 7    1  0.6235964E-006  0.8384895E+02  0.7818608E-02  0.1365681E+00
          2   -1    0    0  502    0  0.00000000000E+00  0.00000000000E+00  0.10349801211E+04  0.10349801211E+04  0.00000000000E+00 0. -1.
          1   -1    0    0  501    0 -0.00000000000E+00 -0.00000000000E+00 -0.36815947759E+03  0.36815947759E+03  0.00000000000E+00 0. -1.
         25    2    1    2    0    0 -0.21942479782E+02  0.18359359257E+02 -0.27936526737E+03  0.30739091734E+03  0.12500273980E+03 0.  0.
          2    1    1    2  501    0 -0.37142732000E+02  0.41600549584E+02 -0.62380660078E+02  0.83675175637E+02  0.00000000000E+00 0. -1.
          1    1    1    2  502    0  0.59085211782E+02 -0.59959908841E+02  0.10085665710E+04  0.10120735057E+04  0.00000000000E+00 0. -1.
         22    1    3    3    0    0 -0.11228231169E+00  0.48134709612E+02 -0.26236575320E+03  0.26674473065E+03  0.00000000000E+00 0. -1.
         22    1    3    3    0    0 -0.21830197471E+02 -0.29775350355E+02 -0.16999514175E+02  0.40646186692E+02  0.00000000000E+00 0. -1.
</event>
<event>
 7    1  0.6235964E-006  0.6154784E+02  0.7818608E-02  0.1420412E+00
          2   -1    0    0  502    0  0.00000000000E+00  0.00000000000E+00  0.10449695794E+02  0.10449695794E+02  0.00000000000E+00 0. -1.
          1   -1    0    0  501    0 -0.00000000000E+00 -0.00000000000E+00 -0.22622778117E+04  0.22622778117E+04  0.00000000000E+00 0. -1.
         25    2    1    2    0    0  0.47140766325E+02 -0.45768505229E+02 -0.74764795521E+03  0.76086706726E+03  0.12499688470E+03 0.  0.
          2    1    1    2  501    0 -0.63040983341E+02 -0.61234798909E+00 -0.13123510561E+04  0.13138644660E+04  0.00000000000E+00 0. -1.
          1    1    1    2  502    0  0.15900217016E+02  0.46380853218E+02 -0.19182910450E+03  0.19799597415E+03  0.00000000000E+00 0. -1.
         22    1    3    3    0    0  0.72765686447E+02 -0.21947184612E+02 -0.23410002715E+03  0.24612871987E+03  0.00000000000E+00 0.  1.
         22    1    3    3    0    0 -0.25624920122E+02 -0.23821320617E+02 -0.51354792807E+03  0.51473834739E+03  0.00000000000E+00 0.  1.
</event>
<event>
 7    1  0.6235964E-006  0.8259455E+02  0.7818608E-02  0.1326794E+00
          2   -1    0    0  502    0  0.00000000000E+00  0.00000000000E+00  0.18028224371E+04  0.18028224371E+04  0.00000000000E+00 0. -1.
          1   -1    0    0  501    0 -0.00000000000E+00 -0.00000000000E+00 -0.27501613056E+03  0.27501613056E+03  0.00000000000E+00 0. -1.
         25    2    1    2    0    0 -0.13358271849E+03 -0.55983349781E+02  0.84896328243E+02  0.20931078940E+03  0.12500056752E+03 0.  0.
          2    1    1    2  501    0  0.51865184266E+02  0.59651134125E+02 -0.20441867183E+03  0.21916945165E+03  0.00000000000E+00 0. -1.
          1    1    1    2  502    0  0.81717534220E+02 -0.36677843443E+01  0.16473286501E+04  0.16493583266E+04  0.00000000000E+00 0. -1.
         22    1    3    3    0    0 -0.30234267402E+02 -0.13401017279E+02 -0.33090774904E+02  0.46783518179E+02  0.00000000000E+00 0.  1.
         22    1    3    3    0    0 -0.10334845108E+03 -0.42582332501E+02  0.11798710315E+03  0.16252727122E+03  0.00000000000E+00 0.  1.
</event>
<event>
 7    1  0.6235964E-006  0.1089282E+03  0.7818608E-02  0.1380602E+00
          2   -1    0    0  502    0  0.00000000000E+00  0.00000000000E+00  0.15630223270E+04  0.15630223270E+04  0.00000000000E+00 0. -1.
          1   -1    0    0  501    0 -0.00000000000E+00 -0.00000000000E+00 -0.24224528459E+03  0.24224528459E+03  0.00000000000E+00 0. -1.
         25    2    1    2    0    0 -0.57468470252E+02  0.82317268858E+02  0.11590649743E+04  0.11701005397E+04  0.12499960195E+03 0.  0.
          2    1    1    2  501    0  0.27463357619E+02 -0.10557428009E+03 -0.22317651735E+03  0.24841079390E+03  0.00000000000E+00 0. -1.
          1    1    1    2  502    0  0.30005112632E+02  0.23257011233E+02  0.38488858548E+03  0.38675627802E+03  0.00000000000E+00 0. -1.
         22    1    3    3    0    0 -0.17462806406E+01 -0.83125018236E+01  0.27885723286E+01  0.89399842436E+01  0.00000000000E+00 0. -1.
         22    1    3    3    0    0 -0.55722189611E+02  0.90629770682E+02  0.11562764020E+04  0.11611605555E+04  0.00000000000E+00 0. -1.
</event>
<event>
 7    1  0.6235964E-006  0.6762537E+02  0.7818608E-02  0.1450925E+00
          2   -1    0    0  502    0  0.00000000000E+00  0.00000000000E+00  0.63852302084E+03  0.63852302084E+03  0.00000000000E+00 0. -1.
          1   -1    0    0  501    0 -0.00000000000E+00 -0.00000000000E+00 -0.15521356384E+04  0.15521356384E+04  0.00000000000E+00 0. -1.
         25    2    1    2    0    0  0.22170222980E+02 -0.28670538405E+02 -0.18035114770E+03  0.22240771775E+03  0.12500055152E+03 0.  0.
          2    1    1    2  501    0 -0.25905578364E+02  0.63948007584E+02 -0.13493645744E+04  0.13511273816E+04  0.00000000000E+00 0. -1.
          1    1    1    2  502    0  0.37353553840E+01 -0.35277469179E+02  0.61610310455E+03  0.61712355987E+03  0.00000000000E+00 0. -1.
         22    1    3    3    0    0  0.85813009183E+00  0.31222907565E+02 -0.14765051630E+03  0.15091812783E+03  0.00000000000E+00 0.  1.
         22    1    3    3    0    0  0.21312092888E+02 -0.59893445970E+02 -0.32700631397E+02  0.71489589922E+02  0.00000000000E+00 0.  1.
</event>
<event>
 7    1  0.6235964E-006  0.7524876E+02  0.7818608E-02  0.1402624E+00
          2   -1    0    0  502    0  0.00000000000E+00  0.00000000000E+00  0.11973674438E+04  0.11973674438E+04  0.00000000000E+00 0. -1.
          1   -1    0    0  501    0 -0.00000000000E+00 -0.00000000000E+00 -0.13817529730E+03  0.13817529730E+03  0.00000000000E+00 0. -1.
         25    2    1    2    0    0 -0.91049628020E+02 -0.96054169533E+01 -0.42568578477E+02  0.16068502259E+03  0.12500117525E+03 0.  0.
          2    1    1    2  501    0  0.64093579543E+02 -0.27743448263E+02 -0.22595995729E+01  0.69876975109E+02  0.00000000000E+00 0. -1.
          1    1    1    2  502    0  0.26956048477E+02  0.37348865216E+02  0.11040203245E+04  0.11049807434E+04  0.00000000000E+00 0. -1.
         22    1    3    3    0    0  0.95715368871E+01  0.53985191071E+01  0.32464667485E+02  0.34274085865E+02  0.00000000000E+00 0.  1.
         22    1    3    3    0    0 -0.10062116491E+03 -0.15003936060E+02 -0.75033245963E+02  0.12641093673E+03  0.00000000000E+00 0.  1.
</event>
<event>
 7    1  0.6235964E-006  0.5725397E+02  0.7818608E-02  0.1501259E+00
          2   -1    0    0  502    0  0.00000000000E+00  0.00000000000E+00  0.48235829321E+03  0.48235829321E+03  0.00000000000E+00 0. -1.
          1   -1    0    0  501    0 -0.00000000000E+00 -0.00000000000E+00 -0.21134539816E+03  0.21134539816E+03  0.00000000000E+00 0. -1.
         25    2    1    2    0    0  0.66946071449E+02  0.26043647699E+02 -0.15749383178E+02  0.14500418100E+03  0.12497248245E+03 0.  0.
          2    1    1    2  501    0 -0.40663241519E+02 -0.39002865213E+02 -0.12436278478E+03  0.13653140644E+03  0.00000000000E+00 0. -1.
          1    1    1    2  502    0 -0.26282829930E+02  0.12959217514E+02  0.41112506300E+03  0.41216810393E+03  0.00000000000E+00 0. -1.
         22    1    3    3    0    0  0.39874351059E+02 -0.31578593295E+02  0.36531798692E+02  0.62623827275E+02  0.00000000000E+00 0. -1.
         22    1    3    3    0    0  0.27071720390E+02  0.57622240994E+02 -0.52281181871E+02  0.82380353725E+02  0.00000000000E+00 0. -1.
</event>
<event>
 7    1  0.6235964E-006  0.1260547E+03  0.7818608E-02  0.1339454E+00
          2   -1    0    0  502    0  0.00000000000E+00  0.00000000000E+00  0.31836313599E+04  0.31836313599E+04  0.00000000000E+00 0. -1.
          1   -1    0    0  501    0 -0.00000000000E+00 -0.00000000000E+00 -0.34690936277E+03  0.34690936277E+03  0.00000000000E+00 0. -1.
         25    2    1    2    0    0  0.36294771927E+02  0.16453862649E+03  0.46532750575E+03  0.51043535208E+03  0.12499716384E+03 0.  0.
          2    1    1    2  501    0 -0.18846338719E+02 -0.42355821299E+02 -0.32127810559E+03  0.32460563953E+03  0.00000000000E+00 0. -1.
          1    1    1    2  502    0 -0.17448433208E+02 -0.12218280519E+03  0.26926725970E+04  0.26954997311E+04  0.00000000000E+00 0. -1.
         22    1    3    3    0    0 -0.31976490074E+01  0.79787148918E+02  0.76709443958E+02  0.11072738091E+03  0.00000000000E+00 0.  1.
         22    1    3    3    0    0  0.39492420935E+02  0.84751477573E+02  0.38861806180E+03  0.39970797117E+03  0.00000000000E+00 0.  1.
</event>
<event>
 7    1  0.6235964E-006  0.8731923E+02  0.7818608E-02  0.1347980E+00
          2   -1    0    0  502    0  0.00000000000E+00  0.00000000000E+00  0.13298720837E+04  0.13298720837E+04  0.00000000000E+00 0. -1.
          1   -1    0    0  501    0 -0.00000000000E+00 -0.00000000000E+00 -0.84949658801E+02  0.84949658801E+02  0.00000000000E+00 0. -1.
         25    2    1    2    0    0 -0.13721425244E+03  0.63257793323E+01  0.13459906151E+03  0.22936744760E+03  0.12499900840E+03 0.  0.
          2    1    1    2  501    0  0.76277962835E+02  0.60787333502E+01  0.32008692137E+01  0.76586710186E+02  0.00000000000E+00 0. -1.
          1    1    1    2  502    0  0.60936289609E+02 -0.12404512683E+02  0.11071224942E+04  0.11088675847E+04  0.00000000000E+00 0. -1.
         22    1    3    3    0    0 -0.13365185165E+03 -0.22073001064E+02  0.14544790664E+03  0.19875897054E+03  0.00000000000E+00 0. -1.
         22    1    3    3    0    0 -0.35624007986E+01  0.28398780396E+02 -0.10848845126E+02  0.30608477061E+02  0.00000000000E+00 0. -1.
</event>
<event>
 7    1  0.6235964E-006  0.1206402E+03  0.7818608E-02  0.1365295E+00
          2   -1    0    0  502    0  0.00000000000E+00  0.00000000000E+00  0.14428562857E+04  0.14428562857E+04  0.00000000000E+00 0. -1.
          1   -1    0    0  501    0 -0.00000000000E+00 -0.00000000000E+00 -0.65917875063E+03  0.65917875063E+03  0.00000000000E+00 0. -1.
         25    2    1    2    0    0 -0.10101478911E+03  0.60475124972E+02  0.40215686433E+03  0.43728192366E+03  0.12499643543E+03 0.  0.
          2    1    1    2  501    0 -0.18443845858E+02 -0.34233992467E+02 -0.63736636130E+03  0.63855150161E+03  0.00000000000E+00 0. -1.
          1    1    1    2  502    0  0.11945863497E+03 -0.26241132505E+02  0.10188870320E+04  0.10262016110E+04  0.00000000000E+00 0. -1.
         22    1    3    3    0    0 -0.11216304564E+03  0.83622823534E+02  0.28687440604E+03  0.31917119272E+03  0.00000000000E+00 0.  1.
         22    1    3    3    0    0  0.11148256535E+02 -0.23147698561E+02  0.11528245829E+03  0.11811073094E+03  0.00000000000E+00 0.  1.
</event>
<event>
 7    1  0.6235964E-006  0.7769212E+02  0.7818608E-02  0.1378830E+00
          2   -1    0    0  502    0  0.00000000000E+00  0.00000000000E+00  0.10192427253E+04  0.10192427253E+04  0.00000000000E+00 0. -1.
          1   -1    0    0  501    0 -0.00000000000E+00 -0.00000000000E+00 -0.24307536579E+02  0.24307536579E+02  0.00000000000E+00 0. -1.
         25    2    1    2    0    0  0.81956008704E+02  0.67011068165E+02  0.41778646255E+03  0.44875120985E+03  0.12499939775E+03 0.  0.
          2    1    1    2  501    0 -0.53973139637E+02  0.17412338663E+01  0.11904531453E+03  0.13072076579E+03  0.00000000000E+00 0. -1.
          1    1    1    2  502    0 -0.27982869067E+02 -0.68752302032E+02  0.45810341166E+03  0.46407828625E+03  0.00000000000E+00 0. -1.
         22    1    3    3    0    0  0.46895303186E+02  0.10209715136E+03  0.25693600473E+03  0.28042665405E+03  0.00000000000E+00 0. -1.
         22    1    3    3    0    0  0.35060705518E+02 -0.35086083193E+02  0.16085045782E+03  0.16832455580E+03  0.00000000000E+00 0. -1.
</event>
<event>
 7    1  0.6235964E-006  0.1404083E+03  0.7818608E-02  0.1277198E+00
          2   -1    0    0  502    0  0.00000000000E+00  0.00000000000E+00  0.24234248333E+04  0.24234248333E+04  0.00000000000E+00 0. -1.
          1   -1    0    0  501    0 -0.00000000000E+00 -0.00000000000E+00 -0.27802661540E+03  0.27802661540E+03  0.00000000000E+00 0. -1.
         25    2    1    2    0    0 -0.11267974100E+03 -0.17032574730E+03 -0.51199040073E+02  0.24485207700E+03  0.12499445459E+03 0.  0.
          2    1    1    2  501    0  0.61053153409E+02  0.40664028507E+02 -0.11738044589E+03  0.13841683363E+03  0.00000000000E+00 0. -1.
          1    1    1    2  502    0  0.51626587595E+02  0.12966171879E+03  0.23139777039E+04  0.23181825381E+04  0.00000000000E+00 0. -1.
         22    1    3    3    0    0 -0.87769113555E+02 -0.25873451783E+02 -0.71024792268E+01  0.91778526968E+02  0.00000000000E+00 0. -1.
         22    1    3    3    0    0 -0.24910627449E+02 -0.14445229551E+03 -0.44096560846E+02  0.15307355003E+03  0.00000000000E+00 0. -1.
</event>
<event>
 7    1  0.6235964E-006  0.3286750E+02  0.7818608E-02  0.1572324E+00
          2   -1    0    0  502    0  0.00000000000E+00  0.00000000000E+00  0.17779350016E+04  0.17779350016E+04  0.00000000000E+00 0. -1.
          1   -1    0    0  501    0 -0.00000000000E+00 -0.00000000000E+00 -0.42801277099E+02  0.42801277099E+02  0.00000000000E+00 0. -1.
         25    2    1    2    0    0  0.36807009447E+02 -0.91368217185E+00  0.67627393238E+03  0.68871498588E+03  0.12500523749E+03 0.  0.
          2    1    1    2  501    0 -0.16634143279E+02  0.27418901672E+02 -0.29247681586E+02  0.43404121575E+02  0.00000000000E+00 0. -1.
          1    1    1    2  502    0 -0.20172866168E+02 -0.26505219500E+02  0.10881074737E+04  0.10886171712E+04  0.00000000000E+00 0. -1.
         22    1    3    3    0    0  0.60307143716E+02 -0.19020803379E+02  0.16690030653E+03  0.17847816355E+03  0.00000000000E+00 0.  1.
         22    1    3    3    0    0 -0.23500134269E+02  0.18107121207E+02  0.50937362586E+03  0.51023682234E+03  0.00000000000E+00 0.  1.
</event>
<event>
 7    1  0.6235964E-006  0.2461592E+03  0.7818608E-02  0.1240270E+00
          2   -1    0    0  502    0  0.00000000000E+00  0.00000000000E+00  0.25121612188E+04  0.25121612188E+04  0.00000000000E+00 0. -1.
          1   -1    0    0  501    0 -0.00000000000E+00 -0.00000000000E+00 -0.18164409088E+03  0.18164409088E+03  0.00000000000E+00 0. -1.
         25    2    1    2    0    0  0.15720937033E+03 -0.22201816259E+03  0.17816608885E+04  0.18066397703E+04  0.12499955001E+03 0.  0.
          2    1    1    2  501    0 -0.18008220748E+03  0.16633517928E+03 -0.78129992313E+02  0.25729611154E+03  0.00000000000E+00 0. -1.
          1    1    1    2  502    0  0.22872837152E+02  0.55682983309E+02  0.62698623174E+03  0.62986942782E+03  0.00000000000E+00 0. -1.
         22    1    3    3    0    0  0.17323351521E+03 -0.21260214785E+03  0.17327219781E+04  0.17542904485E+04  0.00000000000E+00 0.  1.
         22    1    3    3    0    0 -0.16024144878E+02 -0.94160147334E+01  0.48938910387E+02  0.52349321890E+02  0.00000000000E+00 0.  1.
</event>
<event>
 7    1  0.6235964E-006  0.5169910E+02  0.7818608E-02  0.1504262E+00
          2   -1    0    0  502    0  0.00000000000E+00  0.00000000000E+00  0.16447845787E+04  0.16447845787E+04  0.00000000000E+00 0. -1.
          1   -1    0    0  501    0 -0.00000000000E+00 -0.00000000000E+00 -0.30817043440E+02  0.30817043440E+02  0.00000000000E+00 0. -1.
         25    2    1    2    0    0  0.49098705101E+02  0.59314793177E+02  0.26733749264E+03  0.30499664197E+03  0.12499875644E+03 0.  0.
          2    1    1    2  501    0 -0.22395458912E+02 -0.42060956756E+02  0.36334823666E+02  0.59924119301E+02  0.00000000000E+00 0. -1.
          1    1    1    2  502    0 -0.26703246189E+02 -0.17253836421E+02  0.13102952190E+04  0.13106808609E+04  0.00000000000E+00 0. -1.
         22    1    3    3    0    0  0.28099521663E+02  0.91354017471E+02  0.12360982744E+03  0.15625149300E+03  0.00000000000E+00 0.  1.
         22    1    3    3    0    0  0.20999183438E+02 -0.32039224294E+02  0.14372766520E+03  0.14874514897E+03  0.00000000000E+00 0.  1.
</event>
<event>
 7    1  0.6235964E-006  0.4168583E+02  0.7818608E-02  0.1518750E+00
          2   -1    0    0  502    0  0.00000000000E+00  0.00000000000E+00  0.10582780874E+03  0.10582780874E+03  0.00000000000E+00 0. -1.
          1   -1    0    0  501    0 -0.00000000000E+00 -0.00000000000E+00 -0.37028481721E+03  0.37028481721E+03  0.00000000000E+00 0. -1.
         25    2    1    2    0    0 -0.68402867990E+02  0.25912341120E+02 -0.72922425472E+02  0.16215167479E+03  0.12500033492E+03 0.  0.
          2    1    1    2  501    0  0.32701875690E+02 -0.24070340169E+02 -0.24571620650E+03  0.24904868618E+03  0.00000000000E+00 0. -1.
          1    1    1    2  502    0  0.35700992300E+02 -0.18420009514E+01  0.54181623511E+02  0.64912264981E+02  0.00000000000E+00 0. -1.
         22    1    3    3    0    0 -0.96138957862E+02  0.48388964041E+02 -0.44283097071E+02  0.11638377785E+03  0.00000000000E+00 0.  1.
         22    1    3    3    0    0  0.27736089872E+02 -0.22476622921E+02 -0.28639328402E+02  0.45767896943E+02  0.00000000000E+00 0.  1.
</event>
<event>
 7    1  0.6235964E-006  0.1124225E+03  0.7818608E-02  0.1305415E+00
          2   -1    0    0  502    0  0.00000000000E+00  0.00000000000E+00  0.12768885554E+04  0.12768885554E+04  0.00000000000E+00 0. -1.
          1   -1    0    0  501    0 -0.00000000000E+00 -0.00000000000E+00 -0.12224674063E+04  0.12224674063E+04  0.00000000000E+00 0. -1.
         25    2    1    2    0    0 -0.90458563279E+02  0.37225099299E+02 -0.38553357379E+02  0.16334183409E+03  0.12500293481E+03 0.  0.
          2    1    1    2  501    0  0.34504337823E+02  0.61339600113E+02 -0.11177663987E+04  0.11199798293E+04  0.00000000000E+00 0. -1.
          1    1    1    2  502    0  0.55954225456E+02 -0.98564699412E+02  0.12107409052E+04  0.12160342984E+04  0.00000000000E+00 0. -1.
         22    1    3    3    0    0 -0.94132578145E+02 -0.30520994679E+01  0.15896912172E+02  0.95514236614E+02  0.00000000000E+00 0. -1.
         22    1    3    3    0    0  0.36740148657E+01  0.40277198767E+02 -0.54450269551E+02  0.67827597480E+02  0.00000000000E+00 0. -1.
</event>
<event>
 7    1  0.6235964E-006  0.1719004E+03  0.7818608E-02  0.1315226E+00
          2   -1    0    0  502    0  0.00000000000E+00  0.00000000000E+00  0.79054731887E+02  0.79054731887E+02  0.00000000000E+00 0. -1.
          1   -1    0    0  501    0 -0.00000000000E+00 -0.00000000000E+00 -0.19345742169E+04  0.19345742169E+04  0.00000000000E+00 0. -1.
         25    2    1    2    0    0  0.14393639049E+03  0.13220643104E+03 -0.24448481654E+03  0.33703683092E+03  0.12499909985E+03 0.  0.
          2    1    1    2  501    0 -0.39188833657E+02 -0.15406331750E+02 -0.14540156696E+04  0.14546252738E+04  0.00000000000E+00 0. -1.
          1    1    1    2  502    0 -0.10474755683E+03 -0.11680009929E+03 -0.15701899887E+03  0.22196684407E+03  0.00000000000E+00 0. -1.
         22    1    3    3    0    0 -0.22581808737E+02  0.70554685979E+01 -0.23321572319E+02  0.33220678175E+02  0.00000000000E+00 0.  1.
         22    1    3    3    0    0  0.16651819923E+03  0.12515096245E+03 -0.22116324423E+03  0.30381615275E+03  0.00000000000E+00 0.  1.
</event>
<event>
 7    1  0.6235964E-006  0.9341447E+02  0.7818608E-02  0.1319830E+00
          2   -1    0    0  502    0  0.00000000000E+00  0.00000000000E+00  0.18868190659E+03  0.18868190659E+03  0.00000000000E+00 0. -1.
          1   -1    0    0  501    0 -0.00000000000E+00 -0.00000000000E+00 -0.61654961181E+03  0.61654961181E+03  0.00000000000E+00 0. -1.
         25    2    1    2    0    0  0.45311292659E+02  0.26107220464E+02  0.32748375396E+01  0.13553806147E+03  0.12500056537E+03 0.  0.
          2    1    1    2  501    0 -0.18301961373E+02 -0.95381194845E+02 -0.53400885041E+03  0.54276881491E+03  0.00000000000E+00 0. -1.
          1    1    1    2  502    0 -0.27009331285E+02  0.69273974381E+02  0.10286630765E+03  0.12692464202E+03  0.00000000000E+00 0. -1.
         22    1    3    3    0    0  0.68087183790E+02 -0.27689520428E+02  0.17187105017E+02  0.75484903900E+02  0.00000000000E+00 0.  1.
         22    1    3    3    0    0 -0.22775891131E+02  0.53796740892E+02 -0.13912267478E+02  0.60053157567E+02  0.00000000000E+00 0.  1.
</event>
<event>
 7    1  0.6235964E-006  0.4794204E+02  0.7818608E-02  0.1584910E+00
          2   -1    0    0  502    0  0.00000000000E+00  0.00000000000E+00  0.12695270177E+03  0.12695270177E+03  0.00000000000E+00 0. -1.
          1   -1    0    0  501    0 -0.00000000000E+00 -0.00000000000E+00 -0.52621988001E+03  0.52621988001E+03  0.00000000000E+00 0. -1.
         25    2    1    2    0    0 -0.92657816899E+01 -0.31805111482E+02 -0.10169044938E+01  0.12931900424E+03  0.12499980375E+03 0.  0.
          2    1    1    2  501    0 -0.16937547694E+02 -0.11261336158E+02 -0.45066895968E+03  0.45112770857E+03  0.00000000000E+00 0. -1.
          1    1    1    2  502    0  0.26203329384E+02  0.43066447640E+02  0.52418685937E+02  0.72725868977E+02  0.00000000000E+00 0. -1.
         22    1    3    3    0    0 -0.35631597653E+02 -0.69512494620E+02  0.16939487699E+02  0.79928367324E+02  0.00000000000E+00 0.  1.
         22    1    3    3    0    0  0.26365815963E+02  0.37707383138E+02 -0.17956392193E+02  0.49390636917E+02  0.00000000000E+00 0.  1.
</event>
<event>
 7    1  0.6235964E-006  0.9123188E+02  0.7818608E-02  0.1377809E+00
          2   -1    0    0  502    0  0.00000000000E+00  0.00000000000E+00  0.33160683737E+03  0.33160683737E+03  0.00000000000E+00 0. -1.
          1   -1    0    0  501    0 -0.00000000000E+00 -0.00000000000E+00 -0.96873817465E+03  0.96873817465E+03  0.00000000000E+00 0. -1.
         25    2    1    2    0    0 -0.63654802823E+02  0.36210925237E+02  0.24971811211E+03  0.28869606832E+03  0.12499247705E+03 0.  0.
          2    1    1    2  501    0  0.45961781371E+02 -0.79074941499E+02 -0.93809141526E+03  0.94253956687E+03  0.00000000000E+00 0. -1.
          1    1    1    2  502    0  0.17693021452E+02  0.42864016262E+02  0.51241965875E+02  0.69109376824E+02  0.00000000000E+00 0. -1.
         22    1    3    3    0    0 -0.74275079917E+02  0.47005957334E+02  0.81726198273E+02  0.12002299365E+03  0.00000000000E+00 0. -1.
         22    1    3    3    0    0  0.10620277094E+02 -0.10795032097E+02  0.16799191383E+03  0.16867307467E+03  0.00000000000E+00 0. -1.
</event>
<event>
 7    1  0.6235964E-006  0.3080301E+03  0.7818608E-02  0.1205032E+00
          2   -1    0    0  502    0  0.00000000000E+00  0.00000000000E+00  0.67378051443E+03  0.67378051443E+03  0.00000000000E+00 0. -1.
          1   -1    0    0  501    0 -0.00000000000E+00 -0.00000000000E+00 -0.20870360019E+04  0.20870360019E+04  0.00000000000E+00 0. -1.
         25    2    1    2    0    0  0.12655973222E+03 -0.27832354532E+03  0.47871942495E+02  0.33376301140E+03  0.12499865279E+03 0.  0.
          2    1    1    2  501    0 -0.64388730259E+02 -0.26246196893E+02 -0.18933678200E+04  0.18946441548E+04  0.00000000000E+00 0. -1.
          1    1    1    2  502    0 -0.62171001966E+02  0.30456974222E+03  0.43224039003E+03  0.53240935015E+03  0.00000000000E+00 0. -1.
         22    1    3    3    0    0 -0.21663243862E+02 -0.35032776368E+02  0.24485567597E+02  0.47917998448E+02  0.00000000000E+00 0.  1.
         22    1    3    3    0    0  0.14822297609E+03 -0.24329076896E+03  0.23386374898E+02  0.28584501295E+03  0.00000000000E+00 0.  1.
</event>
<event>
 7    1  0.6235964E-006  0.4308550E+03  0.7818608E-02  0.1104034E+00
          2   -1    0    0  502    0  0.00000000000E+00  0.00000000000E+00  0.10558250461E+04  0.10558250461E+04  0.00000000000E+00 0. -1.
          1   -1    0    0  501    0 -0.00000000000E+00 -0.00000000000E+00 -0.52954986933E+03  0.52954986933E+03  0.00000000000E+00 0. -1.
         25    2    1    2    0    0  0.64838775495E+02 -0.30952042948E+03 -0.69540081287E+01  0.34011969687E+03  0.12500434752E+03 0.  0.
          2    1    1    2  501    0 -0.17398589027E+02 -0.16235840482E+03 -0.26821022913E+03  0.31400587499E+03  0.00000000000E+00 0. -1.
          1    1    1    2  502    0 -0.47440186468E+02  0.47187883430E+03  0.80143941401E+03  0.93124934356E+03  0.00000000000E+00 0. -1.
         22    1    3    3    0    0 -0.15854820392E+01 -0.19162582128E+03  0.42066047512E+02  0.19619511076E+03  0.00000000000E+00 0.  1.
         22    1    3    3    0    0  0.66424257534E+02 -0.11789460820E+03 -0.49020055641E+02  0.14392458611E+03  0.00000000000E+00 0.  1.
</event>
<event>
 7    1  0.6235964E-006  0.8163347E+02  0.7818608E-02  0.1462539E+00
          2   -1    0    0  502    0  0.00000000000E+00  0.00000000000E+00  0.11748269122E+04  0.11748269122E+04  0.00000000000E+00 0. -1.
          1   -1    0    0  501    0 -0.00000000000E+00 -0.00000000000E+00 -0.48006546905E+03  0.48006546905E+03  0.00000000000E+00 0. -1.
         25    2    1    2    0    0  0.28750660664E+02  0.10384060307E+03 -0.28481244902E+03  0.32916967587E+03  0.12500029223E+03 0.  0.
          2    1    1    2  501    0 -0.17083435250E+01 -0.26945157062E+02 -0.17057019942E+03  0.17269381244E+03  0.00000000000E+00 0. -1.
          1    1    1    2  502    0 -0.27042317139E+02 -0.76895446010E+02  0.11501440916E+04  0.11530288929E+04  0.00000000000E+00 0. -1.
         22    1    3    3    0    0 -0.33848941824E+02 -0.91095479478E+01 -0.75243730253E+02  0.83008154231E+02  0.00000000000E+00 0.  1.
         22    1    3    3    0    0  0.62599602489E+02  0.11295015102E+03 -0.20956871877E+03  0.24616152164E+03  0.00000000000E+00 0.  1.
</event>
<event>
 7    1  0.6235964E-006  0.4046797E+03  0.7818608E-02  0.1264712E+00
          2   -1    0    0  502    0  0.00000000000E+00  0.00000000000E+00  0.21033851401E+04  0.21033851401E+04  0.00000000000E+00 0. -1.
          1   -1    0    0  501    0 -0.00000000000E+00 -0.00000000000E+00 -0.31667797605E+04  0.31667797605E+04  0.00000000000E+00 0. -1.
         25    2    1    2    0    0 -0.25076095894E+03  0.33077291708E+03 -0.31028760858E+03  0.53309995766E+03  0.12500153449E+03 0.  0.
          2    1    1    2  501    0  0.22260800637E+03 -0.33641329795E+03 -0.27301612161E+04  0.27598022570E+04  0.00000000000E+00 0. -1.
          1    1    1    2  502    0  0.28152952562E+02  0.56403808744E+01  0.19770542043E+04  0.19772626860E+04  0.00000000000E+00 0. -1.
         22    1    3    3    0    0  0.21203902656E+01  0.55028065018E+02 -0.16782957463E+02  0.57569537568E+02  0.00000000000E+00 0.  1.
         22    1    3    3    0    0 -0.25288134920E+03  0.27574485206E+03 -0.29350465111E+03  0.47553042010E+03  0.00000000000E+00 0.  1.
</event>
<event>
 7    1  0.6235964E-006  0.6490105E+02  0.7818608E-02  0.1504353E+00
          2   -1    0    0  502    0  0.00000000000E+00  0.00000000000E+00  0.11521213956E+04  0.11521213956E+04  0.00000000000E+00 0. -1.
          1   -1    0    0  501    0 -0.00000000000E+00 -0.00000000000E+00 -0.15240962380E+04  0.15240962380E+04  0.00000000000E+00 0. -1.
         25    2    1    2    0    0  0.75165664323E+02 -0.29709567881E+02  0.12628739980E+02  0.14938787961E+03  0.12499887193E+03 0.  0.
          2    1    1    2  501    0 -0.64428540319E+02  0.67905158381E+01 -0.14548461789E+04  0.14562879359E+04  0.00000000000E+00 0. -1.
          1    1    1    2  502    0 -0.10737124004E+02  0.22919052042E+02  0.10702425966E+04  0.10705418181E+04  0.00000000000E+00 0. -1.
         22    1    3    3    0    0  0.64659341410E+02 -0.15214947338E+02  0.65670016197E+02  0.93407045138E+02  0.00000000000E+00 0.  1.
         22    1    3    3    0    0  0.10506322913E+02 -0.14494620542E+02 -0.53041276217E+02  0.55980834475E+02  0.00000000000E+00 0.  1.
</event>
<event>
 7    1  0.1202003E-005  0.1089133E+03  0.7818608E-02  0.1386802E+00
          2   -1    0    0  502    0  0.00000000000E+00  0.00000000000E+00  0.29618843255E+04  0.29618843255E+04  0.00000000000E+00 0. -1.
          1   -1    0    0  501    0 -0.00000000000E+00 -0.00000000000E+00 -0.11584032585E+04  0.11584032585E+04  0.00000000000E+00 0. -1.
         25    2    1    2    0    0  0.34958012118E+02 -0.11450940299E+03 -0.24048607026E+03  0.29629860591E+03  0.12499939157E+03 0.  0.
          2    1    1    2  501    0 -0.35666249555E+02  0.56186995699E+01 -0.88863381205E+03  0.88936702382E+03  0.00000000000E+00 0. -1.
          1    1    1    2  502    0  0.70823743748E+00  0.10889070342E+03  0.29326009493E+04  0.29346219543E+04  0.00000000000E+00 0. -1.
         22    1    3    3    0    0  0.63169458547E+02 -0.44195193506E+02 -0.19056169294E+03  0.20556593696E+03  0.00000000000E+00 0. -1.
         22    1    3    3    0    0 -0.28211446429E+02 -0.70314209481E+02 -0.49924377328E+02  0.90732668958E+02  0.00000000000E+00 0. -1.
</event>
<event>
 7    1  0.6235964E-006  0.9919738E+02  0.7818608E-02  0.1378181E+00
          2   -1    0    0  502    0  0.00000000000E+00  0.00000000000E+00  0.75644621713E+03  0.75644621713E+03  0.00000000000E+00 0. -1.
          1   -1    0    0  501    0 -0.00000000000E+00 -0.00000000000E+00 -0.33571006025E+03  0.33571006025E+03  0.00000000000E+00 0. -1.
         25    2    1    2    0    0  0.13676406274E+02 -0.83261372088E+02  0.73461327179E+02  0.16775369268E+03  0.12500093858E+03 0.  0.
          2    1    1    2  501    0  0.26467465195E+02  0.97272699211E+02 -0.27901663070E+03  0.29666948770E+03  0.00000000000E+00 0. -1.
          1    1    1    2  502    0 -0.40143871469E+02 -0.14011327123E+02  0.62629146040E+03  0.62773309700E+03  0.00000000000E+00 0. -1.
         22    1    3    3    0    0 -0.91943065486E+00 -0.70630929296E+01  0.88449296508E+02  0.88735622426E+02  0.00000000000E+00 0. -1.
         22    1    3    3    0    0  0.14595836929E+02 -0.76198279158E+02 -0.14987969329E+02  0.79018070256E+02  0.00000000000E+00 0. -1.
</event>
<event>
 7    1  0.6235964E-006  0.5462424E+02  0.7818608E-02  0.1482121E+00
          2   -1    0    0  502    0  0.00000000000E+00  0.00000000000E+00  0.57455441191E+02  0.57455441191E+02  0.00000000000E+00 0. -1.
          1   -1    0    0  501    0 -0.00000000000E+00 -0.00000000000E+00 -0.64748914368E+03  0.64748914368E+03  0.00000000000E+00 0. -1.
         25    2    1    2    0    0  0.45494763507E+00 -0.61050433025E+02 -0.30591339522E+03  0.33605864583E+03  0.12500018286E+03 0.  0.
          2    1    1    2  501    0  0.31008577052E+02  0.45527133010E+02 -0.31643114643E+03  0.32118985371E+03  0.00000000000E+00 0. -1.
          1    1    1    2  502    0 -0.31463524687E+02  0.15523300015E+02  0.32310839159E+02  0.47696085334E+02  0.00000000000E+00 0. -1.
         22    1    3    3    0    0  0.13776713561E+02 -0.91334504349E+02 -0.14604828958E+03  0.17280593859E+03  0.00000000000E+00 0.  1.
         22    1    3    3    0    0 -0.13321765926E+02  0.30284071324E+02 -0.15986510563E+03  0.16325270725E+03  0.00000000000E+00 0.  1.
</event>
<event>
 7    1  0.6235964E-006  0.5085082E+02  0.7818608E-02  0.1457641E+00
          2   -1    0    0  502    0  0.00000000000E+00  0.00000000000E+00  0.12876766427E+03  0.12876766427E+03  0.00000000000E+00 0. -1.
          1   -1    0    0  501    0 -0.00000000000E+00 -0.00000000000E+00 -0.27825126732E+03  0.27825126732E+03  0.00000000000E+00 0. -1.
         25    2    1    2    0    0  0.82723687764E+02  0.35972391038E+02 -0.84006591602E+02  0.17555502086E+03  0.12500094593E+03 0.  0.
          2    1    1    2  501    0 -0.44555320614E+02 -0.56577080098E+01 -0.13741475267E+03  0.14456832470E+03  0.00000000000E+00 0. -1.
          1    1    1    2  502    0 -0.38168367151E+02 -0.30314683028E+02  0.71937741230E+02  0.86895586029E+02  0.00000000000E+00 0. -1.
         22    1    3    3    0    0  0.52377395882E+02  0.48722532345E+02  0.13362707045E+02  0.72772513335E+02  0.00000000000E+00 0.  1.
         22    1    3    3    0    0  0.30346291882E+02 -0.12750141307E+02 -0.97369298648E+02  0.10278250753E+03  0.00000000000E+00 0.  1.
</event>
<event>
 7    1  0.6235964E-006  0.1237204E+03  0.7818608E-02  0.1345509E+00
          2   -1    0    0  502    0  0.00000000000E+00  0.00000000000E+00  0.23215752487E+04  0.23215752487E+04  0.00000000000E+00 0. -1.
          1   -1    0    0  501    0 -0.00000000000E+00 -0.00000000000E+00 -0.29351576276E+03  0.29351576276E+03  0.00000000000E+00 0. -1.
         25    2    1    2    0    0 -0.70696265441E+01  0.15105783831E+03  0.16273436191E+03  0.25490244641E+03  0.12499733800E+03 0.  0.
          2    1    1    2  501    0  0.32494981076E+02 -0.30882694126E+02 -0.24359928750E+03  0.24768988163E+03  0.00000000000E+00 0. -1.
          1    1    1    2  502    0 -0.25425354532E+02 -0.12017514418E+03  0.21089244116E+04  0.21124986835E+04  0.00000000000E+00 0. -1.
         22    1    3    3    0    0 -0.37493155428E+02  0.14973820728E+03  0.16294279545E+03  0.22444959794E+03  0.00000000000E+00 0. -1.
         22    1    3    3    0    0  0.30423528884E+02  0.13196310257E+01 -0.20843353755E+00  0.30452848476E+02  0.00000000000E+00 0. -1.
</event>
<event>
 7    1  0.6235964E-006  0.1262488E+03  0.7818608E-02  0.1380030E+00
          2   -1    0    0  502    0  0.00000000000E+00  0.00000000000E+00  0.15819942990E+04  0.15819942990E+04  0.00000000000E+00 0. -1.
          1   -1    0    0  501    0 -0.00000000000E+00 -0.00000000000E+00 -0.82577672877E+03  0.82577672877E+03  0.00000000000E+00 0. -1.
         25    2    1    2    0    0 -0.47868435938E+02 -0.92965626704E+02  0.15869825462E+03  0.22747674243E+03  0.12500614952E+03 0.  0.
          2    1    1    2  501    0  0.33246293540E+02  0.12244627455E+03 -0.78610508793E+03  0.79627860417E+03  0.00000000000E+00 0. -1.
          1    1    1    2  502    0  0.14622142398E+02 -0.29480647851E+02  0.13836244035E+04  0.13840156811E+04  0.00000000000E+00 0. -1.
         22    1    3    3    0    0  0.47842012919E+01 -0.10743080872E+03  0.11585374950E+03  0.15807073897E+03  0.00000000000E+00 0. -1.
         22    1    3    3    0    0 -0.52652637230E+02  0.14465182013E+02  0.42844505114E+02  0.69406003460E+02  0.00000000000E+00 0. -1.
</event>
<event>
 7    1  0.6235964E-006  0.1137752E+03  0.7818608E-02  0.1295932E+00
          2   -1    0    0  502    0  0.00000000000E+00  0.00000000000E+00  0.94083055684E+03  0.94083055684E+03  0.00000000000E+00 0. -1.
          1   -1    0    0  501    0 -0.00000000000E+00 -0.00000000000E+00 -0.96851185726E+03  0.96851185726E+03  0.00000000000E+00 0. -1.
         25    2    1    2    0    0  0.17412011649E+03 -0.17402427211E+02 -0.13807852910E+03  0.25556160933E+03  0.12500158608E+03 0.  0.
          2    1    1    2  501    0 -0.10822502755E+03 -0.20236335247E+02 -0.76611681336E+03  0.77398781487E+03  0.00000000000E+00 0. -1.
          1    1    1    2  502    0 -0.65895088942E+02  0.37638762458E+02  0.87651404205E+03  0.87979298991E+03  0.00000000000E+00 0. -1.
         22    1    3    3    0    0  0.15711214552E+03  0.32651154868E+01 -0.15750254402E+03  0.22249031130E+03  0.00000000000E+00 0. -1.
         22    1    3    3    0    0  0.17007970969E+02 -0.20667542698E+02  0.19424014916E+02  0.33071298026E+02  0.00000000000E+00 0. -1.
</event>
<event>
 7    1  0.6235964E-006  0.7677516E+02  0.7818608E-02  0.1375870E+00
          2   -1    0    0  502    0  0.00000000000E+00  0.00000000000E+00  0.47686817855E+03  0.47686817855E+03  0.00000000000E+00 0. -1.
          1   -1    0    0  501    0 -0.00000000000E+00 -0.00000000000E+00 -0.52789450824E+03  0.52789450824E+03  0.00000000000E+00 0. -1.
         25    2    1    2    0    0  0.91981683396E+02 -0.12485848701E+02 -0.14459552269E+03  0.21248342083E+03  0.12499924978E+03 0.  0.
          2    1    1    2  501    0 -0.24999499855E+02  0.50095212959E+02 -0.34374240033E+03  0.34827193849E+03  0.00000000000E+00 0. -1.
          1    1    1    2  502    0 -0.66982183541E+02 -0.37609364258E+02  0.43731159333E+03  0.44400732748E+03  0.00000000000E+00 0. -1.
         22    1    3    3    0    0  0.82172271943E+02 -0.28790082618E+01 -0.16760987021E+02  0.83913655925E+02  0.00000000000E+00 0. -1.
         22    1    3    3    0    0  0.98094114535E+01 -0.96068404390E+01 -0.12783453567E+03  0.12856976490E+03  0.00000000000E+00 0. -1.
</event>
<event>
 7    1  0.6235964E-006  0.5831334E+02  0.7818608E-02  0.1474983E+00
          2   -1    0    0  502    0  0.00000000000E+00  0.00000000000E+00  0.13452899508E+04  0.13452899508E+04  0.00000000000E+00 0. -1.
          1   -1    0    0  501    0 -0.00000000000E+00 -0.00000000000E+00 -0.63586602654E+03  0.63586602654E+03  0.00000000000E+00 0. -1.
         25    2    1    2    0    0 -0.36462919184E+02 -0.84357544305E+01  0.98023641215E+02  0.16320594035E+03  0.12500735299E+03 0.  0.
          2    1    1    2  501    0  0.54759571813E+02 -0.20893225768E+02 -0.60160452795E+03  0.60445276544E+03  0.00000000000E+00 0. -1.
          1    1    1    2  502    0 -0.18296652629E+02  0.29328980198E+02  0.12130048110E+04  0.12134972716E+04  0.00000000000E+00 0. -1.
         22    1    3    3    0    0 -0.33339814153E+02  0.51588244231E+02  0.79189234530E+02  0.10021888553E+03  0.00000000000E+00 0. -1.
         22    1    3    3    0    0 -0.31231050315E+01 -0.60023998661E+02  0.18834406685E+02  0.62987054825E+02  0.00000000000E+00 0. -1.
</event>
<event>
 7    1  0.6235964E-006  0.5944096E+02  0.7818608E-02  0.1460610E+00
          2   -1    0    0  502    0  0.00000000000E+00  0.00000000000E+00  0.16229405365E+04  0.16229405365E+04  0.00000000000E+00 0. -1.
          1   -1    0    0  501    0 -0.00000000000E+00 -0.00000000000E+00 -0.15722199997E+03  0.15722199997E+03  0.00000000000E+00 0. -1.
         25    2    1    2    0    0  0.53685087831E+02  0.15771271765E+02  0.17723558836E+03  0.22398231663E+03  0.12499921085E+03 0.  0.
          2    1    1    2  501    0  0.20564800550E+01 -0.37545293547E+02 -0.13056467783E+03  0.13587131144E+03  0.00000000000E+00 0. -1.
          1    1    1    2  502    0 -0.55741567886E+02  0.21774021782E+02  0.14190476260E+04  0.14203089084E+04  0.00000000000E+00 0. -1.
         22    1    3    3    0    0  0.43659910755E+02  0.59791208431E+02  0.15881142465E+03  0.17522056105E+03  0.00000000000E+00 0. -1.
         22    1    3    3    0    0  0.10025177076E+02 -0.44019936667E+02  0.18424163706E+02  0.48761755586E+02  0.00000000000E+00 0. -1.
</event>
<event>
 7    1  0.6235964E-006  0.8384209E+02  0.7818608E-02  0.1468932E+00
          2   -1    0    0  502    0  0.00000000000E+00  0.00000000000E+00  0.18419591679E+03  0.18419591679E+03  0.00000000000E+00 0. -1.
          1   -1    0    0  501    0 -0.00000000000E+00 -0.00000000000E+00 -0.79481245932E+03  0.79481245932E+03  0.00000000000E+00 0. -1.
         25    2    1    2    0    0  0.52053455297E+02 -0.71755258612E+02  0.16567833323E+02  0.15413587782E+03  0.12499998553E+03 0.  0.
          2    1    1    2  501    0 -0.28012591050E+02  0.78985163221E+02 -0.72197047970E+03  0.72681822681E+03  0.00000000000E+00 0. -1.
          1    1    1    2  502    0 -0.24040864247E+02 -0.72299046085E+01  0.94786103847E+02  0.98054271487E+02  0.00000000000E+00 0. -1.
         22    1    3    3    0    0 -0.12765836504E+02 -0.83688015750E+02  0.23517571321E+02  0.87861975409E+02  0.00000000000E+00 0.  1.
         22    1    3    3    0    0  0.64819291801E+02  0.11932757138E+02 -0.69497379976E+01  0.66273902411E+02  0.00000000000E+00 0.  1.
</event>
<event>
 7    1  0.6235964E-006  0.1334419E+03  0.7818608E-02  0.1395250E+00
          2   -1    0    0  502    0  0.00000000000E+00  0.00000000000E+00  0.72499572549E+03  0.72499572549E+03  0.00000000000E+00 0. -1.
          1   -1    0    0  501    0 -0.00000000000E+00 -0.00000000000E+00 -0.11297324122E+04  0.11297324122E+04  0.00000000000E+00 0. -1.
         25    2    1    2    0    0  0.12897006113E+03 -0.92873847476E+02  0.22455873599E+02  0.20343869560E+03  0.12499683354E+03 0.  0.
          2    1    1    2  501    0 -0.23285644931E+02  0.14700975851E+02 -0.10319968642E+04  0.10323642127E+04  0.00000000000E+00 0. -1.
          1    1    1    2  502    0 -0.10568441620E+03  0.78172871625E+02  0.60480430384E+03  0.61892522944E+03  0.00000000000E+00 0. -1.
         22    1    3    3    0    0  0.58086489426E+02 -0.55880137545E+02  0.73083383301E+02  0.10880170468E+03  0.00000000000E+00 0. -1.
         22    1    3    3    0    0  0.70883571706E+02 -0.36993709932E+02 -0.50627509702E+02  0.94636990923E+02  0.00000000000E+00 0. -1.
</event>
<event>
 7    1  0.6235964E-006  0.9260775E+02  0.7818608E-02  0.1413283E+00
          2   -1    0    0  502    0  0.00000000000E+00  0.00000000000E+00  0.23932943860E+04  0.23932943860E+04  0.00000000000E+00 0. -1.
          1   -1    0    0  501    0 -0.00000000000E+00 -0.00000000000E+00 -0.36292262694E+03  0.36292262694E+03  0.00000000000E+00 0. -1.
         25    2    1    2    0    0  0.62494337984E+02  0.43022781400E+02  0.50420938860E+03  0.52498459093E+03  0.12500084466E+03 0.  0.
          2    1    1    2  501    0 -0.65967722913E+01  0.33793390421E+02 -0.35048990697E+03  0.35217706559E+03  0.00000000000E+00 0. -1.
          1    1    1    2  502    0 -0.55897565693E+02 -0.76816171821E+02  0.18766522775E+04  0.18790553564E+04  0.00000000000E+00 0. -1.
         22    1    3    3    0    0  0.90221573452E+02  0.64561436610E+02  0.37177916017E+03  0.38797919448E+03  0.00000000000E+00 0.  1.
         22    1    3    3    0    0 -0.27727235468E+02 -0.21538655210E+02  0.13243022843E+03  0.13700539645E+03  0.00000000000E+00 0.  1.
</event>
<event>
 7    1  0.6235964E-006  0.1368782E+03  0.7818608E-02  0.1285913E+00
          2   -1    0    0  502    0  0.00000000000E+00  0.00000000000E+00  0.24550971053E+04  0.24550971053E+04  0.00000000000E+00 0. -1.
          1   -1    0    0  501    0 -0.00000000000E+00 -0.00000000000E+00 -0.48926172537E+03  0.48926172537E+03  0.00000000000E+00 0. -1.
         25    2    1    2    0    0 -0.87962497584E+02  0.56052117691E+01  0.42071308387E+03  0.44765358927E+03  0.12500167065E+03 0.  0.
          2    1    1    2  501    0 -0.48930846158E+02  0.49036979055E+02 -0.47056465246E+03  0.47563635812E+03  0.00000000000E+00 0. -1.
          1    1    1    2  502    0  0.13689334374E+03 -0.54642190824E+02  0.20156869486E+04  0.20210688833E+04  0.00000000000E+00 0. -1.
         22    1    3    3    0    0 -0.58191072194E+02  0.38919277854E+02  0.38252619705E+03  0.38887941897E+03  0.00000000000E+00 0.  1.
         22    1    3    3    0    0 -0.29771425391E+02 -0.33314066085E+02  0.38186886820E+02  0.58774170295E+02  0.00000000000E+00 0.  1.
</event>
<event>
 7    1  0.6235964E-006  0.7015494E+02  0.7818608E-02  0.1367360E+00
          2   -1    0    0  502    0  0.00000000000E+00  0.00000000000E+00  0.44573533128E+03  0.44573533128E+03  0.00000000000E+00 0. -1.
          1   -1    0    0  501    0 -0.00000000000E+00 -0.00000000000E+00 -0.20383064564E+04  0.20383064564E+04  0.00000000000E+00 0. -1.
         25    2    1    2    0    0  0.90364852262E+02  0.36342429398E+02  0.12853515652E+03  0.20404414398E+03  0.12500459004E+03 0.  0.
          2    1    1    2  501    0 -0.30383764934E+02 -0.63226399341E+02 -0.19960620825E+04  0.19972943168E+04  0.00000000000E+00 0. -1.
          1    1    1    2  502    0 -0.59981087328E+02  0.26883969944E+02  0.27495580081E+03  0.28270332696E+03  0.00000000000E+00 0. -1.
         22    1    3    3    0    0  0.68750759562E+02  0.61216256593E+02  0.24996704436E+02  0.95388323417E+02  0.00000000000E+00 0.  1.
         22    1    3    3    0    0  0.21614092700E+02 -0.24873827195E+02  0.10353845208E+03  0.10865582056E+03  0.00000000000E+00 0.  1.
</event>
<event>
 7    1  0.6235964E-006  0.1069582E+03  0.7818608E-02  0.1271767E+00
          2   -1    0    0  502    0  0.00000000000E+00  0.00000000000E+00  0.24003595708E+03  0.24003595708E+03  0.00000000000E+00 0. -1.
          1   -1    0    0  501    0 -0.00000000000E+00 -0.00000000000E+00 -0.18970878919E+04  0.18970878919E+04  0.00000000000E+00 0. -1.
         25    2    1    2    0    0 -0.17768964233E+03 -0.64960625490E+02 -0.29114315745E+03  0.36902872532E+03  0.12499748046E+03 0.  0.
          2    1    1    2  501    0  0.73664475436E+02  0.69755461932E+02 -0.15517519841E+04  0.15550647895E+04  0.00000000000E+00 0. -1.
          1    1    1    2  502    0  0.10402516690E+03 -0.47948364426E+01  0.18584320671E+03  0.21303033419E+03  0.00000000000E+00 0. -1.
         22    1    3    3    0    0 -0.16912843444E+03 -0.58789998126E+02 -0.30374426600E+03  0.35259221537E+03  0.00000000000E+00 0. -1.
         22    1    3    3    0    0 -0.85612078952E+01 -0.61706273641E+01  0.12601108542E+02  0.16436509945E+02  0.00000000000E+00 0. -1.
</event>
<event>
 7    1  0.6235964E-006  0.1016333E+03  0.7818608E-02  0.1320490E+00
          2   -1    0    0  502    0  0.00000000000E+00  0.00000000000E+00  0.43888731989E+02  0.43888731989E+02  0.00000000000E+00 0. -1.
          1   -1    0    0  501    0 -0.00000000000E+00 -0.00000000000E+00 -0.13373960507E+04  0.13373960507E+04  0.00000000000E+00 0. -1.
         25    2    1    2    0    0  0.63306900823E+02 -0.15639068714E+02 -0.38010031942E+03  0.40540510960E+03  0.12499882361E+03 0.  0.
          2    1    1    2  501    0  0.16503521697E+02 -0.65903734999E+02 -0.83424600833E+03  0.83700780817E+03  0.00000000000E+00 0. -1.
          1    1    1    2  502    0 -0.79810422520E+02  0.81542803713E+02 -0.79160990981E+02  0.13887186495E+03  0.00000000000E+00 0. -1.
         22    1    3    3    0    0  0.86712835124E+02  0.22343127413E+02 -0.30674399431E+03  0.31954688101E+03  0.00000000000E+00 0.  1.
         22    1    3    3    0    0 -0.23405934301E+02 -0.37982196127E+02 -0.73356325119E+02  0.85858228599E+02  0.00000000000E+00 0.  1.
</event>
<event>
 7    1  0.6235964E-006  0.1233708E+03  0.7818608E-02  0.1296875E+00
          2   -1    0    0  502    0  0.00000000000E+00  0.00000000000E+00  0.91865313555E+02  0.91865313555E+02  0.00000000000E+00 0. -1.
          1   -1    0    0  501    0 -0.00000000000E+00 -0.00000000000E+00 -0.72815433529E+03  0.72815433529E+03  0.00000000000E+00 0. -1.
         25    2    1    2    0    0 -0.59751014580E+01 -0.62839829018E+02 -0.48593168650E+03  0.50570662792E+03  0.12500017452E+03 0.  0.
          2    1    1    2  501    0  0.18180530127E+02 -0.66950597813E+02 -0.16894225151E+03  0.18263186624E+03  0.00000000000E+00 0. -1.
          1    1    1    2  502    0 -0.12205428669E+02  0.12979042683E+03  0.18584916268E+02  0.13168115468E+03  0.00000000000E+00 0. -1.
         22    1    3    3    0    0 -0.10966914279E+02 -0.86053385680E+02 -0.46794728402E+03  0.47592028641E+03  0.00000000000E+00 0. -1.
         22    1    3    3    0    0  0.49918128214E+01  0.23213556662E+02 -0.17984402484E+02  0.29786341515E+02  0.00000000000E+00 0. -1.
</event>
<event>
 7    1  0.6235964E-006  0.5464649E+02  0.7818608E-02  0.1493227E+00
          2   -1    0    0  502    0  0.00000000000E+00  0.00000000000E+00  0.52182665435E+03  0.52182665435E+03  0.00000000000E+00 0. -1.
          1   -1    0    0  501    0 -0.00000000000E+00 -0.00000000000E+00 -0.11454182996E+04  0.11454182996E+04  0.00000000000E+00 0. -1.
         25    2    1    2    0    0  0.18522526823E+02  0.78763851561E+02  0.10550996953E+03  0.18249444970E+03  0.12500016875E+03 0.  0.
          2    1    1    2  501    0  0.68996460251E+01 -0.31709124871E+02 -0.11047939197E+04  0.11052704098E+04  0.00000000000E+00 0. -1.
          1    1    1    2  502    0 -0.25422172848E+02 -0.47054726691E+02  0.37569230489E+03  0.37948009451E+03  0.00000000000E+00 0. -1.
         22    1    3    3    0    0  0.18589978436E+02 -0.17418919396E+02  0.78589274685E+02  0.82615253717E+02  0.00000000000E+00 0. -1.
         22    1    3    3    0    0 -0.67451612719E-01  0.96182770957E+02  0.26920694844E+02  0.99879195980E+02  0.00000000000E+00 0. -1.
</event>
<event>
 7    1  0.6235964E-006  0.6652111E+02  0.7818608E-02  0.1382474E+00
          2   -1    0    0  502    0  0.00000000000E+00  0.00000000000E+00  0.15552908235E+04  0.15552908235E+04  0.00000000000E+00 0. -1.
          1   -1    0    0  501    0 -0.00000000000E+00 -0.00000000000E+00 -0.27793004813E+02  0.27793004813E+02  0.00000000000E+00 0. -1.
         25    2    1    2    0    0  0.97738644960E+00 -0.92123627977E+02  0.68779192205E+03  0.70510381514E+03  0.12500377583E+03 0.  0.
          2    1    1    2  501    0  0.43365179915E+02  0.49907566939E+02  0.42875771673E+02  0.78801242778E+02  0.00000000000E+00 0. -1.
          1    1    1    2  502    0 -0.44342566364E+02  0.42216061038E+02  0.79683012493E+03  0.79917877036E+03  0.00000000000E+00 0. -1.
         22    1    3    3    0    0 -0.17211843864E+02 -0.89110189438E+02  0.23469463370E+03  0.25163156502E+03  0.00000000000E+00 0. -1.
         22    1    3    3    0    0  0.18189230313E+02 -0.30134385390E+01  0.45309728835E+03  0.45347225011E+03  0.00000000000E+00 0. -1.
</event>
<event>
 7    1  0.6235964E-006  0.7251552E+02  0.7818608E-02  0.1378071E+00
          2   -1    0    0  502    0  0.00000000000E+00  0.00000000000E+00  0.18483997299E+04  0.18483997299E+04  0.00000000000E+00 0. -1.
          1   -1    0    0  501    0 -0.00000000000E+00 -0.00000000000E+00 -0.21520894020E+03  0.21520894020E+03  0.00000000000E+00 0. -1.
         25    2    1    2    0    0  0.30082534744E+02  0.13187288795E+02  0.11041274936E+03  0.16998436419E+03  0.12499938146E+03 0.  0.
          2    1    1    2  501    0 -0.24527618790E+02 -0.71137622835E+02 -0.17727021364E+03  0.19257957864E+03  0.00000000000E+00 0. -1.
          1    1    1    2  502    0 -0.55549159545E+01  0.57950334040E+02  0.17000482540E+04  0.17010447273E+04  0.00000000000E+00 0. -1.
         22    1    3    3    0    0  0.28042763698E+02  0.60886060490E+02  0.10115905580E+03  0.12135346525E+03  0.00000000000E+00 0.  1.
         22    1    3    3    0    0  0.20397710457E+01 -0.47698771695E+02  0.92536935656E+01  0.48630898940E+02  0.00000000000E+00 0.  1.
</event>
<event>
 7    1  0.6235964E-006  0.4266347E+02  0.7818608E-02  0.1489800E+00
          2   -1    0    0  502    0  0.00000000000E+00  0.00000000000E+00  0.18486500630E+04  0.18486500630E+04  0.00000000000E+00 0. -1.
          1   -1    0    0  501    0 -0.00000000000E+00 -0.00000000000E+00 -0.11600041427E+03  0.11600041427E+03  0.00000000000E+00 0. -1.
         25    2    1    2    0    0  0.65909937472E+01  0.19747684684E+02  0.62195874777E+02  0.14115913682E+03  0.12499665123E+03 0.  0.
          2    1    1    2  501    0  0.35166977596E+02 -0.28012728088E+02 -0.69631585021E+02  0.82885383999E+02  0.00000000000E+00 0. -1.
          1    1    1    2  502    0 -0.41757971343E+02  0.82650434037E+01  0.17400853590E+04  0.17406059565E+04  0.00000000000E+00 0. -1.
         22    1    3    3    0    0 -0.36497328820E+02  0.45084662315E+02 -0.40771834711E+01  0.58148991497E+02  0.00000000000E+00 0. -1.
         22    1    3    3    0    0  0.43088322567E+02 -0.25336977630E+02  0.66273058248E+02  0.83010145324E+02  0.00000000000E+00 0. -1.
</event>
<event>
 7    1  0.6235964E-006  0.1080663E+03  0.7818608E-02  0.1267048E+00
          2   -1    0    0  502    0  0.00000000000E+00  0.00000000000E+00  0.54742940219E+03  0.54742940219E+03  0.00000000000E+00 0. -1.
          1   -1    0    0  501    0 -0.00000000000E+00 -0.00000000000E+00 -0.41124166764E+03  0.41124166764E+03  0.00000000000E+00 0. -1.
         25    2    1    2    0    0 -0.43017682100E+01  0.27838551530E+02 -0.73668560998E+02  0.14779917886E+03  0.12499620087E+03 0.  0.
          2    1    1    2  501    0  0.99202705088E+02  0.34721102333E+02 -0.28466883922E+03  0.30345193963E+03  0.00000000000E+00 0. -1.
          1    1    1    2  502    0 -0.94900936878E+02 -0.62559653862E+02  0.49452513476E+03  0.50741995134E+03  0.00000000000E+00 0. -1.
         22    1    3    3    0    0  0.25587926560E+02  0.69728175051E+02 -0.57267462595E+02  0.93788712827E+02  0.00000000000E+00 0.  1.
         22    1    3    3    0    0 -0.29889694770E+02 -0.41889623522E+02 -0.16401098403E+02  0.54010466033E+02  0.00000000000E+00 0.  1.
</event>
<event>
 7    1  0.6235964E-006  0.4521893E+02  0.7818608E-02  0.1480328E+00
          2   -1    0    0  502    0  0.00000000000E+00  0.00000000000E+00  0.45385799459E+03  0.45385799459E+03  0.00000000000E+00 0. -1.
          1   -1    0    0  501    0 -0.00000000000E+00 -0.00000000000E+00 -0.52678826096E+02  0.52678826096E+02  0.00000000000E+00 0. -1.
         25    2    1    2    0    0  0.17220277425E+02 -0.15653734041E+02  0.22729067205E+03  0.26043677156E+03  0.12499874014E+03 0.  0.
          2    1    1    2  501    0  0.27447571620E+02  0.35935811240E+02 -0.17528028151E+02  0.48497252377E+02  0.00000000000E+00 0. -1.
          1    1    1    2  502    0 -0.44667849045E+02 -0.20282077198E+02  0.19141652459E+03  0.19760279674E+03  0.00000000000E+00 0. -1.
         22    1    3    3    0    0  0.79639134033E+01  0.13122950532E+02  0.22960685131E+03  0.23011940795E+03  0.00000000000E+00 0.  1.
         22    1    3    3    0    0  0.92563640216E+01 -0.28776684573E+02 -0.23161792609E+01  0.30317363610E+02  0.00000000000E+00 0.  1.
</event>
<event>
 7    1  0.6235964E-006  0.5716763E+02  0.7818608E-02  0.1477264E+00
          2   -1    0    0  502    0  0.00000000000E+00  0.00000000000E+00  0.73508978284E+03  0.73508978284E+03  0.00000000000E+00 0. -1.
          1   -1    0    0  501    0 -0.00000000000E+00 -0.00000000000E+00 -0.19258500815E+03  0.19258500815E+03  0.00000000000E+00 0. -1.
         25    2    1    2    0    0 -0.35984304195E+01  0.25337675791E+02  0.40733252363E+03  0.42684810306E+03  0.12499828704E+03 0.  0.
          2    1    1    2  501    0 -0.12217583284E+02 -0.56217081810E+02 -0.17731767513E+03  0.18641670403E+03  0.00000000000E+00 0. -1.
          1    1    1    2  502    0  0.15816013703E+02  0.30879406019E+02  0.31248992618E+03  0.31440998389E+03  0.00000000000E+00 0. -1.
         22    1    3    3    0    0  0.42734683246E+02 -0.27111634599E+02  0.24334096978E+03  0.24854802645E+03  0.00000000000E+00 0.  1.
         22    1    3    3    0    0 -0.46333113665E+02  0.52449310389E+02  0.16399155386E+03  0.17830007661E+03  0.00000000000E+00 0.  1.
</event>
<event>
 7    1  0.6235964E-006  0.4139121E+02  0.7818608E-02  0.1545909E+00
          2   -1    0    0  502    0  0.00000000000E+00  0.00000000000E+00  0.43359875215E+03  0.43359875215E+03  0.00000000000E+00 0. -1.
          1   -1    0    0  501    0 -0.00000000000E+00 -0.00000000000E+00 -0.16684164455E+03  0.16684164455E+03  0.00000000000E+00 0. -1.
         25    2    1    2    0    0 -0.16595971355E+02  0.28290021898E+01  0.13289585755E+03  0.18322049158E+03  0.12500004025E+03 0.  0.
          2    1    1    2  501    0  0.29059031275E+02 -0.30242614150E+02 -0.13772486441E+03  0.14396937621E+03  0.00000000000E+00 0. -1.
          1    1    1    2  502    0 -0.12463059920E+02  0.27413611960E+02  0.27158611446E+03  0.27325052891E+03  0.00000000000E+00 0. -1.
         22    1    3    3    0    0 -0.56226392220E+02  0.35469204993E+02  0.10635973134E+03  0.12542672815E+03  0.00000000000E+00 0. -1.
         22    1    3    3    0    0  0.39630420865E+02 -0.32640202804E+02  0.26536126214E+02  0.57793763430E+02  0.00000000000E+00 0. -1.
</event>
<event>
 7    1  0.6235964E-006  0.7523510E+02  0.7818608E-02  0.1444296E+00
          2   -1    0    0  502    0  0.00000000000E+00  0.00000000000E+00  0.22667957461E+04  0.22667957461E+04  0.00000000000E+00 0. -1.
          1   -1    0    0  501    0 -0.00000000000E+00 -0.00000000000E+00 -0.58191489616E+02  0.58191489616E+02  0.00000000000E+00 0. -1.
         25    2    1    2    0    0 -0.44450911085E+02  0.15260696871E+01  0.68210073883E+03  0.69488451981E+03  0.12499946226E+03 0.  0.
          2    1    1    2  501    0  0.75858449530E+02  0.10093477156E+02 -0.23255053009E+02  0.79982373912E+02  0.00000000000E+00 0. -1.
          1    1    1    2  502    0 -0.31407538445E+02 -0.11619546843E+02  0.15497585706E+04  0.15501203420E+04  0.00000000000E+00 0. -1.
         22    1    3    3    0    0  0.38438669597E+02 -0.62114380467E+01  0.10852412028E+03  0.11529786627E+03  0.00000000000E+00 0. -1.
         22    1    3    3    0    0 -0.82889580682E+02  0.77375077338E+01  0.57357661855E+03  0.57958665354E+03  0.00000000000E+00 0. -1.
</event>
<event>
 7    1  0.6235964E-006  0.1054020E+03  0.7818608E-02  0.1280088E+00
          2   -1    0    0  502    0  0.00000000000E+00  0.00000000000E+00  0.15624099155E+03  0.15624099155E+03  0.00000000000E+00 0. -1.
          1   -1    0    0  501    0 -0.00000000000E+00 -0.00000000000E+00 -0.25018085105E+04  0.25018085105E+04  0.00000000000E+00 0. -1.
         25    2    1    2    0    0  0.35809270928E+02 -0.89136108103E+01 -0.58906365600E+01  0.13046476932E+03  0.12499840036E+03 0.  0.
          2    1    1    2  501    0  0.92933205221E+02 -0.49729357861E+02 -0.23785400146E+04  0.23808742492E+04  0.00000000000E+00 0. -1.
          1    1    1    2  502    0 -0.12874247615E+03  0.58642968671E+02  0.38863132153E+02  0.14671048354E+03  0.00000000000E+00 0. -1.
         22    1    3    3    0    0  0.59344157554E+01 -0.33820555129E+02 -0.56815192713E+02  0.66385339967E+02  0.00000000000E+00 0. -1.
         22    1    3    3    0    0  0.29874855172E+02  0.24906944319E+02  0.50924556153E+02  0.64079429353E+02  0.00000000000E+00 0. -1.
</event>
<event>
 7    1  0.6235964E-006  0.6500920E+02  0.7818608E-02  0.1456584E+00
          2   -1    0    0  502    0  0.00000000000E+00  0.00000000000E+00  0.76736205714E+02  0.76736205714E+02  0.00000000000E+00 0. -1.
          1   -1    0    0  501    0 -0.00000000000E+00 -0.00000000000E+00 -0.29655180423E+04  0.29655180423E+04  0.00000000000E+00 0. -1.
         25    2    1    2    0    0 -0.24309028646E+02 -0.46628874432E+02 -0.53913470684E+03  0.55592889340E+03  0.12500208634E+03 0.  0.
          2    1    1    2  501    0  0.57103427060E+02  0.33290263992E+02 -0.24129178969E+04  0.24138230714E+04  0.00000000000E+00 0. -1.
          1    1    1    2  502    0 -0.32794398414E+02  0.13338610441E+02  0.63270767129E+02  0.72502283198E+02  0.00000000000E+00 0. -1.
         22    1    3    3    0    0 -0.34792518134E+02  0.15260873516E+02 -0.50070305495E+02  0.62852597965E+02  0.00000000000E+00 0.  1.
         22    1    3    3    0    0  0.10483489488E+02 -0.61889747949E+02 -0.48906440135E+03  0.49307629543E+03  0.00000000000E+00 0.  1.
</event>
<event>
 7    1  0.6235964E-006  0.9857057E+02  0.7818608E-02  0.1356320E+00
          2   -1    0    0  502    0  0.00000000000E+00  0.00000000000E+00  0.60240001862E+03  0.60240001862E+03  0.00000000000E+00 0. -1.
          1   -1    0    0  501    0 -0.00000000000E+00 -0.00000000000E+00 -0.20524781631E+04  0.20524781631E+04  0.00000000000E+00 0. -1.
         25    2    1    2    0    0 -0.11894441580E+03  0.89129341004E+02 -0.14292898087E+03  0.24113394634E+03  0.12500029211E+03 0.  0.
          2    1    1    2  501    0  0.39184190214E+02 -0.33135263631E+02 -0.18557981644E+04  0.18565075205E+04  0.00000000000E+00 0. -1.
          1    1    1    2  502    0  0.79760225586E+02 -0.55994077374E+02  0.54864900085E+03  0.55723671489E+03  0.00000000000E+00 0. -1.
         22    1    3    3    0    0 -0.99773810410E+02  0.77402559464E+02 -0.35207972015E+02  0.13109374794E+03  0.00000000000E+00 0. -1.
         22    1    3    3    0    0 -0.19170605389E+02  0.11726781541E+02 -0.10772100885E+03  0.11004019840E+03  0.00000000000E+00 0. -1.
</event>
<event>
 7    1  0.1077847E-005  0.5078663E+02  0.7818608E-02  0.1448169E+00
          2   -1    0    0  502    0  0.00000000000E+00  0.00000000000E+00  0.13714546406E+04  0.13714546406E+04  0.00000000000E+00 0. -1.
          1   -1    0    0  501    0 -0.00000000000E+00 -0.00000000000E+00 -0.78386963900E+03  0.78386963900E+03  0.00000000000E+00 0. -1.
         25    2    1    2    0    0  0.23310640884E+02  0.92503116218E+02 -0.20451588003E+03  0.25797482686E+03  0.12499621442E+03 0.  0.
          2    1    1    2  501    0 -0.24000144164E+02 -0.41806804952E+02 -0.55109383406E+03  0.55319818311E+03  0.00000000000E+00 0. -1.
          1    1    1    2  502    0  0.68950328003E+00 -0.50696311266E+02  0.13431947157E+04  0.13441512696E+04  0.00000000000E+00 0. -1.
         22    1    3    3    0    0 -0.15485512299E+02  0.97674380822E+02 -0.19351266744E+03  0.21731828782E+03  0.00000000000E+00 0.  1.
         22    1    3    3    0    0  0.38796153182E+02 -0.51712646047E+01 -0.11003212589E+02  0.40656539039E+02  0.00000000000E+00 0.  1.
</event>
<event>
 7    1  0.6235964E-006  0.8299565E+02  0.7818608E-02  0.1352402E+00
          2   -1    0    0  502    0  0.00000000000E+00  0.00000000000E+00  0.11619751188E+04  0.11619751188E+04  0.00000000000E+00 0. -1.
          1   -1    0    0  501    0 -0.00000000000E+00 -0.00000000000E+00 -0.63539849317E+03  0.63539849317E+03  0.00000000000E+00 0. -1.
         25    2    1    2    0    0 -0.96091073369E+01 -0.96069468532E+02  0.31641625292E+03  0.35364732499E+03  0.12500203050E+03 0.  0.
          2    1    1    2  501    0  0.59661836017E+02  0.57804132866E+02 -0.61277623385E+03  0.61838140757E+03  0.00000000000E+00 0. -1.
          1    1    1    2  502    0 -0.50052728680E+02  0.38265335666E+02  0.82293660659E+03  0.82534487944E+03  0.00000000000E+00 0. -1.
         22    1    3    3    0    0 -0.54049919370E+02 -0.14183177928E+02  0.66102821557E+02  0.86557144927E+02  0.00000000000E+00 0. -1.
         22    1    3    3    0    0  0.44440812034E+02 -0.81886290604E+02  0.25031343137E+03  0.26709018006E+03  0.00000000000E+00 0. -1.
</event>
<event>
 7    1  0.6235964E-006  0.7877174E+02  0.7818608E-02  0.1452580E+00
          2   -1    0    0  502    0  0.00000000000E+00  0.00000000000E+00  0.17150858348E+03  0.17150858348E+03  0.00000000000E+00 0. -1.
          1   -1    0    0  501    0 -0.00000000000E+00 -0.00000000000E+00 -0.27818716209E+03  0.27818716209E+03  0.00000000000E+00 0. -1.
         25    2    1    2    0    0 -0.92059784346E+01 -0.50826058591E+02  0.80162206493E+02  0.15722263369E+03  0.12499975569E+03 0.  0.
          2    1    1    2  501    0  0.32021907489E+01  0.80307785552E+02 -0.22785067224E+03  0.24161027148E+03  0.00000000000E+00 0. -1.
          1    1    1    2  502    0  0.60037876856E+01 -0.29481726961E+02  0.41009887131E+02  0.50862840402E+02  0.00000000000E+00 0. -1.
         22    1    3    3    0    0  0.16754938673E+02 -0.47625684010E+02 -0.19547444041E+02  0.54139046130E+02  0.00000000000E+00 0.  1.
         22    1    3    3    0    0 -0.25960917108E+02 -0.32003745809E+01  0.99709650534E+02  0.10308358756E+03  0.00000000000E+00 0.  1.
</event>
<event>
 7    1  0.9187293E-006  0.1000805E+03  0.7818608E-02  0.1433840E+00
          2   -1    0    0  502    0  0.00000000000E+00  0.00000000000E+00  0.23336907767E+04  0.23336907767E+04  0.00000000000E+00 0. -1.
          1   -1    0    0  501    0 -0.00000000000E+00 -0.00000000000E+00 -0.12553897678E+04  0.12553897678E+04  0.00000000000E+00 0. -1.
         25    2    1    2    0    0 -0.18990974814E+02 -0.12504489919E+03 -0.10845362215E+03  0.20828503306E+03  0.12499433148E+03 0.  0.
          2    1    1    2  501    0 -0.11584606158E+01  0.27198500816E+02 -0.10957588212E+04  0.10960969368E+04  0.00000000000E+00 0. -1.
          1    1    1    2  502    0  0.20149435430E+02  0.97846398375E+02  0.22825134523E+04  0.22846985747E+04  0.00000000000E+00 0. -1.
         22    1    3    3    0    0  0.17615613465E+02 -0.12421500103E+03 -0.11603638681E+03  0.17089212791E+03  0.00000000000E+00 0. -1.
         22    1    3    3    0    0 -0.36606588279E+02 -0.82989816623E+00  0.75827646553E+01  0.37392905159E+02  0.00000000000E+00 0. -1.
</event>
<event>
 7    1  0.6235964E-006  0.7467371E+02  0.7818608E-02  0.1355736E+00
          2   -1    0    0  502    0  0.00000000000E+00  0.00000000000E+00  0.35645421269E+03  0.35645421269E+03  0.00000000000E+00 0. -1.
          1   -1    0    0  501    0 -0.00000000000E+00 -0.00000000000E+00 -0.87714839841E+03  0.87714839841E+03  0.00000000000E+00 0. -1.
         25    2    1    2    0    0 -0.13532792417E+03  0.77423780469E+01 -0.28748716899E+03  0.34153778225E+03  0.12500237155E+03 0.  0.
          2    1    1    2  501    0  0.67861445271E+02 -0.16814946800E+02 -0.55691007887E+03  0.56128135025E+03  0.00000000000E+00 0. -1.
          1    1    1    2  502    0  0.67466478896E+02  0.90725687529E+01  0.32370306214E+03  0.33078347861E+03  0.00000000000E+00 0. -1.
         22    1    3    3    0    0 -0.29662382342E+02 -0.33124989225E+02 -0.17985060756E+03  0.18526565488E+03  0.00000000000E+00 0. -1.
         22    1    3    3    0    0 -0.10566554183E+03  0.40867367272E+02 -0.10763656143E+03  0.15627212737E+03  0.00000000000E+00 0. -1.
</event>
<event>
 7    1  0.6235964E-006  0.1052660E+03  0.7818608E-02  0.1364974E+00
          2   -1    0    0  502    0  0.00000000000E+00  0.00000000000E+00  0.10933919889E+04  0.10933919889E+04  0.00000000000E+00 0. -1.
          1   -1    0    0  501    0 -0.00000000000E+00 -0.00000000000E+00 -0.10148766484E+03  0.10148766484E+03  0.00000000000E+00 0. -1.
         25    2    1    2    0    0 -0.13772010592E+03  0.17075336891E+02  0.14643047826E+03  0.23733044320E+03  0.12500183839E+03 0.  0.
          2    1    1    2  501    0  0.97942225999E+02  0.32834045919E+01 -0.12162890506E+02  0.98749158401E+02  0.00000000000E+00 0. -1.
          1    1    1    2  502    0  0.39777879919E+02 -0.20358741483E+02  0.85763673630E+03  0.85880005213E+03  0.00000000000E+00 0. -1.
         22    1    3    3    0    0 -0.53664381061E+02  0.47169477641E+02  0.12736552510E+03  0.14603698983E+03  0.00000000000E+00 0. -1.
         22    1    3    3    0    0 -0.84055724857E+02 -0.30094140750E+02  0.19064953162E+02  0.91293453368E+02  0.00000000000E+00 0. -1.
</event>
<event>
 7    1  0.6235964E-006  0.5139913E+02  0.7818608E-02  0.1575331E+00
          2   -1    0    0  502    0  0.00000000000E+00  0.00000000000E+00  0.75670437488E+03  0.75670437488E+03  0.00000000000E+00 0. -1.
          1   -1    0    0  501    0 -0.00000000000E+00 -0.00000000000E+00 -0.98503461044E+03  0.98503461044E+03  0.00000000000E+00 0. -1.
         25    2    1    2    0    0  0.25402872389E+01  0.47343992729E+02  0.52580782367E+03  0.54253849708E+03  0.12500498658E+03 0.  0.
          2    1    1    2  501    0 -0.22632538157E+02 -0.46158966403E+02 -0.97553595728E+03  0.97688959760E+03  0.00000000000E+00 0. -1.
          1    1    1    2  502    0  0.20092250918E+02 -0.11850263258E+01  0.22139789806E+03  0.22231089064E+03  0.00000000000E+00 0. -1.
         22    1    3    3    0    0  0.34195233587E+02  0.56765943853E+02  0.48739359107E+03  0.49187823595E+03  0.00000000000E+00 0. -1.
         22    1    3    3    0    0 -0.31654946349E+02 -0.94219511238E+01  0.38414232598E+02  0.50660261127E+02  0.00000000000E+00 0. -1.
</event>
<event>
 7    1  0.6235964E-006  0.1178260E+03  0.7818608E-02  0.1404890E+00
          2   -1    0    0  502    0  0.00000000000E+00  0.00000000000E+00  0.12725845310E+04  0.12725845310E+04  0.00000000000E+00 0. -1.
          1   -1    0    0  501    0 -0.00000000000E+00 -0.00000000000E+00 -0.14522867821E+03  0.14522867821E+03  0.00000000000E+00 0. -1.
         25    2    1    2    0    0  0.95629273259E+02  0.65741229364E+02  0.51954213597E+03  0.54682363790E+03  0.12500077110E+03 0.  0.
          2    1    1    2  501    0 -0.78009818768E+02 -0.88644063880E+02 -0.10474554637E+03  0.15784464315E+03  0.00000000000E+00 0. -1.
          1    1    1    2  502    0 -0.17619454490E+02  0.22902834516E+02  0.71255926320E+03  0.71314492817E+03  0.00000000000E+00 0. -1.
         22    1    3    3    0    0  0.11629171714E+03  0.26056769197E+02  0.43672523128E+03  0.45269376661E+03  0.00000000000E+00 0.  1.
         22    1    3    3    0    0 -0.20662443878E+02  0.39684460167E+02  0.82816904690E+02  0.94129871285E+02  0.00000000000E+00 0.  1.
</event>
<event>
 7    1  0.6235964E-006  0.7429391E+02  0.7818608E-02  0.1351791E+00
          2   -1    0    0  502    0  0.00000000000E+00  0.00000000000E+00  0.85283663687E+03  0.85283663687E+03  0.00000000000E+00 0. -1.
          1   -1    0    0  501    0 -0.00000000000E+00 -0.00000000000E+00 -0.19042936638E+03  0.19042936638E+03  0.00000000000E+00 0. -1.
         25    2    1    2    0    0  0.23055893720E+02 -0.20238368393E+02 -0.21878505286E+02  0.13055666303E+03  0.12500082991E+03 0.  0.
          2    1    1    2  501    0 -0.49080628972E+02 -0.50957993870E+02 -0.10125250188E+03  0.12352204020E+03  0.00000000000E+00 0. -1.
          1    1    1    2  502    0  0.26024735252E+02  0.71196362263E+02  0.78553827766E+03  0.78918730002E+03  0.00000000000E+00 0. -1.
         22    1    3    3    0    0  0.16550193231E+02 -0.52142713781E+02 -0.59482756815E+02  0.80814416132E+02  0.00000000000E+00 0.  1.
         22    1    3    3    0    0  0.65057004887E+01  0.31904345388E+02  0.37604251529E+02  0.49742246899E+02  0.00000000000E+00 0.  1.
</event>
<event>
 7    1  0.6235964E-006  0.1555414E+03  0.7818608E-02  0.1258305E+00
          2   -1    0    0  502    0  0.00000000000E+00  0.00000000000E+00  0.29135928160E+03  0.29135928160E+03  0.00000000000E+00 0. -1.
          1   -1    0    0  501    0 -0.00000000000E+00 -0.00000000000E+00 -0.25490161135E+04  0.25490161135E+04  0.00000000000E+00 0. -1.
         25    2    1    2    0    0  0.14619920470E+03  0.73043222770E+02 -0.30994221834E+03  0.37201862820E+03  0.12499664464E+03 0.  0.
          2    1    1    2  501    0 -0.89226799800E+02 -0.12855537057E+03 -0.21991131801E+04  0.22046738271E+04  0.00000000000E+00 0. -1.
          1    1    1    2  502    0 -0.56972404898E+02  0.55512147800E+02  0.25139856653E+03  0.26368293978E+03  0.00000000000E+00 0. -1.
         22    1    3    3    0    0  0.12739854788E+03  0.10013771301E+03 -0.29328265207E+03  0.33507113510E+03  0.00000000000E+00 0.  1.
         22    1    3    3    0    0  0.18800656822E+02 -0.27094490243E+02 -0.16659566268E+02  0.36947493104E+02  0.00000000000E+00 0.  1.
</event>
<event>
 7    1  0.6235964E-006  0.9761046E+02  0.7818608E-02  0.1373436E+00
          2   -1    0    0  502    0  0.00000000000E+00  0.00000000000E+00  0.10026473614E+04  0.10026473614E+04  0.00000000000E+00 0. -1.
          1   -1    0    0  501    0 -0.00000000000E+00 -0.00000000000E+00 -0.41210023169E+03  0.41210023169E+03  0.00000000000E+00 0. -1.
         25    2    1    2    0    0  0.62405423758E+02  0.23030793159E+02 -0.16620041195E+03  0.21833975508E+03  0.12499926948E+03 0.  0.
          2    1    1    2  501    0  0.35571325585E+02 -0.27440940080E+02 -0.21504049547E+03  0.21968326993E+03  0.00000000000E+00 0. -1.
          1    1    1    2  502    0 -0.97976749344E+02  0.44101469207E+01  0.97178803716E+03  0.97672456813E+03  0.00000000000E+00 0. -1.
         22    1    3    3    0    0 -0.85767160094E+01  0.30067830838E+02  0.61013029506E+01  0.31856873772E+02  0.00000000000E+00 0. -1.
         22    1    3    3    0    0  0.70982139768E+02 -0.70370376791E+01 -0.17230171490E+03  0.18648288131E+03  0.00000000000E+00 0. -1.
</event>
<event>
 7    1  0.6235964E-006  0.7462636E+02  0.7818608E-02  0.1417588E+00
          2   -1    0    0  502    0  0.00000000000E+00  0.00000000000E+00  0.11490373207E+04  0.11490373207E+04  0.00000000000E+00 0. -1.
          1   -1    0    0  501    0 -0.00000000000E+00 -0.00000000000E+00 -0.57112567944E+02  0.57112567944E+02  0.00000000000E+00 0. -1.
         25    2    1    2    0    0  0.43540173387E+02 -0.12463353887E+02  0.20908051632E+03  0.24777114111E+03  0.12499917669E+03 0.  0.
          2    1    1    2  501    0 -0.80498415777E+02 -0.60302458885E+01  0.64180160641E+01  0.80978699287E+02  0.00000000000E+00 0. -1.
          1    1    1    2  502    0  0.36958242390E+02  0.18493599775E+02  0.87642622038E+03  0.87740004826E+03  0.00000000000E+00 0. -1.
         22    1    3    3    0    0  0.74173969710E+02  0.22556348265E+02  0.83959739320E+02  0.11427950147E+03  0.00000000000E+00 0.  1.
         22    1    3    3    0    0 -0.30633796323E+02 -0.35019702151E+02  0.12512077700E+03  0.13349163964E+03  0.00000000000E+00 0.  1.
</event>
<event>
 7    1  0.6235964E-006  0.5792316E+02  0.7818608E-02  0.1525261E+00
          2   -1    0    0  502    0  0.00000000000E+00  0.00000000000E+00  0.56590047420E+03  0.56590047420E+03  0.00000000000E+00 0. -1.
          1   -1    0    0  501    0 -0.00000000000E+00 -0.00000000000E+00 -0.62167616689E+03  0.62167616689E+03  0.00000000000E+00 0. -1.
         25    2    1    2    0    0 -0.21912925080E+02  0.77799763694E+02 -0.23640066540E+03  0.27936258370E+03  0.12500079621E+03 0.  0.
          2    1    1    2  501    0  0.13462145907E+02 -0.20630246515E+02 -0.36184093844E+03  0.36267850939E+03  0.00000000000E+00 0. -1.
          1    1    1    2  502    0  0.84507791737E+01 -0.57169517179E+02  0.54246591115E+03  0.54553554799E+03  0.00000000000E+00 0. -1.
         22    1    3    3    0    0 -0.37096012491E+02  0.10672627778E+03 -0.20485413137E+03  0.23394834397E+03  0.00000000000E+00 0.  1.
         22    1    3    3    0    0  0.15183087411E+02 -0.28926514083E+02 -0.31546534039E+02  0.45414239729E+02  0.00000000000E+00 0.  1.
</event>
<event>
 7    1  0.6235964E-006  0.1393878E+03  0.7818608E-02  0.1224171E+00
          2   -1    0    0  502    0  0.00000000000E+00  0.00000000000E+00  0.70357703718E+02  0.70357703718E+02  0.00000000000E+00 0. -1.
          1   -1    0    0  501    0 -0.00000000000E+00 -0.00000000000E+00 -0.24694512977E+04  0.24694512977E+04  0.00000000000E+00 0. -1.
         25    2    1    2    0    0  0.57354424865E+02  0.25194306040E+03 -0.42021893714E+03  0.50889739372E+03  0.12501106539E+03 0.  0.
          2    1    1    2  501    0 -0.30322333030E+02 -0.12943327329E+03 -0.18358653907E+04  0.18406722003E+04  0.00000000000E+00 0. -1.
          1    1    1    2  502    0 -0.27032091834E+02 -0.12250978711E+03 -0.14300926610E+03  0.19023940737E+03  0.00000000000E+00 0. -1.
         22    1    3    3    0    0  0.88391395211E+02  0.14505495002E+03 -0.30223185375E+03  0.34669593406E+03  0.00000000000E+00 0. -1.
         22    1    3    3    0    0 -0.31036970347E+02  0.10688811039E+03 -0.11798708339E+03  0.16220145966E+03  0.00000000000E+00 0. -1.
</event>
<event>
 7    1  0.1235618E-005  0.7887868E+02  0.7818608E-02  0.1353859E+00
          2   -1    0    0  502    0  0.00000000000E+00  0.00000000000E+00  0.25140167085E+04  0.25140167085E+04  0.00000000000E+00 0. -1.
          1   -1    0    0  501    0 -0.00000000000E+00 -0.00000000000E+00 -0.19634901770E+04  0.19634901770E+04  0.00000000000E+00 0. -1.
         25    2    1    2    0    0 -0.37521891206E+02  0.20567423650E+02 -0.43925507214E+03  0.45869529722E+03  0.12500178421E+03 0.  0.
          2    1    1    2  501    0 -0.32651237901E+02 -0.56755852495E+02 -0.15131845011E+04  0.15146004967E+04  0.00000000000E+00 0. -1.
          1    1    1    2  502    0  0.70173129107E+02  0.36188428845E+02  0.25029661047E+04  0.25042110916E+04  0.00000000000E+00 0. -1.
         22    1    3    3    0    0  0.91715916658E+01 -0.45681064084E+02 -0.22145572997E+03  0.22630403895E+03  0.00000000000E+00 0.  1.
         22    1    3    3    0    0 -0.46693482872E+02  0.66248487734E+02 -0.21779934217E+03  0.23239125827E+03  0.00000000000E+00 0.  1.
</event>
<event>
 7    1  0.6235964E-006  0.1437213E+03  0.7818608E-02  0.1425699E+00
          2   -1    0    0  502    0  0.00000000000E+00  0.00000000000E+00  0.18814104201E+04  0.18814104201E+04  0.00000000000E+00 0. -1.
          1   -1    0    0  501    0 -0.00000000000E+00 -0.00000000000E+00 -0.31692518015E+02  0.31692518015E+02  0.00000000000E+00 0. -1.
         25    2    1    2    0    0 -0.15210896970E+03 -0.42606061411E+02  0.44361435592E+03  0.48720698902E+03  0.12499815294E+03 0.  0.
          2    1    1    2  501    0  0.13355501382E+02  0.15106918810E+02  0.97526990477E+01  0.22398739960E+02  0.00000000000E+00 0. -1.
          1    1    1    2  502    0  0.13875346831E+03  0.27499142601E+02  0.13963508471E+04  0.14034972091E+04  0.00000000000E+00 0. -1.
         22    1    3    3    0    0 -0.12464006857E+03 -0.66034740736E+02  0.42240846775E+03  0.44533655509E+03  0.00000000000E+00 0. -1.
         22    1    3    3    0    0 -0.27468901123E+02  0.23428679325E+02  0.21205888175E+02  0.41870433925E+02  0.00000000000E+00 0. -1.
</event>
<event>
 7    1  0.6235964E-006  0.8932877E+02  0.7818608E-02  0.1358950E+00
          2   -1    0    0  502    0  0.00000000000E+00  0.00000000000E+00  0.26976202073E+03  0.26976202073E+03  0.00000000000E+00 0. -1.
          1   -1    0    0  501    0 -0.00000000000E+00 -0.00000000000E+00 -0.72466797773E+03  0.72466797773E+03  0.00000000000E+00 0. -1.
         25    2    1    2    0    0 -0.42757023387E+02  0.97718253977E+02 -0.23387232926E+03  0.28582828271E+03  0.12499808236E+03 0.  0.
          2    1    1    2  501    0  0.54604682076E+02 -0.92545163886E+01 -0.45491221714E+03  0.45827114538E+03  0.00000000000E+00 0. -1.
          1    1    1    2  502    0 -0.11847658689E+02 -0.88463737589E+02  0.23387858940E+03  0.25033057038E+03  0.00000000000E+00 0. -1.
         22    1    3    3    0    0  0.18268947351E+02 -0.97076249931E+01 -0.10607595842E+03  0.10807451770E+03  0.00000000000E+00 0. -1.
         22    1    3    3    0    0 -0.61025970738E+02  0.10742587897E+03 -0.12779637084E+03  0.17775376501E+03  0.00000000000E+00 0. -1.
</event>
<event>
 7    1  0.6235964E-006  0.1340148E+03  0.7818608E-02  0.1263695E+00
          2   -1    0    0  502    0  0.00000000000E+00  0.00000000000E+00  0.11312547459E+04  0.11312547459E+04  0.00000000000E+00 0. -1.
          1   -1    0    0  501    0 -0.00000000000E+00 -0.00000000000E+00 -0.98912495956E+03  0.98912495956E+03  0.00000000000E+00 0. -1.
         25    2    1    2    0    0  0.17248198125E+03  0.26579039433E+02  0.90265623797E+03  0.92783048707E+03  0.12499859840E+03 0.  0.
          2    1    1    2  501    0 -0.84809310763E+02  0.21804016779E+02 -0.96283800475E+03  0.96681180057E+03  0.00000000000E+00 0. -1.
          1    1    1    2  502    0 -0.87672670490E+02 -0.48383056212E+02  0.20231155313E+03  0.22573741783E+03  0.00000000000E+00 0. -1.
         22    1    3    3    0    0  0.16663231555E+03 -0.10948447162E+02  0.60016178980E+03  0.62296097070E+03  0.00000000000E+00 0.  1.
         22    1    3    3    0    0  0.58496657025E+01  0.37527486595E+02  0.30249444817E+03  0.30486951637E+03  0.00000000000E+00 0.  1.
</event>
<event>
 7    1  0.6235964E-006  0.8921377E+02  0.7818608E-02  0.1395420E+00
          2   -1    0    0  502    0  0.00000000000E+00  0.00000000000E+00  0.24687902240E+02  0.24687902240E+02  0.00000000000E+00 0. -1.
          1   -1    0    0  501    0 -0.00000000000E+00 -0.00000000000E+00 -0.19626451099E+04  0.19626451099E+04  0.00000000000E+00 0. -1.
         25    2    1    2    0    0  0.96706754386E+02 -0.48462200760E+02 -0.77154651447E+03  0.78905620722E+03  0.12499957164E+03 0.  0.
          2    1    1    2  501    0 -0.37924315700E+02 -0.15930391986E+02 -0.10596036188E+04  0.10604017447E+04  0.00000000000E+00 0. -1.
          1    1    1    2  502    0 -0.58782438686E+02  0.64392592746E+02 -0.10680707433E+03  0.13787506020E+03  0.00000000000E+00 0. -1.
         22    1    3    3    0    0 -0.32031680419E+01 -0.27878347387E+01 -0.43526971644E+03  0.43529042989E+03  0.00000000000E+00 0. -1.
         22    1    3    3    0    0  0.99909922428E+02 -0.45674366021E+02 -0.33627679804E+03  0.35376577733E+03  0.00000000000E+00 0. -1.
</event>
<event>
 7    1  0.6235964E-006  0.2929400E+02  0.7818608E-02  0.1615611E+00
          2   -1    0    0  502    0  0.00000000000E+00  0.00000000000E+00  0.35566398996E+03  0.35566398996E+03  0.00000000000E+00 0. -1.
          1   -1    0    0  501    0 -0.00000000000E+00 -0.00000000000E+00 -0.27206232264E+02  0.27206232264E+02  0.00000000000E+00 0. -1.
         25    2    1    2    0    0  0.21248844533E+01 -0.41373223282E+01  0.23227302986E+03  0.26381173047E+03  0.12499694461E+03 0.  0.
          2    1    1    2  501    0 -0.21242225813E+02  0.24147523569E+02  0.19685874026E+02  0.37707674128E+02  0.00000000000E+00 0. -1.
          1    1    1    2  502    0  0.19117341360E+02 -0.20010201241E+02  0.76498853816E+02  0.81350817633E+02  0.00000000000E+00 0. -1.
         22    1    3    3    0    0  0.61122511522E+02 -0.35478064284E+00  0.15426328665E+03  0.16593145842E+03  0.00000000000E+00 0. -1.
         22    1    3    3    0    0 -0.58997627068E+02 -0.37825416854E+01  0.78009743209E+02  0.97880272051E+02  0.00000000000E+00 0. -1.
</event>
<event>
 7    1  0.6235964E-006  0.7986682E+02  0.7818608E-02  0.1338469E+00
          2   -1    0    0  502    0  0.00000000000E+00  0.00000000000E+00  0.13607583073E+04  0.13607583073E+04  0.00000000000E+00 0. -1.
          1   -1    0    0  501    0 -0.00000000000E+00 -0.00000000000E+00 -0.38245221550E+03  0.38245221550E+03  0.00000000000E+00 0. -1.
         25    2    1    2    0    0  0.12557929388E+03 -0.61164348099E+02  0.38240910809E+03  0.42587750672E+03  0.12499475287E+03 0.  0.
          2    1    1    2  501    0 -0.73601868507E+02  0.53746965624E+01 -0.35540198372E+03  0.36298304704E+03  0.00000000000E+00 0. -1.
          1    1    1    2  502    0 -0.51977425374E+02  0.55789651537E+02  0.95129896739E+03  0.95434996900E+03  0.00000000000E+00 0. -1.
         22    1    3    3    0    0  0.41738732380E+02 -0.88424679362E+02  0.17407559075E+03  0.19965810025E+03  0.00000000000E+00 0. -1.
         22    1    3    3    0    0  0.83840561501E+02  0.27260331263E+02  0.20833351734E+03  0.22621940646E+03  0.00000000000E+00 0. -1.
</event>
<event>
 7    1  0.6235964E-006  0.5951370E+02  0.7818608E-02  0.1404138E+00
          2   -1    0    0  502    0  0.00000000000E+00  0.00000000000E+00  0.76962341254E+03  0.76962341254E+03  0.00000000000E+00 0. -1.
          1   -1    0    0  501    0 -0.00000000000E+00 -0.00000000000E+00 -0.23325559858E+03  0.23325559858E+03  0.00000000000E+00 0. -1.
         25    2    1    2    0    0  0.20692341722E+02 -0.26991884767E+02 -0.98617465989E+02  0.16280893210E+03  0.12499843569E+03 0.  0.
          2    1    1    2  501    0  0.13552258967E+02  0.73242050690E+02 -0.87719750683E+02  0.11507743642E+03  0.00000000000E+00 0. -1.
          1    1    1    2  502    0 -0.34244600689E+02 -0.46250165923E+02  0.72270503063E+03  0.72499264260E+03  0.00000000000E+00 0. -1.
         22    1    3    3    0    0  0.11592890406E+01 -0.30122015895E+02 -0.12570388627E+03  0.12926773308E+03  0.00000000000E+00 0.  1.
         22    1    3    3    0    0  0.19533052682E+02  0.31301311280E+01  0.27086420283E+02  0.33541199020E+02  0.00000000000E+00 0.  1.
</event>
<event>
 7    1  0.6235964E-006  0.1020095E+03  0.7818608E-02  0.1343600E+00
          2   -1    0    0  502    0  0.00000000000E+00  0.00000000000E+00  0.16605657530E+03  0.16605657530E+03  0.00000000000E+00 0. -1.
          1   -1    0    0  501    0 -0.00000000000E+00 -0.00000000000E+00 -0.29427827100E+03  0.29427827100E+03  0.00000000000E+00 0. -1.
         25    2    1    2    0    0 -0.79771147709E+02 -0.69741234142E+02 -0.17573995972E+03  0.24027648846E+03  0.12498392583E+03 0.  0.
          2    1    1    2  501    0  0.33464209830E+02  0.99916625375E+02 -0.43155843411E+02  0.11386664211E+03  0.00000000000E+00 0. -1.
          1    1    1    2  502    0  0.46306937880E+02 -0.30175391233E+02  0.90674107430E+02  0.10619171573E+03  0.00000000000E+00 0. -1.
         22    1    3    3    0    0  0.29561776622E+02  0.11163815140E+01 -0.14404698713E+02  0.32903499659E+02  0.00000000000E+00 0. -1.
         22    1    3    3    0    0 -0.10933292433E+03 -0.70857615656E+02 -0.16133526101E+03  0.20737298880E+03  0.00000000000E+00 0. -1.
</event>
<event>
 7    1  0.6235964E-006  0.6903609E+02  0.7818608E-02  0.1440647E+00
          2   -1    0    0  502    0  0.00000000000E+00  0.00000000000E+00  0.36755223541E+04  0.36755223541E+04  0.00000000000E+00 0. -1.
          1   -1    0    0  501    0 -0.00000000000E+00 -0.00000000000E+00 -0.10631912837E+02  0.10631912837E+02  0.00000000000E+00 0. -1.
         25    2    1    2    0    0 -0.12110094729E+02 -0.42545049783E+02  0.24380972673E+04  0.24417008241E+04  0.12501157523E+03 0.  0.
          2    1    1    2  501    0  0.48497965753E+02  0.51611634740E+02  0.13889432514E+03  0.15590845737E+03  0.00000000000E+00 0. -1.
          1    1    1    2  502    0 -0.36387871024E+02 -0.90665849570E+01  0.10878988488E+04  0.10885449854E+04  0.00000000000E+00 0. -1.
         22    1    3    3    0    0 -0.61308377664E+02 -0.54324520077E+02  0.14597159418E+04  0.14620124833E+04  0.00000000000E+00 0.  1.
         22    1    3    3    0    0  0.49198282934E+02  0.11779470295E+02  0.97838132552E+03  0.97968834080E+03  0.00000000000E+00 0.  1.
</event>
<event>
 7    1  0.6235964E-006  0.5425660E+02  0.7818608E-02  0.1525619E+00
          2   -1    0    0  502    0  0.00000000000E+00  0.00000000000E+00  0.24795074675E+04  0.24795074675E+04  0.00000000000E+00 0. -1.
          1   -1    0    0  501    0 -0.00000000000E+00 -0.00000000000E+00 -0.98808815256E+01  0.98808815256E+01  0.00000000000E+00 0. -1.
         25    2    1    2    0    0 -0.70289366921E+02 -0.23640358607E+02  0.11521224966E+04  0.11612530898E+04  0.12499211884E+03 0.  0.
          2    1    1    2  501    0  0.18373027597E+02  0.18729101533E+02  0.31159374321E+02  0.40733941565E+02  0.00000000000E+00 0. -1.
          1    1    1    2  502    0  0.51916339325E+02  0.49112570741E+01  0.12863447151E+04  0.12874013177E+04  0.00000000000E+00 0. -1.
         22    1    3    3    0    0 -0.83358614600E+02  0.28837715301E+02  0.59348331432E+03  0.60000226402E+03  0.00000000000E+00 0. -1.
         22    1    3    3    0    0  0.13069247679E+02 -0.52478073909E+02  0.55863918225E+03  0.56125082576E+03  0.00000000000E+00 0. -1.
</event>
<event>
 7    1  0.6235964E-006  0.2664179E+02  0.7818608E-02  0.1661335E+00
          2   -1    0    0  502    0  0.00000000000E+00  0.00000000000E+00  0.22469064887E+04  0.22469064887E+04  0.00000000000E+00 0. -1.
          1   -1    0    0  501    0 -0.00000000000E+00 -0.00000000000E+00 -0.29110980798E+02  0.29110980798E+02  0.00000000000E+00 0. -1.
         25    2    1    2    0    0  0.16890985446E+02  0.75364614215E+01  0.65603680333E+03  0.66809786379E+03  0.12501345783E+03 0.  0.
          2    1    1    2  501    0  0.53378131180E+01 -0.22799351404E+02 -0.16996514320E+02  0.28934135072E+02  0.00000000000E+00 0. -1.
          1    1    1    2  502    0 -0.22228798564E+02  0.15262889983E+02  0.15787552189E+04  0.15789854706E+04  0.00000000000E+00 0. -1.
         22    1    3    3    0    0 -0.78455656155E+01 -0.54380206666E+02  0.38910096837E+03  0.39296096926E+03  0.00000000000E+00 0. -1.
         22    1    3    3    0    0  0.24736551061E+02  0.61916668087E+02  0.26693583497E+03  0.27513689454E+03  0.00000000000E+00 0. -1.
</event>
<event>
 7    1  0.6235964E-006  0.1960703E+03  0.7818608E-02  0.1157226E+00
          2   -1    0    0  502    0  0.00000000000E+00  0.00000000000E+00  0.58875030455E+03  0.58875030455E+03  0.00000000000E+00 0. -1.
          1   -1    0    0  501    0 -0.00000000000E+00 -0.00000000000E+00 -0.99705530959E+03  0.99705530959E+03  0.00000000000E+00 0. -1.
         25    2    1    2    0    0  0.68145271979E+02  0.34712944220E+02  0.58823777413E+02  0.15790504902E+03  0.12500000450E+03 0.  0.
          2    1    1    2  501    0 -0.18053286206E+03  0.11448924356E+03 -0.91657933011E+03  0.94117881912E+03  0.00000000000E+00 0. -1.
          1    1    1    2  502    0  0.11238759008E+03 -0.14920218778E+03  0.44945054766E+03  0.48672174600E+03  0.00000000000E+00 0. -1.
         22    1    3    3    0    0 -0.24039005882E+02  0.34691429781E+02  0.49801037685E+02  0.65280260865E+02  0.00000000000E+00 0.  1.
         22    1    3    3    0    0  0.92184277861E+02  0.21514439114E-01  0.90227397275E+01  0.92624788150E+02  0.00000000000E+00 0.  1.
</event>
<event>
 7    1  0.6235964E-006  0.4370316E+02  0.7818608E-02  0.1492864E+00
          2   -1    0    0  502    0  0.00000000000E+00  0.00000000000E+00  0.21308001611E+03  0.21308001611E+03  0.00000000000E+00 0. -1.
          1   -1    0    0  501    0 -0.00000000000E+00 -0.00000000000E+00 -0.62406942374E+03  0.62406942374E+03  0.00000000000E+00 0. -1.
         25    2    1    2    0    0  0.15014994100E+02 -0.78712556293E+01 -0.16022480914E+03  0.20392334795E+03  0.12500134264E+03 0.  0.
          2    1    1    2  501    0  0.19243938872E+02  0.35839459387E+02 -0.43848425797E+03  0.44036716558E+03  0.00000000000E+00 0. -1.
          1    1    1    2  502    0 -0.34258932972E+02 -0.27968203758E+02  0.18771965948E+03  0.19285892633E+03  0.00000000000E+00 0. -1.
         22    1    3    3    0    0  0.29844307165E+02 -0.62597497957E+02 -0.84140458141E+02  0.10903552686E+03  0.00000000000E+00 0.  1.
         22    1    3    3    0    0 -0.14829313065E+02  0.54726242328E+02 -0.76084350995E+02  0.94887821092E+02  0.00000000000E+00 0.  1.
</event>
<event>
 7    1  0.6235964E-006  0.7089607E+02  0.7818608E-02  0.1427943E+00
          2   -1    0    0  502    0  0.00000000000E+00  0.00000000000E+00  0.89568375879E+03  0.89568375879E+03  0.00000000000E+00 0. -1.
          1   -1    0    0  501    0 -0.00000000000E+00 -0.00000000000E+00 -0.27130224832E+02  0.27130224832E+02  0.00000000000E+00 0. -1.
         25    2    1    2    0    0 -0.20924804218E+02 -0.29671385043E+02  0.65820731206E+03  0.67095441513E+03  0.12499889206E+03 0.  0.
          2    1    1    2  501    0  0.54900579308E+02  0.51128979823E+02  0.59498830079E+02  0.95751537673E+02  0.00000000000E+00 0. -1.
          1    1    1    2  502    0 -0.33975775090E+02 -0.21457594780E+02  0.15084739182E+03  0.15610803082E+03  0.00000000000E+00 0. -1.
         22    1    3    3    0    0 -0.16442941760E+02 -0.13130887006E+02  0.65257710203E+03  0.65291627689E+03  0.00000000000E+00 0. -1.
         22    1    3    3    0    0 -0.44818624583E+01 -0.16540498037E+02  0.56302100267E+01  0.18038138245E+02  0.00000000000E+00 0. -1.
</event>
<event>
 7    1  0.6235964E-006  0.6155613E+02  0.7818608E-02  0.1446878E+00
          2   -1    0    0  502    0  0.00000000000E+00  0.00000000000E+00  0.61618475670E+02  0.61618475670E+02  0.00000000000E+00 0. -1.
          1   -1    0    0  501    0 -0.00000000000E+00 -0.00000000000E+00 -0.35612004293E+04  0.35612004293E+04  0.00000000000E+00 0. -1.
         25    2    1    2    0    0 -0.15619548344E+02 -0.22263817788E+02 -0.97367205330E+03  0.98204001324E+03  0.12500268940E+03 0.  0.
          2    1    1    2  501    0  0.52191027426E+02  0.38842624416E+02 -0.25758649867E+04  0.25766864541E+04  0.00000000000E+00 0. -1.
          1    1    1    2  502    0 -0.36571479082E+02 -0.16578806628E+02  0.49955086374E+02  0.64092437667E+02  0.00000000000E+00 0. -1.
         22    1    3    3    0    0 -0.67054718431E+02 -0.26429616952E+02 -0.68602378640E+03  0.68979960527E+03  0.00000000000E+00 0. -1.
         22    1    3    3    0    0  0.51435170087E+02  0.41657991636E+01 -0.28764826690E+03  0.29224040798E+03  0.00000000000E+00 0. -1.
</event>
<event>
 7    1  0.6235964E-006  0.9714356E+02  0.7818608E-02  0.1476459E+00
          2   -1    0    0  502    0  0.00000000000E+00  0.00000000000E+00  0.82322572390E+03  0.82322572390E+03  0.00000000000E+00 0. -1.
          1   -1    0    0  501    0 -0.00000000000E+00 -0.00000000000E+00 -0.42825600282E+02  0.42825600282E+02  0.00000000000E+00 0. -1.
         25    2    1    2    0    0  0.99483992120E+02 -0.56740953361E+02  0.26882374359E+03  0.31781815319E+03  0.12500229160E+03 0.  0.
          2    1    1    2  501    0 -0.18826779443E+02  0.81972874857E+01 -0.66049818410E+01  0.21570093450E+02  0.00000000000E+00 0. -1.
          1    1    1    2  502    0 -0.80657212677E+02  0.48543665875E+02  0.51818136187E+03  0.52666307754E+03  0.00000000000E+00 0. -1.
         22    1    3    3    0    0  0.35012742105E+02 -0.31945171977E+02  0.23712787868E+03  0.24181814855E+03  0.00000000000E+00 0. -1.
         22    1    3    3    0    0  0.64471250015E+02 -0.24795781383E+02  0.31695864909E+02  0.76000004640E+02  0.00000000000E+00 0. -1.
</event>
<event>
 7    1  0.6235964E-006  0.3029753E+03  0.7818608E-02  0.1139784E+00
          2   -1    0    0  502    0  0.00000000000E+00  0.00000000000E+00  0.20086084018E+04  0.20086084018E+04  0.00000000000E+00 0. -1.
          1   -1    0    0  501    0 -0.00000000000E+00 -0.00000000000E+00 -0.12326073220E+04  0.12326073220E+04  0.00000000000E+00 0. -1.
         25    2    1    2    0    0  0.24435782142E+03 -0.31727546431E+03 -0.31909192951E+03  0.52708959793E+03  0.12501727731E+03 0.  0.
          2    1    1    2  501    0 -0.14491316748E+03  0.33411328597E+02 -0.79066618810E+03  0.80453039967E+03  0.00000000000E+00 0. -1.
          1    1    1    2  502    0 -0.99444653938E+02  0.28386413571E+03  0.18857591975E+04  0.19095957262E+04  0.00000000000E+00 0. -1.
         22    1    3    3    0    0  0.21684948341E+03 -0.27937631100E+03 -0.32446744921E+03  0.47995202593E+03  0.00000000000E+00 0. -1.
         22    1    3    3    0    0  0.27508338014E+02 -0.37899153306E+02  0.53755196987E+01  0.47137571995E+02  0.00000000000E+00 0. -1.
</event>
<event>
 7    1  0.6235964E-006  0.7414850E+02  0.7818608E-02  0.1507220E+00
          2   -1    0    0  502    0  0.00000000000E+00  0.00000000000E+00  0.23724489597E+04  0.23724489597E+04  0.00000000000E+00 0. -1.
          1   -1    0    0  501    0 -0.00000000000E+00 -0.00000000000E+00 -0.33161148050E+03  0.33161148050E+03  0.00000000000E+00 0. -1.
         25    2    1    2    0    0  0.24478264558E+02 -0.65190016113E+02  0.61048334058E+03  0.62702892464E+03  0.12500575817E+03 0.  0.
          2    1    1    2  501    0  0.20959857785E+02  0.57122313528E+01 -0.32217408479E+03  0.32290569233E+03  0.00000000000E+00 0. -1.
          1    1    1    2  502    0 -0.45438122342E+02  0.59477784760E+02  0.17525282235E+04  0.17541258233E+04  0.00000000000E+00 0. -1.
         22    1    3    3    0    0  0.41236262342E+02  0.34834232397E+01  0.65483233476E+02  0.77463652354E+02  0.00000000000E+00 0. -1.
         22    1    3    3    0    0 -0.16757997785E+02 -0.68673439352E+02  0.54500010710E+03  0.54956527229E+03  0.00000000000E+00 0. -1.
</event>
<event>
 7    1  0.6235964E-006  0.5802901E+02  0.7818608E-02  0.1430621E+00
          2   -1    0    0  502    0  0.00000000000E+00  0.00000000000E+00  0.26360373274E+03  0.26360373274E+03  0.00000000000E+00 0. -1.
          1   -1    0    0  501    0 -0.00000000000E+00 -0.00000000000E+00 -0.71313018348E+03  0.71313018348E+03  0.00000000000E+00 0. -1.
         25    2    1    2    0    0  0.59944581333E+02  0.37475582340E+02 -0.22709067219E+02  0.14539309904E+03  0.12500271761E+03 0.  0.
          2    1    1    2  501    0 -0.57183706122E+02  0.10551926540E+02 -0.62484946139E+03  0.62754933575E+03  0.00000000000E+00 0. -1.
          1    1    1    2  502    0 -0.27608752111E+01 -0.48027508879E+02  0.19803207786E+03  0.20379148143E+03  0.00000000000E+00 0. -1.
         22    1    3    3    0    0  0.55760532205E+02 -0.91603752909E+01 -0.62275262016E+02  0.84091365112E+02  0.00000000000E+00 0.  1.
         22    1    3    3    0    0  0.41840491276E+01  0.46635957631E+02  0.39566194797E+02  0.61301733923E+02  0.00000000000E+00 0.  1.
</event>
<event>
 7    1  0.6235964E-006  0.6511348E+02  0.7818608E-02  0.1391776E+00
          2   -1    0    0  502    0  0.00000000000E+00  0.00000000000E+00  0.95328475892E+03  0.95328475892E+03  0.00000000000E+00 0. -1.
          1   -1    0    0  501    0 -0.00000000000E+00 -0.00000000000E+00 -0.23970753633E+03  0.23970753633E+03  0.00000000000E+00 0. -1.
         25    2    1    2    0    0  0.51851891386E+02 -0.58526249619E+02  0.15622803588E+03  0.21481216701E+03  0.12499250924E+03 0.  0.
          2    1    1    2  501    0  0.57933328824E+01  0.65152382394E+02 -0.20420172567E+03  0.21442187482E+03  0.00000000000E+00 0. -1.
          1    1    1    2  502    0 -0.57645224268E+02 -0.66261327744E+01  0.76155091237E+03  0.76375825341E+03  0.00000000000E+00 0. -1.
         22    1    3    3    0    0 -0.91929151537E+01 -0.60445139619E+01  0.12953109363E+03  0.12999750019E+03  0.00000000000E+00 0. -1.
         22    1    3    3    0    0  0.61044806540E+02 -0.52481735657E+02  0.26696942254E+02  0.84814666826E+02  0.00000000000E+00 0. -1.
</event>
<event>
 7    1  0.6235964E-006  0.1506152E+03  0.7818608E-02  0.1295108E+00
          2   -1    0    0  502    0  0.00000000000E+00  0.00000000000E+00  0.31303716477E+04  0.31303716477E+04  0.00000000000E+00 0. -1.
          1   -1    0    0  501    0 -0.00000000000E+00 -0.00000000000E+00 -0.41717919508E+03  0.41717919508E+03  0.00000000000E+00 0. -1.
         25    2    1    2    0    0 -0.81397185986E+02 -0.14214365923E+03  0.80688777128E+02  0.22128315646E+03  0.12500093933E+03 0.  0.
          2    1    1    2  501    0  0.57401974765E+02 -0.64662659020E+01 -0.34256088751E+03  0.34739712283E+03  0.00000000000E+00 0. -1.
          1    1    1    2  502    0  0.23995211221E+02  0.14860992513E+03  0.29750645630E+04  0.29788705635E+04  0.00000000000E+00 0. -1.
         22    1    3    3    0    0 -0.56471872592E+02 -0.20245793266E+02  0.75933509281E+02  0.96772219003E+02  0.00000000000E+00 0. -1.
         22    1    3    3    0    0 -0.24925313394E+02 -0.12189786597E+03  0.47552678470E+01  0.12451093746E+03  0.00000000000E+00 0. -1.
</event>
<event>
 7    1  0.6235964E-006  0.9330348E+02  0.7818608E-02  0.1337033E+00
          2   -1    0    0  502    0  0.00000000000E+00  0.00000000000E+00  0.23962084769E+03  0.23962084769E+03  0.00000000000E+00 0. -1.
          1   -1    0    0  501    0 -0.00000000000E+00 -0.00000000000E+00 -0.29793215990E+04  0.29793215990E+04  0.00000000000E+00 0. -1.
         25    2    1    2    0    0 -0.12879623607E+02 -0.13372852448E+03 -0.12616067931E+04  0.12748831261E+04  0.12500432782E+03 0.  0.
          2    1    1    2  501    0  0.42316165842E+02  0.76941309105E+02 -0.17055356349E+04  0.17077946085E+04  0.00000000000E+00 0. -1.
          1    1    1    2  502    0 -0.29436542235E+02  0.56787215370E+02  0.22744167670E+03  0.23626471203E+03  0.00000000000E+00 0. -1.
         22    1    3    3    0    0 -0.91649212208E+01 -0.14516921241E+03 -0.12490626461E+04  0.12575037136E+04  0.00000000000E+00 0.  1.
         22    1    3    3    0    0 -0.37147023863E+01  0.11440687936E+02 -0.12544147022E+02  0.17379412498E+02  0.00000000000E+00 0.  1.
</event>
<event>
 7    1  0.6235964E-006  0.2652409E+03  0.7818608E-02  0.1226690E+00
          2   -1    0    0  502    0  0.00000000000E+00  0.00000000000E+00  0.27462360912E+04  0.27462360912E+04  0.00000000000E+00 0. -1.
          1   -1    0    0  501    0 -0.00000000000E+00 -0.00000000000E+00 -0.61700114617E+03  0.61700114617E+03  0.00000000000E+00 0. -1.
         25    2    1    2    0    0 -0.11949455290E+03  0.18379515146E+03  0.42578274838E+03  0.49494957288E+03  0.12499809997E+03 0.  0.
          2    1    1    2  501    0  0.18231077436E+03 -0.19716920751E+03 -0.55098197877E+03  0.61293886789E+03  0.00000000000E+00 0. -1.
          1    1    1    2  502    0 -0.62816221458E+02  0.13374056045E+02  0.22544341754E+04  0.22553487966E+04  0.00000000000E+00 0. -1.
         22    1    3    3    0    0 -0.77697289456E+01 -0.54766555804E+01  0.10885384634E+03  0.10926812118E+03  0.00000000000E+00 0. -1.
         22    1    3    3    0    0 -0.11172482396E+03  0.18927180704E+03  0.31692890205E+03  0.38568145170E+03  0.00000000000E+00 0. -1.
</event>
<event>
 7    1  0.6235964E-006  0.7489434E+02  0.7818608E-02  0.1489007E+00
          2   -1    0    0  502    0  0.00000000000E+00  0.00000000000E+00  0.19111082675E+04  0.19111082675E+04  0.00000000000E+00 0. -1.
          1   -1    0    0  501    0 -0.00000000000E+00 -0.00000000000E+00 -0.20791207107E+04  0.20791207107E+04  0.00000000000E+00 0. -1.
         25    2    1    2    0    0 -0.76501804835E+02 -0.59115196254E+02  0.30827308512E+03  0.34641568992E+03  0.12499761054E+03 0.  0.
          2    1    1    2  501    0  0.64577570228E+02  0.37846642439E+02 -0.20592755734E+04  0.20606354646E+04  0.00000000000E+00 0. -1.
          1    1    1    2  502    0  0.11924234606E+02  0.21268553815E+02  0.15829900450E+04  0.15831778237E+04  0.00000000000E+00 0. -1.
         22    1    3    3    0    0  0.13850238245E+02 -0.57068582962E+02  0.68790203075E+02  0.90447467072E+02  0.00000000000E+00 0. -1.
         22    1    3    3    0    0 -0.90352043080E+02 -0.20466132921E+01  0.23948288205E+03  0.25596822285E+03  0.00000000000E+00 0. -1.
</event>
<event>
 7    1  0.6235964E-006  0.4919375E+02  0.7818608E-02  0.1464485E+00
          2   -1    0    0  502    0  0.00000000000E+00  0.00000000000E+00  0.84106972912E+03  0.84106972912E+03  0.00000000000E+00 0. -1.
          1   -1    0    0  501    0 -0.00000000000E+00 -0.00000000000E+00 -0.10735715055E+04  0.10735715055E+04  0.00000000000E+00 0. -1.
         25    2    1    2    0    0  0.82729286133E+02  0.23869845448E+02 -0.21311216532E+02  0.15326838998E+03  0.12499250822E+03 0.  0.
          2    1    1    2  501    0 -0.38926145772E+02 -0.29608163162E+02 -0.98504504398E+03  0.98625839760E+03  0.00000000000E+00 0. -1.
          1    1    1    2  502    0 -0.43803140361E+02  0.57383177135E+01  0.77385448414E+03  0.77511444705E+03  0.00000000000E+00 0. -1.
         22    1    3    3    0    0  0.24571910998E+02 -0.28394848588E+02  0.39285364680E+02  0.54345065227E+02  0.00000000000E+00 0.  1.
         22    1    3    3    0    0  0.58157375135E+02  0.52264694036E+02 -0.60596581212E+02  0.98923324752E+02  0.00000000000E+00 0.  1.
</event>
<event>
 7    1  0.6235964E-006  0.8072116E+02  0.7818608E-02  0.1334830E+00
          2   -1    0    0  502    0  0.00000000000E+00  0.00000000000E+00  0.14688186172E+03  0.14688186172E+03  0.00000000000E+00 0. -1.
          1   -1    0    0  501    0 -0.00000000000E+00 -0.00000000000E+00 -0.15236957533E+04  0.15236957533E+04  0.00000000000E+00 0. -1.
         25    2    1    2    0    0  0.74223039837E+02 -0.98307578652E+02 -0.69117881146E+03  0.71311000142E+03  0.12499714017E+03 0.  0.
          2    1    1    2  501    0 -0.73231155218E+02  0.22946950048E+02 -0.80914635376E+03  0.81277745196E+03  0.00000000000E+00 0. -1.
          1    1    1    2  502    0 -0.99188461885E+00  0.75360628604E+02  0.12351127361E+03  0.14469016168E+03  0.00000000000E+00 0. -1.
         22    1    3    3    0    0  0.38677014892E+02 -0.10977207883E+03 -0.32840829363E+03  0.34842191104E+03  0.00000000000E+00 0. -1.
         22    1    3    3    0    0  0.35546024945E+02  0.11464500178E+02 -0.36277051784E+03  0.36468809038E+03  0.00000000000E+00 0. -1.
</event>
<event>
 7    1  0.6235964E-006  0.1291240E+03  0.7818608E-02  0.1360431E+00
          2   -1    0    0  502    0  0.00000000000E+00  0.00000000000E+00  0.82121051238E+03  0.82121051238E+03  0.00000000000E+00 0. -1.
          1   -1    0    0  501    0 -0.00000000000E+00 -0.00000000000E+00 -0.10099617956E+04  0.10099617956E+04  0.00000000000E+00 0. -1.
         25    2    1    2    0    0 -0.10637289051E+03 -0.10931452317E+03 -0.40132426215E+03  0.44715862537E+03  0.12499926414E+03 0.  0.
          2    1    1    2  501    0  0.37840188581E+02  0.16892811126E+00 -0.57989811310E+03  0.58113142230E+03  0.00000000000E+00 0. -1.
          1    1    1    2  502    0  0.68532701929E+02  0.10914559505E+03  0.79247109205E+03  0.80288226029E+03  0.00000000000E+00 0. -1.
         22    1    3    3    0    0 -0.90145688545E+02 -0.61376912928E+02 -0.12348690416E+03  0.16474946465E+03  0.00000000000E+00 0. -1.
         22    1    3    3    0    0 -0.16227201965E+02 -0.47937610238E+02 -0.27783735799E+03  0.28240916072E+03  0.00000000000E+00 0. -1.
</event>
<event>
 7    1  0.6235964E-006  0.1099378E+03  0.7818608E-02  0.1416088E+00
          2   -1    0    0  502    0  0.00000000000E+00  0.00000000000E+00  0.12297242235E+02  0.12297242235E+02  0.00000000000E+00 0. -1.
          1   -1    0    0  501    0 -0.00000000000E+00 -0.00000000000E+00 -0.22702778327E+04  0.22702778327E+04  0.00000000000E+00 0. -1.
         25    2    1    2    0    0 -0.57694699623E+02 -0.83570425527E+02 -0.11016700908E+04  0.11133799145E+04  0.12500060260E+03 0.  0.
          2    1    1    2  501    0  0.42045711401E+02  0.10724608354E+03 -0.11011795204E+04  0.11071882859E+04  0.00000000000E+00 0. -1.
          1    1    1    2  502    0  0.15648988223E+02 -0.23675658011E+02 -0.55130979170E+02  0.62006874449E+02  0.00000000000E+00 0. -1.
         22    1    3    3    0    0 -0.57135313805E+02 -0.19236044239E+02 -0.89262362078E+03  0.89465713984E+03  0.00000000000E+00 0. -1.
         22    1    3    3    0    0 -0.55938581866E+00 -0.64334381288E+02 -0.20904647006E+03  0.21872277470E+03  0.00000000000E+00 0. -1.
</event>
<event>
 7    1  0.6235964E-006  0.8215718E+02  0.7818608E-02  0.1339376E+00
          2   -1    0    0  502    0  0.00000000000E+00  0.00000000000E+00  0.67221236896E+03  0.67221236896E+03  0.00000000000E+00 0. -1.
          1   -1    0    0  501    0 -0.00000000000E+00 -0.00000000000E+00 -0.11797115796E+03  0.11797115796E+03  0.00000000000E+00 0. -1.
         25    2    1    2    0    0  0.12689098576E+02  0.12709784996E+03  0.28414740180E+03  0.33567825188E+03  0.12500106458E+03 0.  0.
          2    1    1    2  501    0  0.33631446406E+02 -0.73054431213E+02 -0.70257936279E+02  0.10679045705E+03  0.00000000000E+00 0. -1.
          1    1    1    2  502    0 -0.46320544982E+02 -0.54043418746E+02  0.34035174547E+03  0.34771481798E+03  0.00000000000E+00 0. -1.
         22    1    3    3    0    0  0.32862126623E+02  0.13540263386E+03  0.17163771718E+03  0.22107306164E+03  0.00000000000E+00 0.  1.
         22    1    3    3    0    0 -0.20173028047E+02 -0.83047839023E+01  0.11250968462E+03  0.11460519024E+03  0.00000000000E+00 0.  1.
</event>
<event>
 7    1  0.6235964E-006  0.1914442E+03  0.7818608E-02  0.1235052E+00
          2   -1    0    0  502    0  0.00000000000E+00  0.00000000000E+00  0.22919188146E+03  0.22919188146E+03  0.00000000000E+00 0. -1.
          1   -1    0    0  501    0 -0.00000000000E+00 -0.00000000000E+00 -0.24771675325E+04  0.24771675325E+04  0.00000000000E+00 0. -1.
         25    2    1    2    0    0  0.13526828386E+03 -0.51499562930E+02 -0.72145134450E+03  0.74637057082E+03  0.12500909132E+03 0.  0.
          2    1    1    2  501    0 -0.18468134958E+03  0.11647593987E+03 -0.17284504348E+04  0.17421867727E+04  0.00000000000E+00 0. -1.
          1    1    1    2  502    0  0.49413065722E+02 -0.64976376945E+02  0.20192612824E+03  0.21780207045E+03  0.00000000000E+00 0. -1.
         22    1    3    3    0    0  0.13481295989E+03 -0.25068514178E+01 -0.42436393600E+03  0.44527021980E+03  0.00000000000E+00 0.  1.
         22    1    3    3    0    0  0.45532396589E+00 -0.48992711512E+02 -0.29708740849E+03  0.30110035102E+03  0.00000000000E+00 0.  1.
</event>
<event>
 7    1  0.7377580E-006  0.4785357E+02  0.7818608E-02  0.1477202E+00
          2   -1    0    0  502    0  0.00000000000E+00  0.00000000000E+00  0.89350550460E+03  0.89350550460E+03  0.00000000000E+00 0. -1.
          1   -1    0    0  501    0 -0.00000000000E+00 -0.00000000000E+00 -0.84467570476E+03  0.84467570476E+03  0.00000000000E+00 0. -1.
         25    2    1    2    0    0 -0.18999403465E+02  0.20338943547E+02 -0.23638394924E+03  0.26884212783E+03  0.12499627307E+03 0.  0.
          2    1    1    2  501    0 -0.27792580816E+02 -0.30772378416E+02 -0.59068034492E+03  0.59213396854E+03  0.00000000000E+00 0. -1.
          1    1    1    2  502    0  0.46791984281E+02  0.10433434870E+02  0.87589409400E+03  0.87720511300E+03  0.00000000000E+00 0. -1.
         22    1    3    3    0    0 -0.36666303612E+02 -0.38821619476E+02 -0.52563637357E+02  0.74929780005E+02  0.00000000000E+00 0. -1.
         22    1    3    3    0    0  0.17666900147E+02  0.59160563023E+02 -0.18382031188E+03  0.19391234782E+03  0.00000000000E+00 0. -1.
</event>
<event>
 7    1  0.6235964E-006  0.1121476E+03  0.7818608E-02  0.1310810E+00
          2   -1    0    0  502    0  0.00000000000E+00  0.00000000000E+00  0.66744598525E+02  0.66744598525E+02  0.00000000000E+00 0. -1.
          1   -1    0    0  501    0 -0.00000000000E+00 -0.00000000000E+00 -0.29389621697E+04  0.29389621697E+04  0.00000000000E+00 0. -1.
         25    2    1    2    0    0  0.15177728829E+03  0.26657792645E+02 -0.73878922149E+03  0.76497166283E+03  0.12500059193E+03 0.  0.
          2    1    1    2  501    0 -0.59024339668E+02  0.32061102189E+02 -0.21298404379E+04  0.21308993590E+04  0.00000000000E+00 0. -1.
          1    1    1    2  502    0 -0.92752948619E+02 -0.58718894833E+02 -0.35879117572E+01  0.10983574645E+03  0.00000000000E+00 0. -1.
         22    1    3    3    0    0  0.92927232981E+02 -0.42622346339E+02 -0.30237054133E+03  0.31918659011E+03  0.00000000000E+00 0. -1.
         22    1    3    3    0    0  0.58850055306E+02  0.69280138983E+02 -0.43641868016E+03  0.44578507272E+03  0.00000000000E+00 0. -1.
</event>
<event>
 7    1  0.6235964E-006  0.7943990E+02  0.7818608E-02  0.1494636E+00
          2   -1    0    0  502    0  0.00000000000E+00  0.00000000000E+00  0.14636135476E+03  0.14636135476E+03  0.00000000000E+00 0. -1.
          1   -1    0    0  501    0 -0.00000000000E+00 -0.00000000000E+00 -0.14548198551E+04  0.14548198551E+04  0.00000000000E+00 0. -1.
         25    2    1    2    0    0 -0.60529491193E+02 -0.54142360619E+02 -0.48521818207E+03  0.50759901250E+03  0.12499943508E+03 0.  0.
          2    1    1    2  501    0  0.17923597194E+02 -0.12939527521E+02 -0.94659094605E+03  0.94684904069E+03  0.00000000000E+00 0. -1.
          1    1    1    2  502    0  0.42605893999E+02  0.67081888140E+02  0.12335062772E+03  0.14673315671E+03  0.00000000000E+00 0. -1.
         22    1    3    3    0    0 -0.33068634518E+02  0.94256684585E+01 -0.38053750195E+03  0.38208790638E+03  0.00000000000E+00 0. -1.
         22    1    3    3    0    0 -0.27460856675E+02 -0.63568029077E+02 -0.10468068012E+03  0.12551110612E+03  0.00000000000E+00 0. -1.
</event>
<event>
 7    1  0.6235964E-006  0.8773032E+02  0.7818608E-02  0.1391686E+00
          2   -1    0    0  502    0  0.00000000000E+00  0.00000000000E+00  0.35625630051E+04  0.35625630051E+04  0.00000000000E+00 0. -1.
          1   -1    0    0  501    0 -0.00000000000E+00 -0.00000000000E+00 -0.78156504211E+02  0.78156504211E+02  0.00000000000E+00 0. -1.
         25    2    1    2    0    0 -0.25215854692E+02 -0.11725126365E+03  0.57309260577E+03  0.59870090313E+03  0.12499575378E+03 0.  0.
          2    1    1    2  501    0  0.39727454092E+02  0.76670804398E+02 -0.36601014932E+02  0.93788683484E+02  0.00000000000E+00 0. -1.
          1    1    1    2  502    0 -0.14511599400E+02  0.40580459253E+02  0.29479149101E+04  0.29482299227E+04  0.00000000000E+00 0. -1.
         22    1    3    3    0    0  0.43342244114E+02 -0.80771868744E+01  0.15965548356E+03  0.16563110971E+03  0.00000000000E+00 0. -1.
         22    1    3    3    0    0 -0.68558098806E+02 -0.10917407678E+03  0.41343712221E+03  0.43306979342E+03  0.00000000000E+00 0. -1.
</event>
<event>
 7    1  0.6235964E-006  0.4008013E+02  0.7818608E-02  0.1524095E+00
          2   -1    0    0  502    0  0.00000000000E+00  0.00000000000E+00  0.61678572150E+02  0.61678572150E+02  0.00000000000E+00 0. -1.
          1   -1    0    0  501    0 -0.00000000000E+00 -0.00000000000E+00 -0.96936483917E+03  0.96936483917E+03  0.00000000000E+00 0. -1.
         25    2    1    2    0    0  0.29855525187E+02  0.16004122034E+02 -0.70289289932E+03  0.71473123814E+03  0.12503931602E+03 0.  0.
          2    1    1    2  501    0  0.15306464543E+01 -0.40930516981E+02 -0.25147283706E+03  0.25478665169E+03  0.00000000000E+00 0. -1.
          1    1    1    2  502    0 -0.31386171642E+02  0.24926394947E+02  0.46679469360E+02  0.61525521494E+02  0.00000000000E+00 0. -1.
         22    1    3    3    0    0 -0.46992703132E+02  0.16833548700E+02 -0.35192894449E+03  0.35545135318E+03  0.00000000000E+00 0. -1.
         22    1    3    3    0    0  0.76848228320E+02 -0.82942666657E+00 -0.35096395483E+03  0.35927988496E+03  0.00000000000E+00 0. -1.
</event>
<event>
 7    1  0.6235964E-006  0.1001899E+03  0.7818608E-02  0.1331296E+00
          2   -1    0    0  502    0  0.00000000000E+00  0.00000000000E+00  0.18939582309E+04  0.18939582309E+04  0.00000000000E+00 0. -1.
          1   -1    0    0  501    0 -0.00000000000E+00 -0.00000000000E+00 -0.12138833890E+04  0.12138833890E+04  0.00000000000E+00 0. -1.
         25    2    1    2    0    0 -0.13603816439E+03  0.61705937311E+02 -0.21242110474E+02  0.19593778581E+03  0.12500553501E+03 0.  0.
          2    1    1    2  501    0  0.98426414952E+02 -0.11627436954E+02 -0.11025270826E+04  0.11069728652E+04  0.00000000000E+00 0. -1.
          1    1    1    2  502    0  0.37611749438E+02 -0.50078500357E+02  0.18038440349E+04  0.18049309688E+04  0.00000000000E+00 0. -1.
         22    1    3    3    0    0  0.22895297106E+02  0.31942183325E+01  0.71824205174E+01  0.24207123431E+02  0.00000000000E+00 0. -1.
         22    1    3    3    0    0 -0.15893346150E+03  0.58511718978E+02 -0.28424530991E+02  0.17173066238E+03  0.00000000000E+00 0. -1.
</event>
<event>
 7    1  0.6235964E-006  0.1838187E+03  0.7818608E-02  0.1214372E+00
          2   -1    0    0  502    0  0.00000000000E+00  0.00000000000E+00  0.18055888016E+04  0.18055888016E+04  0.00000000000E+00 0. -1.
          1   -1    0    0  501    0 -0.00000000000E+00 -0.00000000000E+00 -0.23209895645E+04  0.23209895645E+04  0.00000000000E+00 0. -1.
         25    2    1    2    0    0 -0.97139095190E+02 -0.31349623221E+02  0.24139634839E+03  0.29037252954E+03  0.12500082481E+03 0.  0.
          2    1    1    2  501    0 -0.10354480202E+03 -0.19974097007E+02 -0.22883147517E+04  0.22907433058E+04  0.00000000000E+00 0. -1.
          1    1    1    2  502    0  0.20068389721E+03  0.51323720228E+02  0.15315176404E+04  0.15454625307E+04  0.00000000000E+00 0. -1.
         22    1    3    3    0    0 -0.12305307650E+03 -0.44498476619E+01  0.19744363408E+03  0.23269260714E+03  0.00000000000E+00 0.  1.
         22    1    3    3    0    0  0.25913981309E+02 -0.26899775559E+02  0.43952714306E+02  0.57679922393E+02  0.00000000000E+00 0.  1.
</event>
<event>
 7    1  0.6235964E-006  0.1016356E+03  0.7818608E-02  0.1319335E+00
          2   -1    0    0  502    0  0.00000000000E+00  0.00000000000E+00  0.60954936864E+03  0.60954936864E+03  0.00000000000E+00 0. -1.
          1   -1    0    0  501    0 -0.00000000000E+00 -0.00000000000E+00 -0.63035560013E+03  0.63035560013E+03  0.00000000000E+00 0. -1.
         25    2    1    2    0    0 -0.10074879463E+03 -0.81439506161E+02  0.33045456767E+02  0.18302793568E+03  0.12499804096E+03 0.  0.
          2    1    1    2  501    0  0.67242932395E+02 -0.13787994774E+02 -0.54812182329E+03  0.55240316249E+03  0.00000000000E+00 0. -1.
          1    1    1    2  502    0  0.33505862231E+02  0.95227500935E+02  0.49427013504E+03  0.50447387061E+03  0.00000000000E+00 0. -1.
         22    1    3    3    0    0 -0.42406317575E+02  0.25832204353E+02 -0.14899293306E+02  0.51841947234E+02  0.00000000000E+00 0. -1.
         22    1    3    3    0    0 -0.58342477051E+02 -0.10727171051E+03  0.47944750072E+02  0.13118598845E+03  0.00000000000E+00 0. -1.
</event>
<event>
 7    1  0.6235964E-006  0.3770454E+02  0.7818608E-02  0.1540286E+00
          2   -1    0    0  502    0  0.00000000000E+00  0.00000000000E+00  0.70162573141E+03  0.70162573141E+03  0.00000000000E+00 0. -1.
          1   -1    0    0  501    0 -0.00000000000E+00 -0.00000000000E+00 -0.83870803767E+03  0.83870803767E+03  0.00000000000E+00 0. -1.
         25    2    1    2    0    0  0.26099910764E+01 -0.45813139070E+02 -0.16525055199E+02  0.13418044892E+03  0.12500263861E+03 0.  0.
          2    1    1    2  501    0  0.26491020075E+02  0.21764904720E+02 -0.76241540999E+03  0.76318591615E+03  0.00000000000E+00 0. -1.
          1    1    1    2  502    0 -0.29101011151E+02  0.24048234350E+02  0.64185815893E+03  0.64296740400E+03  0.00000000000E+00 0. -1.
         22    1    3    3    0    0 -0.37512939796E+02  0.29565279141E+02 -0.64250868033E+01  0.48193444816E+02  0.00000000000E+00 0.  1.
         22    1    3    3    0    0  0.40122930872E+02 -0.75378418211E+02 -0.10099968396E+02  0.85987004107E+02  0.00000000000E+00 0.  1.
</event>
<event>
 7    1  0.6235964E-006  0.8767505E+02  0.7818608E-02  0.1368479E+00
          2   -1    0    0  502    0  0.00000000000E+00  0.00000000000E+00  0.97113360122E+03  0.97113360122E+03  0.00000000000E+00 0. -1.
          1   -1    0    0  501    0 -0.00000000000E+00 -0.00000000000E+00 -0.42357958061E+03  0.42357958061E+03  0.00000000000E+00 0. -1.
         25    2    1    2    0    0 -0.31061892435E+02  0.18932977558E+02  0.32786506750E+03  0.35276501089E+03  0.12499740645E+03 0.  0.
          2    1    1    2  501    0  0.77879982886E+02 -0.41811321041E+02 -0.40528150824E+03  0.41480908768E+03  0.00000000000E+00 0. -1.
          1    1    1    2  502    0 -0.46818090451E+02  0.22878343483E+02  0.62497046135E+03  0.62713908326E+03  0.00000000000E+00 0. -1.
         22    1    3    3    0    0 -0.20326232917E+02 -0.14989337993E+02  0.31330390537E+03  0.31432017612E+03  0.00000000000E+00 0.  1.
         22    1    3    3    0    0 -0.10735659518E+02  0.33922315551E+02  0.14561162131E+02  0.38444834767E+02  0.00000000000E+00 0.  1.
</event>
<event>
 7    1  0.6235964E-006  0.5438648E+02  0.7818608E-02  0.1444816E+00
          2   -1    0    0  502    0  0.00000000000E+00  0.00000000000E+00  0.25275923782E+03  0.25275923782E+03  0.00000000000E+00 0. -1.
          1   -1    0    0  501    0 -0.00000000000E+00 -0.00000000000E+00 -0.15770005432E+03  0.15770005432E+03  0.00000000000E+00 0. -1.
         25    2    1    2    0    0  0.79417852893E+02 -0.32326517040E+02  0.24466502905E+02  0.15354365709E+03  0.12499938322E+03 0.  0.
          2    1    1    2  501    0 -0.33910703585E+02  0.39982879591E+02 -0.82094833105E+02  0.97407022851E+02  0.00000000000E+00 0. -1.
          1    1    1    2  502    0 -0.45507149307E+02 -0.76563625519E+01  0.15268751370E+03  0.15950861220E+03  0.00000000000E+00 0. -1.
         22    1    3    3    0    0  0.20038107008E+01  0.39137658026E+02  0.27940701721E+02  0.48129557922E+02  0.00000000000E+00 0. -1.
         22    1    3    3    0    0  0.77414042192E+02 -0.71464175066E+02 -0.34741988158E+01  0.10541409917E+03  0.00000000000E+00 0. -1.
</event>
<event>
 7    1  0.6235964E-006  0.8242153E+02  0.7818608E-02  0.1356876E+00
          2   -1    0    0  502    0  0.00000000000E+00  0.00000000000E+00  0.13665121509E+04  0.13665121509E+04  0.00000000000E+00 0. -1.
          1   -1    0    0  501    0 -0.00000000000E+00 -0.00000000000E+00 -0.70513758923E+03  0.70513758923E+03  0.00000000000E+00 0. -1.
         25    2    1    2    0    0  0.51479104410E+02 -0.10737331818E+03  0.43636670486E+03  0.46927892857E+03  0.12501073572E+03 0.  0.
          2    1    1    2  501    0 -0.66697283809E+02  0.48216149656E+02 -0.68519535062E+03  0.69012027449E+03  0.00000000000E+00 0. -1.
          1    1    1    2  502    0  0.15218179399E+02  0.59157168524E+02  0.91020320739E+03  0.91225053704E+03  0.00000000000E+00 0. -1.
         22    1    3    3    0    0  0.48160036339E+02 -0.55659943754E+02  0.78227676601E+02  0.10741037113E+03  0.00000000000E+00 0.  1.
         22    1    3    3    0    0  0.33190680707E+01 -0.51713374426E+02  0.35813902826E+03  0.36186855745E+03  0.00000000000E+00 0.  1.
</event>
<event>
 7    1  0.6235964E-006  0.1084097E+03  0.7818608E-02  0.1312087E+00
          2   -1    0    0  502    0  0.00000000000E+00  0.00000000000E+00  0.15925973176E+04  0.15925973176E+04  0.00000000000E+00 0. -1.
          1   -1    0    0  501    0 -0.00000000000E+00 -0.00000000000E+00 -0.11731831329E+03  0.11731831329E+03  0.00000000000E+00 0. -1.
         25    2    1    2    0    0  0.13350615420E+03 -0.92915491647E+02  0.57633235251E+03  0.61175244082E+03  0.12499954599E+03 0.  0.
          2    1    1    2  501    0 -0.65464607890E+02  0.83519916396E+02 -0.69779227118E+02  0.12700524343E+03  0.00000000000E+00 0. -1.
          1    1    1    2  502    0 -0.68041546313E+02  0.93955752508E+01  0.96872587887E+03  0.97115794661E+03  0.00000000000E+00 0. -1.
         22    1    3    3    0    0  0.72829562522E+02 -0.98555168977E+02  0.23509689520E+03  0.26511849547E+03  0.00000000000E+00 0. -1.
         22    1    3    3    0    0  0.60676591681E+02  0.56396773295E+01  0.34123545732E+03  0.34663394535E+03  0.00000000000E+00 0. -1.
</event>
<event>
 7    1  0.6235964E-006  0.6337737E+02  0.7818608E-02  0.1501589E+00
          2   -1    0    0  502    0  0.00000000000E+00  0.00000000000E+00  0.86398581551E+03  0.86398581551E+03  0.00000000000E+00 0. -1.
          1   -1    0    0  501    0 -0.00000000000E+00 -0.00000000000E+00 -0.92377242797E+02  0.92377242797E+02  0.00000000000E+00 0. -1.
         25    2    1    2    0    0  0.60425979563E+02  0.19525596049E+02  0.29506488955E+02  0.14327432144E+03  0.12499740152E+03 0.  0.
          2    1    1    2  501    0 -0.48361578439E+02 -0.43022129144E+02 -0.55541473159E+01  0.64966102066E+02  0.00000000000E+00 0. -1.
          1    1    1    2  502    0 -0.12064401124E+02  0.23496533095E+02  0.74765623107E+03  0.74812263480E+03  0.00000000000E+00 0. -1.
         22    1    3    3    0    0  0.30862499930E+02 -0.18927823717E+02 -0.42892277212E+02  0.56129349338E+02  0.00000000000E+00 0. -1.
         22    1    3    3    0    0  0.29563479632E+02  0.38453419766E+02  0.72398766167E+02  0.87144972100E+02  0.00000000000E+00 0. -1.
</event>
<event>
 7    1  0.6235964E-006  0.5500033E+02  0.7818608E-02  0.1538946E+00
          2   -1    0    0  502    0  0.00000000000E+00  0.00000000000E+00  0.92334743339E+02  0.92334743339E+02  0.00000000000E+00 0. -1.
          1   -1    0    0  501    0 -0.00000000000E+00 -0.00000000000E+00 -0.51741378471E+03  0.51741378471E+03  0.00000000000E+00 0. -1.
         25    2    1    2    0    0 -0.20104829113E+02 -0.25029068475E+02 -0.31235521332E+02  0.13278669520E+03  0.12500396076E+03 0.  0.
          2    1    1    2  501    0  0.34880425882E+02  0.43571809087E+02 -0.43006435400E+03  0.43367095272E+03  0.00000000000E+00 0. -1.
          1    1    1    2  502    0 -0.14775596769E+02 -0.18542740611E+02  0.36220833959E+02  0.43290880125E+02  0.00000000000E+00 0. -1.
         22    1    3    3    0    0 -0.71029642276E+02 -0.76378109467E+01 -0.33548763649E+02  0.78924430820E+02  0.00000000000E+00 0. -1.
         22    1    3    3    0    0  0.50924813163E+02 -0.17391257529E+02  0.23132423168E+01  0.53862264380E+02  0.00000000000E+00 0. -1.
</event>
<event>
 7    1  0.6235964E-006  0.2523320E+03  0.7818608E-02  0.1163139E+00
          2   -1    0    0  502    0  0.00000000000E+00  0.00000000000E+00  0.24011076505E+03  0.24011076505E+03  0.00000000000E+00 0. -1.
          1   -1    0    0  501    0 -0.00000000000E+00 -0.00000000000E+00 -0.11223002814E+04  0.11223002814E+04  0.00000000000E+00 0. -1.
         25    2    1    2    0    0 -0.16922736547E+03 -0.27012228628E+02 -0.17999620729E+03  0.27819252017E+03  0.12499952767E+03 0.  0.
          2    1    1    2  501    0 -0.12594725613E+03  0.49961216205E+02 -0.76888687910E+03  0.78073418479E+03  0.00000000000E+00 0. -1.
          1    1    1    2  502    0  0.29517462160E+03 -0.22948987578E+02  0.66693570010E+02  0.30348434153E+03  0.00000000000E+00 0. -1.
         22    1    3    3    0    0  0.18298296453E+02 -0.15914575507E+02 -0.21431427865E+02  0.32363675116E+02  0.00000000000E+00 0. -1.
         22    1    3    3    0    0 -0.18752566193E+03 -0.11097653120E+02 -0.15856477942E+03  0.24582884505E+03  0.00000000000E+00 0. -1.
</event>
<event>
 7    1  0.6235964E-006  0.6863049E+02  0.7818608E-02  0.1431460E+00
          2   -1    0    0  502    0  0.00000000000E+00  0.00000000000E+00  0.77673848873E+03  0.77673848873E+03  0.00000000000E+00 0. -1.
          1   -1    0    0  501    0 -0.00000000000E+00 -0.00000000000E+00 -0.59486031349E+03  0.59486031349E+03  0.00000000000E+00 0. -1.
         25    2    1    2    0    0  0.87211189044E+01  0.10830539125E+03  0.22160820625E+03  0.27666162373E+03  0.12500136509E+03 0.  0.
          2    1    1    2  501    0 -0.72523801871E+01 -0.67913946408E+02 -0.56449804969E+03  0.56861493934E+03  0.00000000000E+00 0. -1.
          1    1    1    2  502    0 -0.14687387172E+01 -0.40391444846E+02  0.52476801868E+03  0.52632223916E+03  0.00000000000E+00 0. -1.
         22    1    3    3    0    0  0.33035851995E+01  0.78039772641E+02  0.31727201550E+02  0.84307384654E+02  0.00000000000E+00 0. -1.
         22    1    3    3    0    0  0.54175337048E+01  0.30265618613E+02  0.18988100470E+03  0.19235423907E+03  0.00000000000E+00 0. -1.
</event>
<event>
 7    1  0.6235964E-006  0.6186224E+02  0.7818608E-02  0.1399269E+00
          2   -1    0    0  502    0  0.00000000000E+00  0.00000000000E+00  0.18835687179E+02  0.18835687179E+02  0.00000000000E+00 0. -1.
          1   -1    0    0  501    0 -0.00000000000E+00 -0.00000000000E+00 -0.19082483144E+04  0.19082483144E+04  0.00000000000E+00 0. -1.
         25    2    1    2    0    0 -0.16411677546E+02 -0.30367359080E+02 -0.35237462517E+03  0.37547858145E+03  0.12499907601E+03 0.  0.
          2    1    1    2  501    0  0.18380917995E+02 -0.54518867084E+02 -0.12719590361E+04  0.12732595787E+04  0.00000000000E+00 0. -1.
          1    1    1    2  502    0 -0.19692404486E+01  0.84886226164E+02 -0.26507896586E+03  0.27834584143E+03  0.00000000000E+00 0. -1.
         22    1    3    3    0    0 -0.20958218752E+02 -0.31448084912E+02 -0.19417106674E+02  0.42488269081E+02  0.00000000000E+00 0.  1.
         22    1    3    3    0    0  0.45465412059E+01  0.10807258317E+01 -0.33295751850E+03  0.33299031237E+03  0.00000000000E+00 0.  1.
</event>
<event>
 7    1  0.6235964E-006  0.4029757E+02  0.7818608E-02  0.1520758E+00
          2   -1    0    0  502    0  0.00000000000E+00  0.00000000000E+00  0.27157134946E+03  0.27157134946E+03  0.00000000000E+00 0. -1.
          1   -1    0    0  501    0 -0.00000000000E+00 -0.00000000000E+00 -0.14411142286E+03  0.14411142286E+03  0.00000000000E+00 0. -1.
         25    2    1    2    0    0 -0.91956131617E+01 -0.69016688519E+02 -0.30307181471E+01  0.14311859299E+03  0.12500353520E+03 0.  0.
          2    1    1    2  501    0 -0.89040823797E+01  0.37335860370E+02 -0.64028939987E+02  0.74652222395E+02  0.00000000000E+00 0. -1.
          1    1    1    2  502    0  0.18099695541E+02  0.31680828149E+02  0.19451958474E+03  0.19791195694E+03  0.00000000000E+00 0. -1.
         22    1    3    3    0    0  0.10667077141E+02  0.33246936044E+02 -0.15496604644E+02  0.38200655054E+02  0.00000000000E+00 0.  1.
         22    1    3    3    0    0 -0.19862690303E+02 -0.10226362456E+03  0.12465886497E+02  0.10491793794E+03  0.00000000000E+00 0.  1.
</event>
<event>
 7    1  0.6235964E-006  0.8101343E+02  0.7818608E-02  0.1353271E+00
          2   -1    0    0  502    0  0.00000000000E+00  0.00000000000E+00  0.11184676153E+04  0.11184676153E+04  0.00000000000E+00 0. -1.
          1   -1    0    0  501    0 -0.00000000000E+00 -0.00000000000E+00 -0.51474928863E+03  0.51474928863E+03  0.00000000000E+00 0. -1.
         25    2    1    2    0    0  0.10465079277E+03 -0.37964458541E+02 -0.34304141499E+03  0.38170045521E+03  0.12499894628E+03 0.  0.
          2    1    1    2  501    0 -0.43670254174E+02  0.57622453791E+02 -0.14280755497E+03  0.16006697360E+03  0.00000000000E+00 0. -1.
          1    1    1    2  502    0 -0.60980538599E+02 -0.19657995250E+02  0.10895672966E+04  0.10914494751E+04  0.00000000000E+00 0. -1.
         22    1    3    3    0    0  0.14990434598E+02  0.34152234019E+01 -0.23433498353E+03  0.23483879872E+03  0.00000000000E+00 0. -1.
         22    1    3    3    0    0  0.89660358175E+02 -0.41379681943E+02 -0.10870643146E+03  0.14686165649E+03  0.00000000000E+00 0. -1.
</event>
<event>
 7    1  0.6235964E-006  0.2352698E+03  0.7818608E-02  0.1248319E+00
          2   -1    0    0  502    0  0.00000000000E+00  0.00000000000E+00  0.29137476047E+03  0.29137476047E+03  0.00000000000E+00 0. -1.
          1   -1    0    0  501    0 -0.00000000000E+00 -0.00000000000E+00 -0.14780975721E+04  0.14780975721E+04  0.00000000000E+00 0. -1.
         25    2    1    2    0    0 -0.21898512793E+03  0.61787859492E+02 -0.75728407168E+03  0.80054796072E+03  0.12500258539E+03 0.  0.
          2    1    1    2  501    0 -0.17154406472E+02 -0.55482490043E+02 -0.64591039552E+03  0.64851585903E+03  0.00000000000E+00 0. -1.
          1    1    1    2  502    0  0.23613953441E+03 -0.63053694483E+01  0.21647165560E+03  0.32040851280E+03  0.00000000000E+00 0. -1.
         22    1    3    3    0    0  0.80832280843E+01 -0.15359170117E+02 -0.29017636217E+02  0.33812215168E+02  0.00000000000E+00 0.  1.
         22    1    3    3    0    0 -0.22706835602E+03  0.77147029609E+02 -0.72826643546E+03  0.76673574555E+03  0.00000000000E+00 0.  1.
</event>
<event>
 7    1  0.6235964E-006  0.6591881E+02  0.7818608E-02  0.1378191E+00
          2   -1    0    0  502    0  0.00000000000E+00  0.00000000000E+00  0.11596532334E+04  0.11596532334E+04  0.00000000000E+00 0. -1.
          1   -1    0    0  501    0 -0.00000000000E+00 -0.00000000000E+00 -0.17367027254E+03  0.17367027254E+03  0.00000000000E+00 0. -1.
         25    2    1    2    0    0 -0.31891365344E+02 -0.61524890883E+02 -0.50456173711E+02  0.15156848169E+03  0.12499923118E+03 0.  0.
          2    1    1    2  501    0  0.63878794265E+02  0.35791586598E+01 -0.57376767263E+02  0.85938374170E+02  0.00000000000E+00 0. -1.
          1    1    1    2  502    0 -0.31987428921E+02  0.57945732223E+02  0.10938159018E+04  0.10958166501E+04  0.00000000000E+00 0. -1.
         22    1    3    3    0    0  0.35989019818E+02  0.16416807319E+02 -0.14777262457E+02  0.42226633725E+02  0.00000000000E+00 0.  1.
         22    1    3    3    0    0 -0.67880385162E+02 -0.77941698202E+02 -0.35678911254E+02  0.10934184797E+03  0.00000000000E+00 0.  1.
</event>
<event>
 7    1  0.6235964E-006  0.1056281E+03  0.7818608E-02  0.1283518E+00
          2   -1    0    0  502    0  0.00000000000E+00  0.00000000000E+00  0.17410481062E+03  0.17410481062E+03  0.00000000000E+00 0. -1.
          1   -1    0    0  501    0 -0.00000000000E+00 -0.00000000000E+00 -0.43153174908E+03  0.43153174908E+03  0.00000000000E+00 0. -1.
         25    2    1    2    0    0 -0.55383902490E+01 -0.10832869537E+03 -0.58575236577E+02  0.17556000405E+03  0.12499790668E+03 0.  0.
          2    1    1    2  501    0 -0.83181972205E+02  0.38884807094E+02 -0.27774801296E+03  0.29253243824E+03  0.00000000000E+00 0. -1.
          1    1    1    2  502    0  0.88720362454E+02  0.69443888274E+02  0.78896311072E+02  0.13754411741E+03  0.00000000000E+00 0. -1.
         22    1    3    3    0    0  0.46684181544E+02 -0.99017512137E+02 -0.23495982050E+02  0.11196401962E+03  0.00000000000E+00 0.  1.
         22    1    3    3    0    0 -0.52222571793E+02 -0.93111832305E+01 -0.35079254527E+02  0.63595984433E+02  0.00000000000E+00 0.  1.
</event>
<event>
 7    1  0.6235964E-006  0.5423808E+02  0.7818608E-02  0.1515869E+00
          2   -1    0    0  502    0  0.00000000000E+00  0.00000000000E+00  0.11239700447E+03  0.11239700447E+03  0.00000000000E+00 0. -1.
          1   -1    0    0  501    0 -0.00000000000E+00 -0.00000000000E+00 -0.48194661344E+03  0.48194661344E+03  0.00000000000E+00 0. -1.
         25    2    1    2    0    0  0.10440123400E+02 -0.61559123186E+02 -0.24203777623E+02  0.14181230714E+03  0.12500554300E+03 0.  0.
          2    1    1    2  501    0 -0.32023641085E+02  0.43704249658E+02 -0.39328968438E+03  0.39700422021E+03  0.00000000000E+00 0. -1.
          1    1    1    2  502    0  0.21583517685E+02  0.17854873528E+02  0.47943853028E+02  0.55527090573E+02  0.00000000000E+00 0. -1.
         22    1    3    3    0    0  0.23014969687E+01 -0.46564284006E+02 -0.74954455732E+02  0.88270605907E+02  0.00000000000E+00 0.  1.
         22    1    3    3    0    0  0.81386264311E+01 -0.14994839181E+02  0.50750678109E+02  0.53541701232E+02  0.00000000000E+00 0.  1.
</event>
<event>
 7    1  0.6235964E-006  0.8135533E+02  0.7818608E-02  0.1353346E+00
          2   -1    0    0  502    0  0.00000000000E+00  0.00000000000E+00  0.33369755148E+03  0.33369755148E+03  0.00000000000E+00 0. -1.
          1   -1    0    0  501    0 -0.00000000000E+00 -0.00000000000E+00 -0.56008187877E+03  0.56008187877E+03  0.00000000000E+00 0. -1.
         25    2    1    2    0    0 -0.43512060028E+02 -0.10550636553E+03  0.69247125885E+02  0.18287884506E+03  0.12499845995E+03 0.  0.
          2    1    1    2  501    0 -0.14752012748E+02  0.79607203609E+02 -0.49500356291E+03  0.50158095661E+03  0.00000000000E+00 0. -1.
          1    1    1    2  502    0  0.58264072776E+02  0.25899161924E+02  0.19937210974E+03  0.20931962858E+03  0.00000000000E+00 0. -1.
         22    1    3    3    0    0  0.26343164929E+02 -0.10871383354E+02  0.58117904721E+02  0.64728974684E+02  0.00000000000E+00 0.  1.
         22    1    3    3    0    0 -0.69855224957E+02 -0.94634982179E+02  0.11129221164E+02  0.11814987037E+03  0.00000000000E+00 0.  1.
</event>
<event>
 7    1  0.6235964E-006  0.5083322E+02  0.7818608E-02  0.1546991E+00
          2   -1    0    0  502    0  0.00000000000E+00  0.00000000000E+00  0.50875988201E+03  0.50875988201E+03  0.00000000000E+00 0. -1.
          1   -1    0    0  501    0 -0.00000000000E+00 -0.00000000000E+00 -0.12237380789E+04  0.12237380789E+04  0.00000000000E+00 0. -1.
         25    2    1    2    0    0 -0.17854326018E+02  0.66163385950E+02 -0.42605470725E+03  0.44927189979E+03  0.12500502300E+03 0.  0.
          2    1    1    2  501    0 -0.85717124283E+01 -0.22790919420E+02 -0.78458826348E+03  0.78496601420E+03  0.00000000000E+00 0. -1.
          1    1    1    2  502    0  0.26426038446E+02 -0.43372466530E+02  0.49566477382E+03  0.49826004693E+03  0.00000000000E+00 0. -1.
         22    1    3    3    0    0  0.19699311505E+02 -0.20698038419E+02 -0.22785537481E+03  0.22964003026E+03  0.00000000000E+00 0.  1.
         22    1    3    3    0    0 -0.37553637522E+02  0.86861424369E+02 -0.19819933244E+03  0.21963186953E+03  0.00000000000E+00 0.  1.
</event>
<event>
 7    1  0.6235964E-006  0.9236763E+02  0.7818608E-02  0.1328394E+00
          2   -1    0    0  502    0  0.00000000000E+00  0.00000000000E+00  0.36618859862E+03  0.36618859862E+03  0.00000000000E+00 0. -1.
          1   -1    0    0  501    0 -0.00000000000E+00 -0.00000000000E+00 -0.90937676914E+03  0.90937676914E+03  0.00000000000E+00 0. -1.
         25    2    1    2    0    0 -0.74831744695E+02  0.70305345405E+02 -0.65073545759E+03  0.67054044288E+03  0.12500087268E+03 0.  0.
          2    1    1    2  501    0  0.66194425231E+02  0.21797877317E+02 -0.23764455638E+03  0.24765254807E+03  0.00000000000E+00 0. -1.
          1    1    1    2  502    0  0.86373194641E+01 -0.92103222723E+02  0.34519184345E+03  0.35737237681E+03  0.00000000000E+00 0. -1.
         22    1    3    3    0    0 -0.35717404313E+02  0.63247006461E+02 -0.60744099459E+03  0.61176832110E+03  0.00000000000E+00 0.  1.
         22    1    3    3    0    0 -0.39114340382E+02  0.70583389446E+01 -0.43294463001E+02  0.58772121782E+02  0.00000000000E+00 0.  1.
</event>
<event>
 7    1  0.6235964E-006  0.5430270E+02  0.7818608E-02  0.1557030E+00
          2   -1    0    0  502    0  0.00000000000E+00  0.00000000000E+00  0.21660592060E+02  0.21660592060E+02  0.00000000000E+00 0. -1.
          1   -1    0    0  501    0 -0.00000000000E+00 -0.00000000000E+00 -0.71042448190E+03  0.71042448190E+03  0.00000000000E+00 0. -1.
         25    2    1    2    0    0  0.38178408269E+02  0.25796497376E+02 -0.23989778682E+03  0.27440723714E+03  0.12500133414E+03 0.  0.
          2    1    1    2  501    0  0.21145243504E+02 -0.31194816282E+01 -0.18712288258E+03  0.18833965508E+03  0.00000000000E+00 0. -1.
          1    1    1    2  502    0 -0.59323651772E+02 -0.22677015748E+02 -0.26174322043E+03  0.26933818174E+03  0.00000000000E+00 0. -1.
         22    1    3    3    0    0  0.67758683174E+02  0.56405825994E+02 -0.13541374203E+03  0.16158507939E+03  0.00000000000E+00 0.  1.
         22    1    3    3    0    0 -0.29580274906E+02 -0.30609328617E+02 -0.10448404480E+03  0.11282215775E+03  0.00000000000E+00 0.  1.
</event>
<event>
 7    1  0.6235964E-006  0.2835921E+02  0.7818608E-02  0.1625511E+00
          2   -1    0    0  502    0  0.00000000000E+00  0.00000000000E+00  0.10814235092E+02  0.10814235092E+02  0.00000000000E+00 0. -1.
          1   -1    0    0  501    0 -0.00000000000E+00 -0.00000000000E+00 -0.19096960335E+04  0.19096960335E+04  0.00000000000E+00 0. -1.
         25    2    1    2    0    0  0.59922134224E+01 -0.14149054030E+01 -0.12382602675E+04  0.12445688394E+04  0.12500078885E+03 0.  0.
          2    1    1    2  501    0 -0.27304548472E+02 -0.15121773068E+02 -0.64291859493E+03  0.64367579269E+03  0.00000000000E+00 0. -1.
          1    1    1    2  502    0  0.21312335049E+02  0.16536678471E+02 -0.17702935967E+02  0.32265636550E+02  0.00000000000E+00 0. -1.
         22    1    3    3    0    0 -0.13943299289E+02  0.13491014834E+02 -0.28069672671E+02  0.34122274252E+02  0.00000000000E+00 0.  1.
         22    1    3    3    0    0  0.19935512711E+02 -0.14905920237E+02 -0.12101905949E+04  0.12104465651E+04  0.00000000000E+00 0.  1.
</event>
<event>
 7    1  0.6235964E-006  0.2484970E+03  0.7818608E-02  0.1279704E+00
          2   -1    0    0  502    0  0.00000000000E+00  0.00000000000E+00  0.62528375520E+03  0.62528375520E+03  0.00000000000E+00 0. -1.
          1   -1    0    0  501    0 -0.00000000000E+00 -0.00000000000E+00 -0.88259334432E+03  0.88259334432E+03  0.00000000000E+00 0. -1.
         25    2    1    2    0    0  0.17355607929E+03 -0.12224087242E+03  0.83272489693E+02  0.26004611308E+03  0.12500051937E+03 0.  0.
          2    1    1    2  501    0 -0.20717265593E+03  0.14477257663E+03 -0.77313008444E+03  0.81339396098E+03  0.00000000000E+00 0. -1.
          1    1    1    2  502    0  0.33616576634E+02 -0.22531704208E+02  0.43254800562E+03  0.43443702546E+03  0.00000000000E+00 0. -1.
         22    1    3    3    0    0 -0.75297641144E+01 -0.32999478355E+02  0.42082450422E+02  0.54005514096E+02  0.00000000000E+00 0. -1.
         22    1    3    3    0    0  0.18108584341E+03 -0.89241394063E+02  0.41190039271E+02  0.20604059899E+03  0.00000000000E+00 0. -1.
</event>
<event>
 7    1  0.6235964E-006  0.4751577E+02  0.7818608E-02  0.1535242E+00
          2   -1    0    0  502    0  0.00000000000E+00  0.00000000000E+00  0.99404330695E+03  0.99404330695E+03  0.00000000000E+00 0. -1.
          1   -1    0    0  501    0 -0.00000000000E+00 -0.00000000000E+00 -0.11344597065E+04  0.11344597065E+04  0.00000000000E+00 0. -1.
         25    2    1    2    0    0  0.63659166786E+01  0.70207716441E+02  0.40329209713E+03  0.42806397015E+03  0.12499839433E+03 0.  0.
          2    1    1    2  501    0  0.89638895103E+01 -0.46637671695E+02 -0.11212290898E+04  0.11222344209E+04  0.00000000000E+00 0. -1.
          1    1    1    2  502    0 -0.15329806189E+02 -0.23570044745E+02  0.57752059307E+03  0.57820462242E+03  0.00000000000E+00 0. -1.
         22    1    3    3    0    0  0.13694778759E+02  0.46058219767E+02  0.39969364945E+03  0.40257163336E+03  0.00000000000E+00 0. -1.
         22    1    3    3    0    0 -0.73288620804E+01  0.24149496674E+02  0.35984476780E+01  0.25492336783E+02  0.00000000000E+00 0. -1.
</event>
<event>
 7    1  0.6235964E-006  0.4337256E+02  0.7818608E-02  0.1559233E+00
          2   -1    0    0  502    0  0.00000000000E+00  0.00000000000E+00  0.10232086075E+04  0.10232086075E+04  0.00000000000E+00 0. -1.
          1   -1    0    0  501    0 -0.00000000000E+00 -0.00000000000E+00 -0.37877723510E+03  0.37877723510E+03  0.00000000000E+00 0. -1.
         25    2    1    2    0    0 -0.59123601434E+02  0.27075108406E+02  0.16600731642E+03  0.21774178828E+03  0.12499758204E+03 0.  0.
          2    1    1    2  501    0  0.26378468131E+02  0.73094542569E+00 -0.35186063716E+03  0.35284878609E+03  0.00000000000E+00 0. -1.
          1    1    1    2  502    0  0.32745133303E+02 -0.27806053832E+02  0.83028469314E+03  0.83139526824E+03  0.00000000000E+00 0. -1.
         22    1    3    3    0    0  0.38302983466E+02  0.70253589162E+01  0.66382134165E+02  0.76961431552E+02  0.00000000000E+00 0. -1.
         22    1    3    3    0    0 -0.97426584900E+02  0.20049749490E+02  0.99625182255E+02  0.14078035672E+03  0.00000000000E+00 0. -1.
</event>
<event>
 7    1  0.6235964E-006  0.6602685E+02  0.7818608E-02  0.1500471E+00
          2   -1    0    0  502    0  0.00000000000E+00  0.00000000000E+00  0.11031477520E+04  0.11031477520E+04  0.00000000000E+00 0. -1.
          1   -1    0    0  501    0 -0.00000000000E+00 -0.00000000000E+00 -0.66180472274E+03  0.66180472274E+03  0.00000000000E+00 0. -1.
         25    2    1    2    0    0  0.68013709204E+02  0.38322099037E+02  0.36490695234E+03  0.39354509049E+03  0.12500482577E+03 0.  0.
          2    1    1    2  501    0 -0.42145290147E+01 -0.25198210829E+02 -0.64576741769E+03  0.64627259716E+03  0.00000000000E+00 0. -1.
          1    1    1    2  502    0 -0.63799180189E+02 -0.13123888208E+02  0.72220349460E+03  0.72513478709E+03  0.00000000000E+00 0. -1.
         22    1    3    3    0    0 -0.17488119273E+02 -0.16348224915E+02  0.12886299532E+02  0.27187414169E+02  0.00000000000E+00 0.  1.
         22    1    3    3    0    0  0.85501828476E+02  0.54670323952E+02  0.35202065281E+03  0.36635767632E+03  0.00000000000E+00 0.  1.
</event>
<event>
 7    1  0.6235964E-006  0.5047659E+02  0.7818608E-02  0.1518680E+00
          2   -1    0    0  502    0  0.00000000000E+00  0.00000000000E+00  0.12530805251E+03  0.12530805251E+03  0.00000000000E+00 0. -1.
          1   -1    0    0  501    0 -0.00000000000E+00 -0.00000000000E+00 -0.67522413727E+03  0.67522413727E+03  0.00000000000E+00 0. -1.
         25    2    1    2    0    0  0.48385058048E+02 -0.35130041832E+02 -0.41939029748E+03  0.44169247595E+03  0.12501515114E+03 0.  0.
          2    1    1    2  501    0 -0.27492643138E+02 -0.10796243584E+02 -0.23815048415E+03  0.23997511830E+03  0.00000000000E+00 0. -1.
          1    1    1    2  502    0 -0.20892414910E+02  0.45926285416E+02  0.10762469687E+03  0.11886459553E+03  0.00000000000E+00 0. -1.
         22    1    3    3    0    0  0.53966959541E+02 -0.56994301411E+02 -0.40967167817E+03  0.41712308377E+03  0.00000000000E+00 0.  1.
         22    1    3    3    0    0 -0.55819014934E+01  0.21864259579E+02 -0.97186193076E+01  0.24569392188E+02  0.00000000000E+00 0.  1.
</event>
<event>
 7    1  0.6235964E-006  0.2429955E+03  0.7818608E-02  0.1320213E+00
          2   -1    0    0  502    0  0.00000000000E+00  0.00000000000E+00  0.19522390851E+03  0.19522390851E+03  0.00000000000E+00 0. -1.
          1   -1    0    0  501    0 -0.00000000000E+00 -0.00000000000E+00 -0.10358751284E+04  0.10358751284E+04  0.00000000000E+00 0. -1.
         25    2    1    2    0    0 -0.26064523957E+03  0.48037216563E+02 -0.46375371401E+03  0.54857760739E+03  0.12500547583E+03 0.  0.
          2    1    1    2  501    0  0.27861514419E+02  0.59307051167E+01 -0.43554213830E+03  0.43647266980E+03  0.00000000000E+00 0. -1.
          1    1    1    2  502    0  0.23278372515E+03 -0.53967921679E+02  0.58644632388E+02  0.24604875975E+03  0.00000000000E+00 0. -1.
         22    1    3    3    0    0 -0.27036011056E+03  0.32286837686E+02 -0.41418763341E+03  0.49566967321E+03  0.00000000000E+00 0. -1.
         22    1    3    3    0    0  0.97148709941E+01  0.15750378876E+02 -0.49566080593E+02  0.52907934173E+02  0.00000000000E+00 0. -1.
</event>
<event>
 7    1  0.6235964E-006  0.8191045E+02  0.7818608E-02  0.1476687E+00
          2   -1    0    0  502    0  0.00000000000E+00  0.00000000000E+00  0.17841251737E+04  0.17841251737E+04  0.00000000000E+00 0. -1.
          1   -1    0    0  501    0 -0.00000000000E+00 -0.00000000000E+00 -0.53043647890E+03  0.53043647890E+03  0.00000000000E+00 0. -1.
         25    2    1    2    0    0 -0.28800998694E+02 -0.53032341285E+02  0.42244464419E+02  0.14507431706E+03  0.12498014221E+03 0.  0.
          2    1    1    2  501    0  0.48836134805E+02  0.66806882339E+02 -0.47535927170E+03  0.48250861627E+03  0.00000000000E+00 0. -1.
          1    1    1    2  502    0 -0.20035136111E+02 -0.13774541053E+02  0.16868035020E+04  0.16869787192E+04  0.00000000000E+00 0. -1.
         22    1    3    3    0    0  0.98107791409E+01 -0.38999452127E+02 -0.37743840586E+02  0.55152571615E+02  0.00000000000E+00 0. -1.
         22    1    3    3    0    0 -0.38611777835E+02 -0.14032889158E+02  0.79988305005E+02  0.89921745442E+02  0.00000000000E+00 0. -1.
</event>
<event>
 7    1  0.6235964E-006  0.4693231E+02  0.7818608E-02  0.1464459E+00
          2   -1    0    0  502    0  0.00000000000E+00  0.00000000000E+00  0.12009686502E+04  0.12009686502E+04  0.00000000000E+00 0. -1.
          1   -1    0    0  501    0 -0.00000000000E+00 -0.00000000000E+00 -0.56640938029E+03  0.56640938029E+03  0.00000000000E+00 0. -1.
         25    2    1    2    0    0 -0.50465938828E+01 -0.13926058306E+02  0.79304363284E+03  0.80297113082E+03  0.12500012054E+03 0.  0.
          2    1    1    2  501    0 -0.40015120852E+02  0.24627747180E+02 -0.55912614351E+03  0.56109694366E+03  0.00000000000E+00 0. -1.
          1    1    1    2  502    0  0.45061714735E+02 -0.10701688874E+02  0.40064178061E+03  0.40330995605E+03  0.00000000000E+00 0. -1.
         22    1    3    3    0    0 -0.25510143033E+02 -0.30034677175E+02  0.77401561493E+02  0.86855344983E+02  0.00000000000E+00 0. -1.
         22    1    3    3    0    0  0.20463549151E+02  0.16108618869E+02  0.71564207135E+03  0.71611578584E+03  0.00000000000E+00 0. -1.
</event>
<event>
 7    1  0.6235964E-006  0.3641360E+02  0.7818608E-02  0.1567305E+00
          2   -1    0    0  502    0  0.00000000000E+00  0.00000000000E+00  0.13264777306E+04  0.13264777306E+04  0.00000000000E+00 0. -1.
          1   -1    0    0  501    0 -0.00000000000E+00 -0.00000000000E+00 -0.90270973954E+03  0.90270973954E+03  0.00000000000E+00 0. -1.
         25    2    1    2    0    0 -0.34242486187E+02 -0.14218850547E+02  0.16701719686E+03  0.21188163547E+03  0.12499743931E+03 0.  0.
          2    1    1    2  501    0  0.32917594194E+02 -0.15622358288E+02 -0.87970414254E+03  0.88045840589E+03  0.00000000000E+00 0. -1.
          1    1    1    2  502    0  0.13248919930E+01  0.29841208834E+02  0.11364549367E+04  0.11368474288E+04  0.00000000000E+00 0. -1.
         22    1    3    3    0    0 -0.53970644303E+02  0.42043512467E+02  0.69080225643E+02  0.97224302322E+02  0.00000000000E+00 0. -1.
         22    1    3    3    0    0  0.19728158116E+02 -0.56262363014E+02  0.97936971216E+02  0.11465733315E+03  0.00000000000E+00 0. -1.
</event>
<event>
 7    1  0.6235964E-006  0.1220718E+03  0.7818608E-02  0.1407492E+00
          2   -1    0    0  502    0  0.00000000000E+00  0.00000000000E+00  0.27058014717E+04  0.27058014717E+04  0.00000000000E+00 0. -1.
          1   -1    0    0  501    0 -0.00000000000E+00 -0.00000000000E+00 -0.21154872791E+02  0.21154872791E+02  0.00000000000E+00 0. -1.
         25    2    1    2    0    0  0.87516697899E+02  0.88038240337E+02  0.92022866922E+03  0.93693975324E+03  0.12500157351E+03 0.  0.
          2    1    1    2  501    0 -0.22559294936E+02  0.15422874158E+02  0.68031472976E+01  0.28161492298E+02  0.00000000000E+00 0. -1.
          1    1    1    2  502    0 -0.64957402963E+02 -0.10346111450E+03  0.17576147824E+04  0.17618550990E+04  0.00000000000E+00 0. -1.
         22    1    3    3    0    0  0.26040556737E+02  0.10271077098E+03  0.44046685026E+03  0.45303273530E+03  0.00000000000E+00 0. -1.
         22    1    3    3    0    0  0.61476141161E+02 -0.14672530647E+02  0.47976181896E+03  0.48390701794E+03  0.00000000000E+00 0. -1.
</event>
<event>
 7    1  0.6235964E-006  0.5899262E+02  0.7818608E-02  0.1465371E+00
          2   -1    0    0  502    0  0.00000000000E+00  0.00000000000E+00  0.26017931496E+03  0.26017931496E+03  0.00000000000E+00 0. -1.
          1   -1    0    0  501    0 -0.00000000000E+00 -0.00000000000E+00 -0.56702437004E+03  0.56702437004E+03  0.00000000000E+00 0. -1.
         25    2    1    2    0    0  0.51368367888E+02  0.79301750393E+02 -0.18966754150E+03  0.24601895078E+03  0.12499628397E+03 0.  0.
          2    1    1    2  501    0 -0.15689571219E+02 -0.33071918475E+02 -0.34452143066E+03  0.34646057585E+03  0.00000000000E+00 0. -1.
          1    1    1    2  502    0 -0.35678796669E+02 -0.46229831918E+02  0.22734391708E+03  0.23472415837E+03  0.00000000000E+00 0. -1.
         22    1    3    3    0    0 -0.11822627699E+02 -0.27645932740E+02 -0.21577290063E+02  0.37008803943E+02  0.00000000000E+00 0. -1.
         22    1    3    3    0    0  0.63190995587E+02  0.10694768313E+03 -0.16809025144E+03  0.20901014683E+03  0.00000000000E+00 0. -1.
</event>
<event>
 7    1  0.6235964E-006  0.1547564E+03  0.7818608E-02  0.1301649E+00
          2   -1    0    0  502    0  0.00000000000E+00  0.00000000000E+00  0.51419927828E+03  0.51419927828E+03  0.00000000000E+00 0. -1.
          1   -1    0    0  501    0 -0.00000000000E+00 -0.00000000000E+00 -0.10588300969E+04  0.10588300969E+04  0.00000000000E+00 0. -1.
         25    2    1    2    0    0 -0.50907810823E+02 -0.92518468264E+02 -0.32170940015E+03  0.36093583105E+03  0.12500585513E+03 0.  0.
          2    1    1    2  501    0 -0.89322973506E+01 -0.52162429265E+02 -0.70409865714E+03  0.70608471442E+03  0.00000000000E+00 0. -1.
          1    1    1    2  502    0  0.59840108174E+02  0.14468089753E+03  0.48117723870E+03  0.50600882967E+03  0.00000000000E+00 0. -1.
         22    1    3    3    0    0 -0.17099839727E+02 -0.75233664902E+01 -0.23221596521E+03  0.23296622086E+03  0.00000000000E+00 0.  1.
         22    1    3    3    0    0 -0.33807971097E+02 -0.84995101773E+02 -0.89493434936E+02  0.12796961019E+03  0.00000000000E+00 0.  1.
</event>
<event>
 7    1  0.6235964E-006  0.6197204E+02  0.7818608E-02  0.1393397E+00
          2   -1    0    0  502    0  0.00000000000E+00  0.00000000000E+00  0.55444160120E+03  0.55444160120E+03  0.00000000000E+00 0. -1.
          1   -1    0    0  501    0 -0.00000000000E+00 -0.00000000000E+00 -0.64404065134E+02  0.64404065134E+02  0.00000000000E+00 0. -1.
         25    2    1    2    0    0 -0.18003432202E+02 -0.73258234343E+02  0.12276575786E+03  0.19076650635E+03  0.12501814338E+03 0.  0.
          2    1    1    2  501    0 -0.38813484523E+02  0.48512094608E+02  0.70058260795E+01  0.62521928179E+02  0.00000000000E+00 0. -1.
          1    1    1    2  502    0  0.56816916725E+02  0.24746139735E+02  0.36026595213E+03  0.36555723180E+03  0.00000000000E+00 0. -1.
         22    1    3    3    0    0 -0.39284742729E+02 -0.93805549483E+02  0.52334600674E+02  0.11437518329E+03  0.00000000000E+00 0. -1.
         22    1    3    3    0    0  0.21281310527E+02  0.20547315140E+02  0.70431157181E+02  0.76391323062E+02  0.00000000000E+00 0. -1.
</event>
<event>
 7    1  0.6235964E-006  0.9536331E+02  0.7818608E-02  0.1373389E+00
          2   -1    0    0  502    0  0.00000000000E+00  0.00000000000E+00  0.11703324426E+04  0.11703324426E+04  0.00000000000E+00 0. -1.
          1   -1    0    0  501    0 -0.00000000000E+00 -0.00000000000E+00 -0.10280466482E+04  0.10280466482E+04  0.00000000000E+00 0. -1.
         25    2    1    2    0    0  0.32566442754E+02  0.11174760485E+03  0.65079711492E+03  0.67283770203E+03  0.12500235239E+03 0.  0.
          2    1    1    2  501    0  0.10190470620E+02 -0.94775492939E+02 -0.10137455465E+04  0.10182172032E+04  0.00000000000E+00 0. -1.
          1    1    1    2  502    0 -0.42756913374E+02 -0.16972111915E+02  0.50523422598E+03  0.50732418563E+03  0.00000000000E+00 0. -1.
         22    1    3    3    0    0 -0.21658427887E+02 -0.18541133673E+02  0.14188773898E+03  0.14472384602E+03  0.00000000000E+00 0.  1.
         22    1    3    3    0    0  0.54224870641E+02  0.13028873853E+03  0.50890937595E+03  0.52811385601E+03  0.00000000000E+00 0.  1.
</event>
<event>
 7    1  0.6235964E-006  0.9595385E+02  0.7818608E-02  0.1469305E+00
          2   -1    0    0  502    0  0.00000000000E+00  0.00000000000E+00  0.18847827931E+04  0.18847827931E+04  0.00000000000E+00 0. -1.
          1   -1    0    0  501    0 -0.00000000000E+00 -0.00000000000E+00 -0.49309204699E+02  0.49309204699E+02  0.00000000000E+00 0. -1.
         25    2    1    2    0    0  0.43953286144E+02 -0.10836893534E+03  0.13684576024E+04  0.13791235169E+04  0.12501898935E+03 0.  0.
          2    1    1    2  501    0 -0.37483681295E+02  0.87470246614E+02  0.80739179856E+01  0.95505280261E+02  0.00000000000E+00 0. -1.
          1    1    1    2  502    0 -0.64696048499E+01  0.20898688724E+02  0.45894206799E+03  0.45946320064E+03  0.00000000000E+00 0. -1.
         22    1    3    3    0    0  0.43522448700E+02 -0.11623297918E+03  0.72007185027E+03  0.73068993324E+03  0.00000000000E+00 0.  1.
         22    1    3    3    0    0  0.43083744478E+00  0.78640438440E+01  0.64838575213E+03  0.64843358363E+03  0.00000000000E+00 0.  1.
</event>
<event>
 7    1  0.6235964E-006  0.3311425E+02  0.7818608E-02  0.1614852E+00
          2   -1    0    0  502    0  0.00000000000E+00  0.00000000000E+00  0.10367758586E+04  0.10367758586E+04  0.00000000000E+00 0. -1.
          1   -1    0    0  501    0 -0.00000000000E+00 -0.00000000000E+00 -0.14639770353E+03  0.14639770353E+03  0.00000000000E+00 0. -1.
         25    2    1    2    0    0  0.21011491365E+02  0.50991386840E+02  0.59129543390E+03  0.60687463866E+03  0.12499973042E+03 0.  0.
          2    1    1    2  501    0 -0.19842193843E+02 -0.26427567151E+02 -0.13628635775E+03  0.14023587370E+03  0.00000000000E+00 0. -1.
          1    1    1    2  502    0 -0.11692975219E+01 -0.24563819689E+02  0.43536907893E+03  0.43606304978E+03  0.00000000000E+00 0. -1.
         22    1    3    3    0    0  0.92224231400E+01 -0.34151226400E+02  0.68853796551E+02  0.77409331819E+02  0.00000000000E+00 0. -1.
         22    1    3    3    0    0  0.11789068225E+02  0.85142613241E+02  0.52244163734E+03  0.52946530684E+03  0.00000000000E+00 0. -1.
</event>
<event>
 7    1  0.6235964E-006  0.9520745E+02  0.7818608E-02  0.1290751E+00
          2   -1    0    0  502    0  0.00000000000E+00  0.00000000000E+00  0.36198478265E+04  0.36198478265E+04  0.00000000000E+00 0. -1.
          1   -1    0    0  501    0 -0.00000000000E+00 -0.00000000000E+00 -0.14216815791E+04  0.14216815791E+04  0.00000000000E+00 0. -1.
         25    2    1    2    0    0  0.82921928445E+02  0.52952809564E+02  0.38971433404E+03  0.42092972904E+03  0.12499811348E+03 0.  0.
          2    1    1    2  501    0 -0.84278525777E+02  0.44211275461E+02 -0.14037278689E+04  0.14069504031E+04  0.00000000000E+00 0. -1.
          1    1    1    2  502    0  0.13565973323E+01 -0.97164085025E+02  0.32121797823E+04  0.32136492735E+04  0.00000000000E+00 0. -1.
         22    1    3    3    0    0 -0.26832839851E+02 -0.13847572535E+02  0.63118977598E+02  0.69969721256E+02  0.00000000000E+00 0.  1.
         22    1    3    3    0    0  0.10975476830E+03  0.66800382099E+02  0.32659535644E+03  0.35096000778E+03  0.00000000000E+00 0.  1.
</event>
<event>
 7    1  0.6235964E-006  0.1054107E+03  0.7818608E-02  0.1310642E+00
          2   -1    0    0  502    0  0.00000000000E+00  0.00000000000E+00  0.14355260501E+04  0.14355260501E+04  0.00000000000E+00 0. -1.
          1   -1    0    0  501    0 -0.00000000000E+00 -0.00000000000E+00 -0.37433852732E+03  0.37433852732E+03  0.00000000000E+00 0. -1.
         25    2    1    2    0    0  0.14827844984E+03 -0.78620359557E+02 -0.21564967218E+02  0.21037339909E+03  0.12499703841E+03 0.  0.
          2    1    1    2  501    0 -0.71085976378E+02  0.83259199520E+01 -0.25133382823E+03  0.26132590801E+03  0.00000000000E+00 0. -1.
          1    1    1    2  502    0 -0.77192473459E+02  0.70294439605E+02  0.13340863182E+04  0.13381652703E+04  0.00000000000E+00 0. -1.
         22    1    3    3    0    0  0.65404071157E+02 -0.17647571590E+01  0.44807277243E+02  0.79300056657E+02  0.00000000000E+00 0. -1.
         22    1    3    3    0    0  0.82874378680E+02 -0.76855602398E+02 -0.66372244461E+02  0.13107334243E+03  0.00000000000E+00 0. -1.
</event>
<event>
 7    1  0.6235964E-006  0.6910356E+02  0.7818608E-02  0.1431840E+00
          2   -1    0    0  502    0  0.00000000000E+00  0.00000000000E+00  0.63556380652E+03  0.63556380652E+03  0.00000000000E+00 0. -1.
          1   -1    0    0  501    0 -0.00000000000E+00 -0.00000000000E+00 -0.12796311915E+04  0.12796311915E+04  0.00000000000E+00 0. -1.
         25    2    1    2    0    0 -0.50075259521E+02  0.63610666476E+01 -0.80742785931E+03  0.81860468124E+03  0.12500352540E+03 0.  0.
          2    1    1    2  501    0 -0.11212785531E+02 -0.38423875343E+02 -0.46385184904E+03  0.46557562072E+03  0.00000000000E+00 0. -1.
          1    1    1    2  502    0  0.61288045052E+02  0.32062808695E+02  0.62721232332E+03  0.63101469610E+03  0.00000000000E+00 0. -1.
         22    1    3    3    0    0 -0.35257740367E+02  0.42167545697E+02 -0.14538163732E+03  0.15542532173E+03  0.00000000000E+00 0. -1.
         22    1    3    3    0    0 -0.14817519154E+02 -0.35806479050E+02 -0.66204622200E+03  0.66317935951E+03  0.00000000000E+00 0. -1.
</event>
<event>
 7    1  0.6235964E-006  0.9986394E+02  0.7818608E-02  0.1329539E+00
          2   -1    0    0  502    0  0.00000000000E+00  0.00000000000E+00  0.10278040329E+04  0.10278040329E+04  0.00000000000E+00 0. -1.
          1   -1    0    0  501    0 -0.00000000000E+00 -0.00000000000E+00 -0.10293881197E+03  0.10293881197E+03  0.00000000000E+00 0. -1.
         25    2    1    2    0    0 -0.26993105990E+02  0.10634779087E+03  0.35763498188E+03  0.39441799722E+03  0.12499718346E+03 0.  0.
          2    1    1    2  501    0  0.62745207263E+02 -0.11621275745E+02 -0.67897350821E+02  0.93177601026E+02  0.00000000000E+00 0. -1.
          1    1    1    2  502    0 -0.35752101273E+02 -0.94726515122E+02  0.63512758988E+03  0.64314724663E+03  0.00000000000E+00 0. -1.
         22    1    3    3    0    0 -0.40714591346E+02  0.10149367938E+03  0.36283955249E+03  0.37896066518E+03  0.00000000000E+00 0.  1.
         22    1    3    3    0    0  0.13721485356E+02  0.48541114843E+01 -0.52045706065E+01  0.15457332043E+02  0.00000000000E+00 0.  1.
</event>
<event>
 7    1  0.6235964E-006  0.8645525E+02  0.7818608E-02  0.1467625E+00
          2   -1    0    0  502    0  0.00000000000E+00  0.00000000000E+00  0.19287444483E+04  0.19287444483E+04  0.00000000000E+00 0. -1.
          1   -1    0    0  501    0 -0.00000000000E+00 -0.00000000000E+00 -0.87468501193E+02  0.87468501193E+02  0.00000000000E+00 0. -1.
         25    2    1    2    0    0 -0.69531586292E+02  0.35298800460E+02  0.81881020548E+03  0.83195925373E+03  0.12500160188E+03 0.  0.
          2    1    1    2  501    0  0.63517600628E+02 -0.59126844700E+02 -0.57441241901E+02  0.10406712077E+03  0.00000000000E+00 0. -1.
          1    1    1    2  502    0  0.60139856639E+01  0.23828044240E+02  0.10799069835E+04  0.10801865750E+04  0.00000000000E+00 0. -1.
         22    1    3    3    0    0 -0.69806302550E+02 -0.10101906206E+02  0.21143450310E+03  0.22288902504E+03  0.00000000000E+00 0.  1.
         22    1    3    3    0    0  0.27471625768E+00  0.45400706666E+02  0.60737570238E+03  0.60907022869E+03  0.00000000000E+00 0.  1.
</event>
<event>
 7    1  0.6235964E-006  0.7270325E+02  0.7818608E-02  0.1381670E+00
          2   -1    0    0  502    0  0.00000000000E+00  0.00000000000E+00  0.67374197084E+03  0.67374197084E+03  0.00000000000E+00 0. -1.
          1   -1    0    0  501    0 -0.00000000000E+00 -0.00000000000E+00 -0.49009586523E+02  0.49009586523E+02  0.00000000000E+00 0. -1.
         25    2    1    2    0    0 -0.12480495863E+02  0.19548837584E+02  0.41137585723E+03  0.43057527371E+03  0.12500820210E+03 0.  0.
          2    1    1    2  501    0  0.18358744741E+02 -0.75627545209E+02  0.68667898053E+01  0.78126320181E+02  0.00000000000E+00 0. -1.
          1    1    1    2  502    0 -0.58782488785E+01  0.56078707625E+02  0.20648973728E+03  0.21404996347E+03  0.00000000000E+00 0. -1.
         22    1    3    3    0    0 -0.46424605606E+02 -0.98989650616E+01  0.35650581619E+03  0.35965209647E+03  0.00000000000E+00 0.  1.
         22    1    3    3    0    0  0.33944109743E+02  0.29447802645E+02  0.54870041038E+02  0.70923177244E+02  0.00000000000E+00 0.  1.
</event>
<event>
 7    1  0.6235964E-006  0.1351273E+03  0.7818608E-02  0.1296464E+00
          2   -1    0    0  502    0  0.00000000000E+00  0.00000000000E+00  0.11645046485E+04  0.11645046485E+04  0.00000000000E+00 0. -1.
          1   -1    0    0  501    0 -0.00000000000E+00 -0.00000000000E+00 -0.12430617423E+04  0.12430617423E+04  0.00000000000E+00 0. -1.
         25    2    1    2    0    0 -0.88537630406E+02  0.12550039622E+03  0.23364540195E+03  0.30627623841E+03  0.12500279562E+03 0.  0.
          2    1    1    2  501    0  0.63267363260E+02  0.63095311037E+01 -0.12008666072E+04  0.12025486176E+04  0.00000000000E+00 0. -1.
          1    1    1    2  502    0  0.25270267146E+02 -0.13180992733E+03  0.88866411148E+03  0.89874153480E+03  0.00000000000E+00 0. -1.
         22    1    3    3    0    0  0.30755442419E+02  0.35195463518E+02  0.73594643114E+02  0.87182506190E+02  0.00000000000E+00 0. -1.
         22    1    3    3    0    0 -0.11929307282E+03  0.90304932704E+02  0.16005075883E+03  0.21909373222E+03  0.00000000000E+00 0. -1.
</event>
<event>
 7    1  0.6235964E-006  0.8787701E+02  0.7818608E-02  0.1468887E+00
          2   -1    0    0  502    0  0.00000000000E+00  0.00000000000E+00  0.26569525465E+04  0.26569525465E+04  0.00000000000E+00 0. -1.
          1   -1    0    0  501    0 -0.00000000000E+00 -0.00000000000E+00 -0.43465509738E+02  0.43465509738E+02  0.00000000000E+00 0. -1.
         25    2    1    2    0    0 -0.87134601913E+02 -0.47462615707E+02  0.55793111668E+03  0.58030728424E+03  0.12499709775E+03 0.  0.
          2    1    1    2  501    0  0.32919326573E+01  0.23732302940E+02 -0.26790817344E+02  0.35941715560E+02  0.00000000000E+00 0. -1.
          1    1    1    2  502    0  0.83842669256E+02  0.23730312766E+02  0.20823467374E+04  0.20841690564E+04  0.00000000000E+00 0. -1.
         22    1    3    3    0    0 -0.59742963528E+02 -0.71390157236E+02  0.51798714531E+03  0.52628552987E+03  0.00000000000E+00 0. -1.
         22    1    3    3    0    0 -0.27391638386E+02  0.23927541529E+02  0.39943971372E+02  0.54021754378E+02  0.00000000000E+00 0. -1.
</event>
<event>
 7    1  0.6235964E-006  0.7364377E+02  0.7818608E-02  0.1388522E+00
          2   -1    0    0  502    0  0.00000000000E+00  0.00000000000E+00  0.49328706344E+03  0.49328706344E+03  0.00000000000E+00 0. -1.
          1   -1    0    0  501    0 -0.00000000000E+00 -0.00000000000E+00 -0.53152564444E+03  0.53152564444E+03  0.00000000000E+00 0. -1.
         25    2    1    2    0    0  0.11315396044E+03 -0.32029585227E+02 -0.51495547168E+02  0.17918362159E+03  0.12500106309E+03 0.  0.
          2    1    1    2  501    0 -0.60829598888E+02  0.37990169312E+02 -0.41145801983E+03  0.41766157969E+03  0.00000000000E+00 0. -1.
          1    1    1    2  502    0 -0.52324361556E+02 -0.59605840854E+01  0.42471498600E+03  0.42796750660E+03  0.00000000000E+00 0. -1.
         22    1    3    3    0    0  0.47741769547E+02 -0.62636134810E+02  0.15965111457E+02  0.80358239946E+02  0.00000000000E+00 0. -1.
         22    1    3    3    0    0  0.65412190898E+02  0.30606549583E+02 -0.67460658624E+02  0.98825381646E+02  0.00000000000E+00 0. -1.
</event>
<event>
 7    1  0.6235964E-006  0.5135612E+02  0.7818608E-02  0.1554230E+00
          2   -1    0    0  502    0  0.00000000000E+00  0.00000000000E+00  0.34234181934E+04  0.34234181934E+04  0.00000000000E+00 0. -1.
          1   -1    0    0  501    0 -0.00000000000E+00 -0.00000000000E+00 -0.33072954223E+03  0.33072954223E+03  0.00000000000E+00 0. -1.
         25    2    1    2    0    0  0.16126598822E+02  0.48625559604E+02 -0.98710731269E+02  0.16731856190E+03  0.12500872151E+03 0.  0.
          2    1    1    2  501    0  0.19725025808E+02 -0.11843713263E+02 -0.19685025076E+03  0.19819024046E+03  0.00000000000E+00 0. -1.
          1    1    1    2  502    0 -0.35851624630E+02 -0.36781846341E+02  0.33882496332E+04  0.33886389333E+04  0.00000000000E+00 0. -1.
         22    1    3    3    0    0 -0.20639916256E+02  0.82174471011E+02 -0.69672173918E+02  0.10969440117E+03  0.00000000000E+00 0. -1.
         22    1    3    3    0    0  0.36766515077E+02 -0.33548911407E+02 -0.29038557351E+02  0.57624160736E+02  0.00000000000E+00 0. -1.
</event>
<event>
 7    1  0.6235964E-006  0.3962892E+02  0.7818608E-02  0.1512923E+00
          2   -1    0    0  502    0  0.00000000000E+00  0.00000000000E+00  0.13643615733E+04  0.13643615733E+04  0.00000000000E+00 0. -1.
          1   -1    0    0  501    0 -0.00000000000E+00 -0.00000000000E+00 -0.74685436268E+03  0.74685436268E+03  0.00000000000E+00 0. -1.
         25    2    1    2    0    0 -0.41144467109E+02  0.15770941177E+02  0.15813028680E+03  0.20633153464E+03  0.12500369925E+03 0.  0.
          2    1    1    2  501    0  0.31687296101E+02  0.22918198699E+02 -0.72188887694E+03  0.72294735577E+03  0.00000000000E+00 0. -1.
          1    1    1    2  502    0  0.94571710084E+01 -0.38689139877E+02  0.11812658008E+04  0.11819370456E+04  0.00000000000E+00 0. -1.
         22    1    3    3    0    0 -0.56102797840E+02 -0.39037711186E+02  0.51744485147E+02  0.85726067000E+02  0.00000000000E+00 0. -1.
         22    1    3    3    0    0  0.14958330730E+02  0.54808652363E+02  0.10638580165E+03  0.12060546764E+03  0.00000000000E+00 0. -1.
</event>
<event>
 7    1  0.6235964E-006  0.9931256E+02  0.7818608E-02  0.1294303E+00
          2   -1    0    0  502    0  0.00000000000E+00  0.00000000000E+00  0.22248245731E+04  0.22248245731E+04  0.00000000000E+00 0. -1.
          1   -1    0    0  501    0 -0.00000000000E+00 -0.00000000000E+00 -0.77945932901E+02  0.77945932901E+02  0.00000000000E+00 0. -1.
         25    2    1    2    0    0 -0.16922745136E+03 -0.62486238746E+02  0.68933161502E+03  0.72342685002E+03  0.12500348612E+03 0.  0.
          2    1    1    2  501    0  0.80656204419E+02  0.35846514474E+02 -0.26703403021E+02  0.92214248596E+02  0.00000000000E+00 0. -1.
          1    1    1    2  502    0  0.88571246939E+02  0.26639724272E+02  0.14842504282E+04  0.14871294074E+04  0.00000000000E+00 0. -1.
         22    1    3    3    0    0 -0.36516438131E+02 -0.35211967823E+02  0.40832485395E+03  0.41146387361E+03  0.00000000000E+00 0. -1.
         22    1    3    3    0    0 -0.13271101323E+03 -0.27274270923E+02  0.28100676107E+03  0.31196297642E+03  0.00000000000E+00 0. -1.
</event>
<event>
 7    1  0.6235964E-006  0.6282747E+02  0.7818608E-02  0.1512320E+00
          2   -1    0    0  502    0  0.00000000000E+00  0.00000000000E+00  0.38605793162E+03  0.38605793162E+03  0.00000000000E+00 0. -1.
          1   -1    0    0  501    0 -0.00000000000E+00 -0.00000000000E+00 -0.75360845505E+03  0.75360845505E+03  0.00000000000E+00 0. -1.
         25    2    1    2    0    0 -0.41683735429E+01  0.78228690777E+02 -0.17413851666E+03  0.22822432202E+03  0.12500005910E+03 0.  0.
          2    1    1    2  501    0 -0.15998237946E+02 -0.18907107892E+02 -0.54941223531E+03  0.54997020524E+03  0.00000000000E+00 0. -1.
          1    1    1    2  502    0  0.20166611489E+02 -0.59321582885E+02  0.35600022855E+03  0.36147185940E+03  0.00000000000E+00 0. -1.
         22    1    3    3    0    0 -0.16904692754E+02  0.40912872616E+02  0.52277648666E+01  0.44575344174E+02  0.00000000000E+00 0. -1.
         22    1    3    3    0    0  0.12736319211E+02  0.37315818161E+02 -0.17936628153E+03  0.18364897784E+03  0.00000000000E+00 0. -1.
</event>
<event>
 7    1  0.6235964E-006  0.1194438E+03  0.7818608E-02  0.1338019E+00
          2   -1    0    0  502    0  0.00000000000E+00  0.00000000000E+00  0.15357987432E+03  0.15357987432E+03  0.00000000000E+00 0. -1.
          1   -1    0    0  501    0 -0.00000000000E+00 -0.00000000000E+00 -0.16953226001E+04  0.16953226001E+04  0.00000000000E+00 0. -1.
         25    2    1    2    0    0  0.76286750713E+02 -0.28020006049E+02 -0.82386863273E+02  0.17034520505E+03  0.12500041828E+03 0.  0.
          2    1    1    2  501    0 -0.12143495703E+03  0.76306687500E+01 -0.15608675493E+04  0.15656028176E+04  0.00000000000E+00 0. -1.
          1    1    1    2  502    0  0.45148206321E+02  0.20389337299E+02  0.10151168683E+03  0.11295445176E+03  0.00000000000E+00 0. -1.
         22    1    3    3    0    0  0.36602112196E+02 -0.21485551175E+01  0.30646291115E+02  0.47786253938E+02  0.00000000000E+00 0. -1.
         22    1    3    3    0    0  0.39684638517E+02 -0.25871450932E+02 -0.11303315439E+03  0.12255895112E+03  0.00000000000E+00 0. -1.
</event>
<event>
 7    1  0.6235964E-006  0.5863842E+02  0.7818608E-02  0.1427080E+00
          2   -1    0    0  502    0  0.00000000000E+00  0.00000000000E+00  0.28639878537E+04  0.28639878537E+04  0.00000000000E+00 0. -1.
          1   -1    0    0  501    0 -0.00000000000E+00 -0.00000000000E+00 -0.22482225091E+03  0.22482225091E+03  0.00000000000E+00 0. -1.
         25    2    1    2    0    0 -0.23100337660E+02 -0.66396426988E+02  0.12566605101E+03  0.19068449648E+03  0.12500603867E+03 0.  0.
          2    1    1    2  501    0  0.47185171936E+02  0.12853302667E+02 -0.18887996611E+03  0.19510840432E+03  0.00000000000E+00 0. -1.
          1    1    1    2  502    0 -0.24084834275E+02  0.53543124321E+02  0.27023795178E+04  0.27030172038E+04  0.00000000000E+00 0. -1.
         22    1    3    3    0    0 -0.36306065353E+02  0.22915268660E+02  0.76900308952E+02  0.88073250400E+02  0.00000000000E+00 0.  1.
         22    1    3    3    0    0  0.13205727692E+02 -0.89311695647E+02  0.48765742060E+02  0.10261124608E+03  0.00000000000E+00 0.  1.
</event>
<event>
 7    1  0.6235964E-006  0.4362259E+02  0.7818608E-02  0.1492016E+00
          2   -1    0    0  502    0  0.00000000000E+00  0.00000000000E+00  0.26849215849E+04  0.26849215849E+04  0.00000000000E+00 0. -1.
          1   -1    0    0  501    0 -0.00000000000E+00 -0.00000000000E+00 -0.29817012537E+03  0.29817012537E+03  0.00000000000E+00 0. -1.
         25    2    1    2    0    0  0.45242983817E+02  0.67545401715E+02  0.97624090423E+02  0.17826812008E+03  0.12505898900E+03 0.  0.
          2    1    1    2  501    0 -0.12405772731E+02 -0.39072781528E+02 -0.25603197162E+03  0.25929318530E+03  0.00000000000E+00 0. -1.
          1    1    1    2  502    0 -0.32837211086E+02 -0.28472620187E+02  0.25451593407E+04  0.25455304049E+04  0.00000000000E+00 0. -1.
         22    1    3    3    0    0  0.46968704264E+02  0.77483097982E+02  0.12195466774E+03  0.15192968978E+03  0.00000000000E+00 0.  1.
         22    1    3    3    0    0 -0.17257204473E+01 -0.99376962669E+01 -0.24330577319E+02  0.26338430303E+02  0.00000000000E+00 0.  1.
</event>
<event>
 7    1  0.6235964E-006  0.7277344E+02  0.7818608E-02  0.1517783E+00
          2   -1    0    0  502    0  0.00000000000E+00  0.00000000000E+00  0.45673148701E+03  0.45673148701E+03  0.00000000000E+00 0. -1.
          1   -1    0    0  501    0 -0.00000000000E+00 -0.00000000000E+00 -0.15347442230E+03  0.15347442230E+03  0.00000000000E+00 0. -1.
         25    2    1    2    0    0  0.61707065574E+02 -0.66366982706E+01 -0.21509556738E+02  0.14115705376E+03  0.12494336753E+03 0.  0.
          2    1    1    2  501    0  0.10776231560E+02  0.17568732159E+02 -0.67198561708E+02  0.70288222427E+02  0.00000000000E+00 0. -1.
          1    1    1    2  502    0 -0.72483297134E+02 -0.10932033888E+02  0.39196518316E+03  0.39876063313E+03  0.00000000000E+00 0. -1.
         22    1    3    3    0    0 -0.37921561734E+02  0.25452053893E+01  0.30716864569E+01  0.38130803460E+02  0.00000000000E+00 0. -1.
         22    1    3    3    0    0  0.99628627308E+02 -0.91819036599E+01 -0.24581243195E+02  0.10302625030E+03  0.00000000000E+00 0. -1.
</event>
<event>
 7    1  0.6235964E-006  0.7344972E+02  0.7818608E-02  0.1367593E+00
          2   -1    0    0  502    0  0.00000000000E+00  0.00000000000E+00  0.25541861831E+03  0.25541861831E+03  0.00000000000E+00 0. -1.
          1   -1    0    0  501    0 -0.00000000000E+00 -0.00000000000E+00 -0.45951222458E+03  0.45951222458E+03  0.00000000000E+00 0. -1.
         25    2    1    2    0    0  0.70518417064E+02 -0.43951610273E+01 -0.60289114133E+02  0.15574222388E+03  0.12501479285E+03 0.  0.
          2    1    1    2  501    0 -0.51731293798E+02 -0.55382304744E+02 -0.34253255121E+03  0.35081601314E+03  0.00000000000E+00 0. -1.
          1    1    1    2  502    0 -0.18787123267E+02  0.59777465771E+02  0.19872805907E+03  0.20837260587E+03  0.00000000000E+00 0. -1.
         22    1    3    3    0    0  0.14100297597E+02  0.57516286849E+02 -0.32128067633E+02  0.67373246731E+02  0.00000000000E+00 0. -1.
         22    1    3    3    0    0  0.56418119467E+02 -0.61911447876E+02 -0.28161046500E+02  0.88368977149E+02  0.00000000000E+00 0. -1.
</event>
<event>
 7    1  0.6235964E-006  0.8307841E+02  0.7818608E-02  0.1416451E+00
          2   -1    0    0  502    0  0.00000000000E+00  0.00000000000E+00  0.25083724265E+04  0.25083724265E+04  0.00000000000E+00 0. -1.
          1   -1    0    0  501    0 -0.00000000000E+00 -0.00000000000E+00 -0.25286818111E+04  0.25286818111E+04  0.00000000000E+00 0. -1.
         25    2    1    2    0    0 -0.51260211002E+02 -0.48565186079E+02  0.73779743930E+03  0.75163484004E+03  0.12499473911E+03 0.  0.
          2    1    1    2  501    0  0.20230982130E+02 -0.31515203326E+02 -0.25205784208E+04  0.25208566156E+04  0.00000000000E+00 0. -1.
          1    1    1    2  502    0  0.31029228872E+02  0.80080389406E+02  0.17624715969E+04  0.17645627821E+04  0.00000000000E+00 0. -1.
         22    1    3    3    0    0  0.22081492665E+02 -0.26895041321E+02  0.51311707829E+03  0.51429570443E+03  0.00000000000E+00 0. -1.
         22    1    3    3    0    0 -0.73341703667E+02 -0.21670144758E+02  0.22468036101E+03  0.23733913561E+03  0.00000000000E+00 0. -1.
</event>
<event>
 7    1  0.6235964E-006  0.1564323E+03  0.7818608E-02  0.1207783E+00
          2   -1    0    0  502    0  0.00000000000E+00  0.00000000000E+00  0.13278401190E+04  0.13278401190E+04  0.00000000000E+00 0. -1.
          1   -1    0    0  501    0 -0.00000000000E+00 -0.00000000000E+00 -0.77097336646E+02  0.77097336646E+02  0.00000000000E+00 0. -1.
         25    2    1    2    0    0  0.10345742379E+03 -0.37943820227E+02  0.38006307804E+03  0.41499727177E+03  0.12502647822E+03 0.  0.
          2    1    1    2  501    0 -0.16863399929E+03 -0.77911430121E+02  0.10617419418E+03  0.21396395998E+03  0.00000000000E+00 0. -1.
          1    1    1    2  502    0  0.65176575500E+02  0.11585525035E+03  0.76450551009E+03  0.77597622385E+03  0.00000000000E+00 0. -1.
         22    1    3    3    0    0 -0.14752647303E+02 -0.42441070896E+02  0.14570599116E+03  0.15247662431E+03  0.00000000000E+00 0.  1.
         22    1    3    3    0    0  0.11821007109E+03  0.44972506691E+01  0.23435708688E+03  0.26252064746E+03  0.00000000000E+00 0.  1.
</event>
<event>
 7    1  0.6235964E-006  0.1204704E+03  0.7818608E-02  0.1403154E+00
          2   -1    0    0  502    0  0.00000000000E+00  0.00000000000E+00  0.22881761947E+03  0.22881761947E+03  0.00000000000E+00 0. -1.
          1   -1    0    0  501    0 -0.00000000000E+00 -0.00000000000E+00 -0.80397816660E+03  0.80397816660E+03  0.00000000000E+00 0. -1.
         25    2    1    2    0    0  0.16866375661E+02  0.10038017925E+03  0.12380254352E+02  0.16168064692E+03  0.12500682332E+03 0.  0.
          2    1    1    2  501    0 -0.88970085115E+01  0.27234226203E+02 -0.70014873890E+03  0.70073469760E+03  0.00000000000E+00 0. -1.
          1    1    1    2  502    0 -0.79693671498E+01 -0.12761440545E+03  0.11260793742E+03  0.17038044154E+03  0.00000000000E+00 0. -1.
         22    1    3    3    0    0  0.35889388995E+02 -0.15037742947E+02 -0.14726460369E+02  0.41605896102E+02  0.00000000000E+00 0.  1.
         22    1    3    3    0    0 -0.19023013334E+02  0.11541792219E+03  0.27106714722E+02  0.12007475081E+03  0.00000000000E+00 0.  1.
</event>
<event>
 7    1  0.6235964E-006  0.1286381E+03  0.7818608E-02  0.1249377E+00
          2   -1    0    0  502    0  0.00000000000E+00  0.00000000000E+00  0.35133928802E+03  0.35133928802E+03  0.00000000000E+00 0. -1.
          1   -1    0    0  501    0 -0.00000000000E+00 -0.00000000000E+00 -0.49193504005E+03  0.49193504005E+03  0.00000000000E+00 0. -1.
         25    2    1    2    0    0  0.92008618989E+02  0.49083122166E+02  0.97089071928E+01  0.16307610465E+03  0.12499925671E+03 0.  0.
          2    1    1    2  501    0 -0.29072075566E+02 -0.13324880848E+03 -0.39285676407E+03  0.41585678738E+03  0.00000000000E+00 0. -1.
          1    1    1    2  502    0 -0.62936543422E+02  0.84165686309E+02  0.24255210484E+03  0.26434143605E+03  0.00000000000E+00 0. -1.
         22    1    3    3    0    0 -0.22536857319E+02  0.24582863947E+02 -0.24113538120E+02  0.41154463407E+02  0.00000000000E+00 0.  1.
         22    1    3    3    0    0  0.11454547631E+03  0.24500258219E+02  0.33822445313E+02  0.12192164124E+03  0.00000000000E+00 0.  1.
</event>
<event>
 7    1  0.6235964E-006  0.1775725E+03  0.7818608E-02  0.1205044E+00
          2   -1    0    0  502    0  0.00000000000E+00  0.00000000000E+00  0.24789376764E+04  0.24789376764E+04  0.00000000000E+00 0. -1.
          1   -1    0    0  501    0 -0.00000000000E+00 -0.00000000000E+00 -0.19577835988E+04  0.19577835988E+04  0.00000000000E+00 0. -1.
         25    2    1    2    0    0 -0.91262795263E+02 -0.17013924218E+03  0.41217095018E+03  0.47200155554E+03  0.12499726686E+03 0.  0.
          2    1    1    2  501    0  0.16227363922E+03  0.72661632798E+02 -0.19219763210E+04  0.19301827440E+04  0.00000000000E+00 0. -1.
          1    1    1    2  502    0 -0.71010843952E+02  0.97477609386E+02  0.20309594484E+04  0.20345369756E+04  0.00000000000E+00 0. -1.
         22    1    3    3    0    0 -0.95782452711E+02 -0.18759777373E+03  0.39152312819E+03  0.44458695759E+03  0.00000000000E+00 0.  1.
         22    1    3    3    0    0  0.45196574476E+01  0.17458531547E+02  0.20647821997E+02  0.27414597944E+02  0.00000000000E+00 0.  1.
</event>
<event>
 7    1  0.6235964E-006  0.8485696E+02  0.7818608E-02  0.1376396E+00
          2   -1    0    0  502    0  0.00000000000E+00  0.00000000000E+00  0.26353336371E+04  0.26353336371E+04  0.00000000000E+00 0. -1.
          1   -1    0    0  501    0 -0.00000000000E+00 -0.00000000000E+00 -0.25450199931E+02  0.25450199931E+02  0.00000000000E+00 0. -1.
         25    2    1    2    0    0 -0.66525608364E+02 -0.10653113803E+03  0.14349986572E+04  0.14458981245E+04  0.12500280085E+03 0.  0.
          2    1    1    2  501    0  0.31352592018E+02  0.39507339803E+02  0.15120486738E+02  0.52654003112E+02  0.00000000000E+00 0. -1.
          1    1    1    2  502    0  0.35173016347E+02  0.67023798232E+02  0.11597642932E+04  0.11622317095E+04  0.00000000000E+00 0. -1.
         22    1    3    3    0    0 -0.41569404390E+02  0.21068564249E+02  0.43243100371E+03  0.43493502129E+03  0.00000000000E+00 0.  1.
         22    1    3    3    0    0 -0.24956203975E+02 -0.12759970228E+03  0.10025676535E+04  0.10109631032E+04  0.00000000000E+00 0.  1.
</event>
<event>
 7    1  0.6235964E-006  0.5186501E+02  0.7818608E-02  0.1545539E+00
          2   -1    0    0  502    0  0.00000000000E+00  0.00000000000E+00  0.12865467547E+04  0.12865467547E+04  0.00000000000E+00 0. -1.
          1   -1    0    0  501    0 -0.00000000000E+00 -0.00000000000E+00 -0.42952020246E+03  0.42952020246E+03  0.00000000000E+00 0. -1.
         25    2    1    2    0    0 -0.23501605931E+02 -0.44419468671E+02  0.13611294382E+03  0.19151263975E+03  0.12499977212E+03 0.  0.
          2    1    1    2  501    0  0.22861348554E+02 -0.75950350649E+01 -0.40085602861E+03  0.40157923438E+03  0.00000000000E+00 0. -1.
          1    1    1    2  502    0  0.64025737755E+00  0.52014503736E+02  0.11217696370E+04  0.11229750830E+04  0.00000000000E+00 0. -1.
         22    1    3    3    0    0 -0.57937624919E+02  0.20105067594E+02  0.56202735532E+02  0.83184912126E+02  0.00000000000E+00 0. -1.
         22    1    3    3    0    0  0.34436018988E+02 -0.64524536265E+02  0.79910208284E+02  0.10832772762E+03  0.00000000000E+00 0. -1.
</event>
<event>
 7    1  0.6235964E-006  0.7680997E+02  0.7818608E-02  0.1481903E+00
          2   -1    0    0  502    0  0.00000000000E+00  0.00000000000E+00  0.18643398868E+04  0.18643398868E+04  0.00000000000E+00 0. -1.
          1   -1    0    0  501    0 -0.00000000000E+00 -0.00000000000E+00 -0.15234492411E+03  0.15234492411E+03  0.00000000000E+00 0. -1.
         25    2    1    2    0    0 -0.39589952326E+02  0.36960923218E+02  0.13960543364E+03  0.19507629016E+03  0.12502642805E+03 0.  0.
          2    1    1    2  501    0  0.52508650924E+02 -0.58351599877E+02 -0.11214486871E+03  0.13688878409E+03  0.00000000000E+00 0. -1.
          1    1    1    2  502    0 -0.12918698598E+02  0.21390676659E+02  0.16845343978E+04  0.16847197367E+04  0.00000000000E+00 0. -1.
         22    1    3    3    0    0  0.85732249627E+00 -0.27464738220E+01 -0.22843023175E+02  0.23023505990E+02  0.00000000000E+00 0. -1.
         22    1    3    3    0    0 -0.40447274822E+02  0.39707397040E+02  0.16244845681E+03  0.17205278417E+03  0.00000000000E+00 0. -1.
</event>
<event>
 7    1  0.6235964E-006  0.1216181E+03  0.7818608E-02  0.1382455E+00
          2   -1    0    0  502    0  0.00000000000E+00  0.00000000000E+00  0.14917856563E+04  0.14917856563E+04  0.00000000000E+00 0. -1.
          1   -1    0    0  501    0 -0.00000000000E+00 -0.00000000000E+00 -0.12768743703E+04  0.12768743703E+04  0.00000000000E+00 0. -1.
         25    2    1    2    0    0  0.12086851841E+03 -0.57390224013E+02  0.27731666098E+03  0.33231348283E+03  0.12499953543E+03 0.  0.
          2    1    1    2  501    0 -0.26294845389E+01  0.33389733424E+02 -0.12460844644E+04  0.12465345085E+04  0.00000000000E+00 0. -1.
          1    1    1    2  502    0 -0.11823903387E+03  0.24000490588E+02  0.11836790893E+04  0.11898120353E+04  0.00000000000E+00 0. -1.
         22    1    3    3    0    0  0.91211114499E+02 -0.97295000621E+02  0.20436727708E+03  0.24403231035E+03  0.00000000000E+00 0. -1.
         22    1    3    3    0    0  0.29657403910E+02  0.39904776609E+02  0.72949383898E+02  0.88281172478E+02  0.00000000000E+00 0. -1.
</event>
<event>
 7    1  0.6235964E-006  0.3301534E+02  0.7818608E-02  0.1634167E+00
          2   -1    0    0  502    0  0.00000000000E+00  0.00000000000E+00  0.13956085931E+04  0.13956085931E+04  0.00000000000E+00 0. -1.
          1   -1    0    0  501    0 -0.00000000000E+00 -0.00000000000E+00 -0.50259180539E+02  0.50259180539E+02  0.00000000000E+00 0. -1.
         25    2    1    2    0    0  0.92534630000E+01 -0.44756960795E+02  0.15907620798E+03  0.20741078457E+03  0.12500072597E+03 0.  0.
          2    1    1    2  501    0 -0.20129730080E+02  0.25589657750E+02 -0.15794660031E+02  0.36187123432E+02  0.00000000000E+00 0. -1.
          1    1    1    2  502    0  0.10876267080E+02  0.19167303045E+02  0.12020678646E+04  0.12022698656E+04  0.00000000000E+00 0. -1.
         22    1    3    3    0    0 -0.32384370211E+02  0.27453325556E+02  0.24233587777E+02  0.48884550674E+02  0.00000000000E+00 0. -1.
         22    1    3    3    0    0  0.41637833211E+02 -0.72210286351E+02  0.13484262021E+03  0.15852623390E+03  0.00000000000E+00 0. -1.
</event>
<event>
 7    1  0.6235964E-006  0.1675537E+03  0.7818608E-02  0.1304633E+00
          2   -1    0    0  502    0  0.00000000000E+00  0.00000000000E+00  0.91847236788E+03  0.91847236788E+03  0.00000000000E+00 0. -1.
          1   -1    0    0  501    0 -0.00000000000E+00 -0.00000000000E+00 -0.31069334524E+04  0.31069334524E+04  0.00000000000E+00 0. -1.
         25    2    1    2    0    0 -0.13464636713E+03  0.15570424905E+03  0.20475310917E+02  0.24169754451E+03  0.12500002923E+03 0.  0.
          2    1    1    2  501    0  0.43916912327E+02 -0.18255220474E+02 -0.29875189307E+04  0.29878974730E+04  0.00000000000E+00 0. -1.
          1    1    1    2  502    0  0.90729454805E+02 -0.13744902858E+03  0.77858253528E+03  0.79581080269E+03  0.00000000000E+00 0. -1.
         22    1    3    3    0    0 -0.79216422722E+02  0.10190626550E+03  0.72999623109E+02  0.14828713211E+03  0.00000000000E+00 0.  1.
         22    1    3    3    0    0 -0.55429944410E+02  0.53797983559E+02 -0.52524312193E+02  0.93410412395E+02  0.00000000000E+00 0.  1.
</event>
<event>
 7    1  0.6235964E-006  0.4307534E+02  0.7818608E-02  0.1499425E+00
          2   -1    0    0  502    0  0.00000000000E+00  0.00000000000E+00  0.26974837396E+02  0.26974837396E+02  0.00000000000E+00 0. -1.
          1   -1    0    0  501    0 -0.00000000000E+00 -0.00000000000E+00 -0.12366057992E+04  0.12366057992E+04  0.00000000000E+00 0. -1.
         25    2    1    2    0    0  0.12296020331E+02  0.53251349670E+02 -0.41031997718E+03  0.43240598068E+03  0.12500220037E+03 0.  0.
          2    1    1    2  501    0  0.23381819002E+02 -0.36432266287E+02 -0.78929243672E+03  0.79047869684E+03  0.00000000000E+00 0. -1.
          1    1    1    2  502    0 -0.35677839334E+02 -0.16819083384E+02 -0.10018547938E+02  0.40695959114E+02  0.00000000000E+00 0. -1.
         22    1    3    3    0    0  0.41623189208E+02  0.78154959602E+02 -0.34864935892E+03  0.35971803272E+03  0.00000000000E+00 0.  1.
         22    1    3    3    0    0 -0.29327168877E+02 -0.24903609931E+02 -0.61670618260E+02  0.72687947959E+02  0.00000000000E+00 0.  1.
</event>
<event>
 7    1  0.6235964E-006  0.1765813E+03  0.7818608E-02  0.1309611E+00
          2   -1    0    0  502    0  0.00000000000E+00  0.00000000000E+00  0.14057684080E+03  0.14057684080E+03  0.00000000000E+00 0. -1.
          1   -1    0    0  501    0 -0.00000000000E+00 -0.00000000000E+00 -0.85072373939E+03  0.85072373939E+03  0.00000000000E+00 0. -1.
         25    2    1    2    0    0 -0.90722272170E+02 -0.10661871883E+03 -0.53486756066E+03  0.56683629752E+03  0.12498799488E+03 0.  0.
          2    1    1    2  501    0 -0.14868213819E+02 -0.40482666912E+02 -0.23101457035E+03  0.23500562082E+03  0.00000000000E+00 0. -1.
          1    1    1    2  502    0  0.10559048599E+03  0.14710138574E+03  0.55735232429E+02  0.18945866185E+03  0.00000000000E+00 0. -1.
         22    1    3    3    0    0  0.16758829292E+02 -0.66057111537E+02 -0.26315042261E+03  0.27183183269E+03  0.00000000000E+00 0.  1.
         22    1    3    3    0    0 -0.10748110146E+03 -0.40561607288E+02 -0.27171713805E+03  0.29500446483E+03  0.00000000000E+00 0.  1.
</event>
<event>
 7    1  0.6235964E-006  0.8903842E+02  0.7818608E-02  0.1383049E+00
          2   -1    0    0  502    0  0.00000000000E+00  0.00000000000E+00  0.22617562260E+03  0.22617562260E+03  0.00000000000E+00 0. -1.
          1   -1    0    0  501    0 -0.00000000000E+00 -0.00000000000E+00 -0.13403515680E+04  0.13403515680E+04  0.00000000000E+00 0. -1.
         25    2    1    2    0    0  0.47261306501E+02 -0.10217529343E+03 -0.22452724017E+03  0.28054880294E+03  0.12498690960E+03 0.  0.
          2    1    1    2  501    0 -0.64415027287E+02  0.60002280033E+02 -0.10833894340E+04  0.10869600890E+04  0.00000000000E+00 0. -1.
          1    1    1    2  502    0  0.17153720786E+02  0.42173013401E+02  0.19374072880E+03  0.19901829864E+03  0.00000000000E+00 0. -1.
         22    1    3    3    0    0  0.44944908018E+02 -0.52947074825E+02 -0.22041156725E+03  0.23109456174E+03  0.00000000000E+00 0.  1.
         22    1    3    3    0    0  0.23163984834E+01 -0.49228218609E+02 -0.41156729269E+01  0.49454241204E+02  0.00000000000E+00 0.  1.
</event>
<event>
 7    1  0.6235964E-006  0.1003917E+03  0.7818608E-02  0.1283570E+00
          2   -1    0    0  502    0  0.00000000000E+00  0.00000000000E+00  0.53487378903E+04  0.53487378903E+04  0.00000000000E+00 0. -1.
          1   -1    0    0  501    0 -0.00000000000E+00 -0.00000000000E+00 -0.18755338677E+02  0.18755338677E+02  0.00000000000E+00 0. -1.
         25    2    1    2    0    0 -0.23842836077E+02 -0.11758589077E+02  0.98617979136E+03  0.99442550446E+03  0.12499903113E+03 0.  0.
          2    1    1    2  501    0 -0.69805234040E+02  0.72150658048E+02  0.16751811152E+03  0.19529671232E+03  0.00000000000E+00 0. -1.
          1    1    1    2  502    0  0.93648070117E+02 -0.60392068971E+02  0.41762846488E+04  0.41777710122E+04  0.00000000000E+00 0. -1.
         22    1    3    3    0    0  0.13474623526E+02 -0.56454460855E+02  0.69881158798E+03  0.70121773161E+03  0.00000000000E+00 0.  1.
         22    1    3    3    0    0 -0.37317459603E+02  0.44695871778E+02  0.28736820338E+03  0.29320777285E+03  0.00000000000E+00 0.  1.
</event>
<event>
 7    1  0.6235964E-006  0.8342746E+02  0.7818608E-02  0.1435269E+00
          2   -1    0    0  502    0  0.00000000000E+00  0.00000000000E+00  0.14167465010E+03  0.14167465010E+03  0.00000000000E+00 0. -1.
          1   -1    0    0  501    0 -0.00000000000E+00 -0.00000000000E+00 -0.15022072907E+04  0.15022072907E+04  0.00000000000E+00 0. -1.
         25    2    1    2    0    0 -0.90403263189E+02  0.50790533469E+01  0.81976200874E+02  0.17476737246E+03  0.12499996076E+03 0.  0.
          2    1    1    2  501    0  0.76141634610E+02 -0.34068483708E+02 -0.14330152204E+04  0.14354409887E+04  0.00000000000E+00 0. -1.
          1    1    1    2  502    0  0.14261628578E+02  0.28989430361E+02 -0.94936210277E+01  0.33673579593E+02  0.00000000000E+00 0. -1.
         22    1    3    3    0    0  0.21999220344E+02  0.28109478308E+02  0.37330995791E+02  0.51649895578E+02  0.00000000000E+00 0. -1.
         22    1    3    3    0    0 -0.11240248353E+03 -0.23030424961E+02  0.44645205082E+02  0.12311747689E+03  0.00000000000E+00 0. -1.
</event>
<event>
 7    1  0.6235964E-006  0.4792124E+02  0.7818608E-02  0.1504510E+00
          2   -1    0    0  502    0  0.00000000000E+00  0.00000000000E+00  0.26140174342E+04  0.26140174342E+04  0.00000000000E+00 0. -1.
          1   -1    0    0  501    0 -0.00000000000E+00 -0.00000000000E+00 -0.10722853503E+02  0.10722853503E+02  0.00000000000E+00 0. -1.
         25    2    1    2    0    0  0.64032566266E+02  0.81865001541E+00  0.11089201828E+04  0.11177789567E+04  0.12499993791E+03 0.  0.
          2    1    1    2  501    0 -0.23417449927E+02 -0.24980956479E+02  0.43697385597E+02  0.55514742688E+02  0.00000000000E+00 0. -1.
          1    1    1    2  502    0 -0.40615116339E+02  0.24162306463E+02  0.14506770123E+04  0.14514465883E+04  0.00000000000E+00 0. -1.
         22    1    3    3    0    0  0.54394692974E+02 -0.14423486389E+02  0.10906740604E+04  0.10921248672E+04  0.00000000000E+00 0. -1.
         22    1    3    3    0    0  0.96378732916E+01  0.15242136405E+02  0.18246122393E+02  0.25654089463E+02  0.00000000000E+00 0. -1.
</event>
<event>
 7    1  0.6235964E-006  0.1045501E+03  0.7818608E-02  0.1285224E+00
          2   -1    0    0  502    0  0.00000000000E+00  0.00000000000E+00  0.28059919696E+03  0.28059919696E+03  0.00000000000E+00 0. -1.
          1   -1    0    0  501    0 -0.00000000000E+00 -0.00000000000E+00 -0.12355801166E+04  0.12355801166E+04  0.00000000000E+00 0. -1.
         25    2    1    2    0    0 -0.83004315626E+02  0.47386945308E+02 -0.59884155675E+03  0.61917031226E+03  0.12500170599E+03 0.  0.
          2    1    1    2  501    0 -0.31299426154E+01 -0.10664578506E+03 -0.61167631588E+03  0.62091145538E+03  0.00000000000E+00 0. -1.
          1    1    1    2  502    0  0.86134258241E+02  0.59258839753E+02  0.25553695298E+03  0.27609754593E+03  0.00000000000E+00 0. -1.
         22    1    3    3    0    0 -0.10093701522E+03  0.64495393356E+02 -0.36804035609E+03  0.38704216891E+03  0.00000000000E+00 0.  1.
         22    1    3    3    0    0  0.17932699598E+02 -0.17108448048E+02 -0.23080120066E+03  0.23212814335E+03  0.00000000000E+00 0.  1.
</event>
<event>
 7    1  0.6235964E-006  0.4634409E+02  0.7818608E-02  0.1532303E+00
          2   -1    0    0  502    0  0.00000000000E+00  0.00000000000E+00  0.50825814025E+03  0.50825814025E+03  0.00000000000E+00 0. -1.
          1   -1    0    0  501    0 -0.00000000000E+00 -0.00000000000E+00 -0.10349816706E+04  0.10349816706E+04  0.00000000000E+00 0. -1.
         25    2    1    2    0    0  0.51111195194E+02  0.55315147166E+02 -0.21801610506E+02  0.14756651743E+03  0.12501378750E+03 0.  0.
          2    1    1    2  501    0 -0.19413497178E+02 -0.22064182925E+02 -0.94888489455E+03  0.94933990496E+03  0.00000000000E+00 0. -1.
          1    1    1    2  502    0 -0.31697698017E+02 -0.33250964241E+02  0.44396297474E+03  0.44633338843E+03  0.00000000000E+00 0. -1.
         22    1    3    3    0    0 -0.41918525408E+02  0.14596202637E+02 -0.73973161603E+01  0.44999246552E+02  0.00000000000E+00 0.  1.
         22    1    3    3    0    0  0.93029720603E+02  0.40718944529E+02 -0.14404294346E+02  0.10256727087E+03  0.00000000000E+00 0.  1.
</event>
<event>
 7    1  0.6235964E-006  0.7674831E+02  0.7818608E-02  0.1377062E+00
          2   -1    0    0  502    0  0.00000000000E+00  0.00000000000E+00  0.15711702918E+03  0.15711702918E+03  0.00000000000E+00 0. -1.
          1   -1    0    0  501    0 -0.00000000000E+00 -0.00000000000E+00 -0.16022781317E+04  0.16022781317E+04  0.00000000000E+00 0. -1.
         25    2    1    2    0    0 -0.21331087570E+02  0.27460335474E+02 -0.62397714242E+03  0.63732366573E+03  0.12499958125E+03 0.  0.
          2    1    1    2  501    0  0.48003552526E+02 -0.76086793600E+02 -0.96435048515E+03  0.96853776356E+03  0.00000000000E+00 0. -1.
          1    1    1    2  502    0 -0.26672464956E+02  0.48626458125E+02  0.14316652510E+03  0.15353373155E+03  0.00000000000E+00 0. -1.
         22    1    3    3    0    0  0.13054973053E+02  0.71550974150E+02 -0.31103813080E+03  0.31942869788E+03  0.00000000000E+00 0. -1.
         22    1    3    3    0    0 -0.34386060623E+02 -0.44090638676E+02 -0.31293901162E+03  0.31789496784E+03  0.00000000000E+00 0. -1.
</event>
<event>
 7    1  0.6235964E-006  0.9157938E+02  0.7818608E-02  0.1402600E+00
          2   -1    0    0  502    0  0.00000000000E+00  0.00000000000E+00  0.13887938646E+03  0.13887938646E+03  0.00000000000E+00 0. -1.
          1   -1    0    0  501    0 -0.00000000000E+00 -0.00000000000E+00 -0.14997710722E+04  0.14997710722E+04  0.00000000000E+00 0. -1.
         25    2    1    2    0    0  0.11491951698E+03 -0.15285810324E+02 -0.24959780530E+03  0.30226535708E+03  0.12500052118E+03 0.  0.
          2    1    1    2  501    0 -0.89394367935E+02 -0.12667591357E+02 -0.12189389486E+04  0.12222781930E+04  0.00000000000E+00 0. -1.
          1    1    1    2  502    0 -0.25525149043E+02  0.27953401680E+02  0.10764506809E+03  0.11410690857E+03  0.00000000000E+00 0. -1.
         22    1    3    3    0    0 -0.78392010934E+01 -0.42864360793E+02 -0.79938325837E+02  0.91043629308E+02  0.00000000000E+00 0.  1.
         22    1    3    3    0    0  0.12275871807E+03  0.27578550469E+02 -0.16965947947E+03  0.21122172777E+03  0.00000000000E+00 0.  1.
</event>
<event>
 7    1  0.6235964E-006  0.4962288E+02  0.7818608E-02  0.1502371E+00
          2   -1    0    0  502    0  0.00000000000E+00  0.00000000000E+00  0.69565981854E+02  0.69565981854E+02  0.00000000000E+00 0. -1.
          1   -1    0    0  501    0 -0.00000000000E+00 -0.00000000000E+00 -0.46348555149E+03  0.46348555149E+03  0.00000000000E+00 0. -1.
         25    2    1    2    0    0  0.23412831928E+02  0.70654521638E+01 -0.24785595212E+03  0.27866826818E+03  0.12500139751E+03 0.  0.
          2    1    1    2  501    0 -0.56513627395E+02 -0.15709997493E+01 -0.19049403020E+03  0.19870640066E+03  0.00000000000E+00 0. -1.
          1    1    1    2  502    0  0.33100795467E+02 -0.54944524145E+01  0.44430412690E+02  0.55676864492E+02  0.00000000000E+00 0. -1.
         22    1    3    3    0    0 -0.20905253846E+01  0.40770160374E+02 -0.17414694391E+02  0.44382968063E+02  0.00000000000E+00 0. -1.
         22    1    3    3    0    0  0.25503357313E+02 -0.33704708210E+02 -0.23044125773E+03  0.23428530012E+03  0.00000000000E+00 0. -1.
</event>
<event>
 7    1  0.6235964E-006  0.6640102E+02  0.7818608E-02  0.1392261E+00
          2   -1    0    0  502    0  0.00000000000E+00  0.00000000000E+00  0.74290587301E+03  0.74290587301E+03  0.00000000000E+00 0. -1.
          1   -1    0    0  501    0 -0.00000000000E+00 -0.00000000000E+00 -0.13041425648E+03  0.13041425648E+03  0.00000000000E+00 0. -1.
         25    2    1    2    0    0  0.24027215673E+02 -0.54278222349E+00  0.23240416772E+03  0.26497528864E+03  0.12499041847E+03 0.  0.
          2    1    1    2  501    0  0.37776468725E+02  0.42254902218E+02 -0.10405709955E+03  0.11849227113E+03  0.00000000000E+00 0. -1.
          1    1    1    2  502    0 -0.61803684398E+02 -0.41712119995E+02  0.48414454835E+03  0.48985256972E+03  0.00000000000E+00 0. -1.
         22    1    3    3    0    0  0.37687389933E+02 -0.13060686203E+02  0.91096836460E+01  0.40913411251E+02  0.00000000000E+00 0.  1.
         22    1    3    3    0    0 -0.13660174260E+02  0.12517903980E+02  0.22329448408E+03  0.22406187739E+03  0.00000000000E+00 0.  1.
</event>
<event>
 7    1  0.6235964E-006  0.4392534E+02  0.7818608E-02  0.1492212E+00
          2   -1    0    0  502    0  0.00000000000E+00  0.00000000000E+00  0.10926540634E+04  0.10926540634E+04  0.00000000000E+00 0. -1.
          1   -1    0    0  501    0 -0.00000000000E+00 -0.00000000000E+00 -0.81962087748E+02  0.81962087748E+02  0.00000000000E+00 0. -1.
         25    2    1    2    0    0 -0.12066239549E+02  0.17375280244E+02  0.83518260150E+02  0.15181483844E+03  0.12499980357E+03 0.  0.
          2    1    1    2  501    0  0.47082559318E+02  0.32853303199E+01 -0.35632261320E+02  0.59137288017E+02  0.00000000000E+00 0. -1.
          1    1    1    2  502    0 -0.35016319769E+02 -0.20660610564E+02  0.96280597686E+03  0.96366402473E+03  0.00000000000E+00 0. -1.
         22    1    3    3    0    0  0.23963519985E+01  0.65567935624E+02  0.15866055996E+02  0.67502803036E+02  0.00000000000E+00 0. -1.
         22    1    3    3    0    0 -0.14462591547E+02 -0.48192655380E+02  0.67652204154E+02  0.84312035403E+02  0.00000000000E+00 0. -1.
</event>
<event>
 7    1  0.6235964E-006  0.8642281E+02  0.7818608E-02  0.1324278E+00
          2   -1    0    0  502    0  0.00000000000E+00  0.00000000000E+00  0.82027147037E+03  0.82027147037E+03  0.00000000000E+00 0. -1.
          1   -1    0    0  501    0 -0.00000000000E+00 -0.00000000000E+00 -0.17485311374E+04  0.17485311374E+04  0.00000000000E+00 0. -1.
         25    2    1    2    0    0  0.11291036161E+03  0.29112778857E+02  0.41341542730E+02  0.17586970614E+03  0.12499890691E+03 0.  0.
          2    1    1    2  501    0 -0.48390344524E+02 -0.71589228461E+02 -0.16780559510E+04  0.16802792678E+04  0.00000000000E+00 0. -1.
          1    1    1    2  502    0 -0.64520017090E+02  0.42476449604E+02  0.70845474126E+03  0.71265363382E+03  0.00000000000E+00 0. -1.
         22    1    3    3    0    0  0.41442253398E+02  0.67135754737E+02  0.51595404512E+02  0.94269590524E+02  0.00000000000E+00 0. -1.
         22    1    3    3    0    0  0.71468108215E+02 -0.38022975880E+02 -0.10253861782E+02  0.81600115613E+02  0.00000000000E+00 0. -1.
</event>
<event>
 7    1  0.6235964E-006  0.2789897E+02  0.7818608E-02  0.1622890E+00
          2   -1    0    0  502    0  0.00000000000E+00  0.00000000000E+00  0.90687651084E+03  0.90687651084E+03  0.00000000000E+00 0. -1.
          1   -1    0    0  501    0 -0.00000000000E+00 -0.00000000000E+00 -0.68887511142E+02  0.68887511142E+02  0.00000000000E+00 0. -1.
         25    2    1    2    0    0 -0.14236823672E+02  0.13946385060E+02  0.10213166967E+03  0.16264211046E+03  0.12499755734E+03 0.  0.
          2    1    1    2  501    0  0.25279792005E+02  0.11801885492E+02 -0.33306852281E+02  0.43447655793E+02  0.00000000000E+00 0. -1.
          1    1    1    2  502    0 -0.11042968333E+02 -0.25748270552E+02  0.76916418230E+03  0.76967425572E+03  0.00000000000E+00 0. -1.
         22    1    3    3    0    0 -0.15120005075E+01 -0.54663430718E+02  0.30388848121E+02  0.62560841535E+02  0.00000000000E+00 0. -1.
         22    1    3    3    0    0 -0.12724823164E+02  0.68609815778E+02  0.71742821551E+02  0.10008126893E+03  0.00000000000E+00 0. -1.
</event>
<event>
 7    1  0.6235964E-006  0.3630254E+02  0.7818608E-02  0.1601289E+00
          2   -1    0    0  502    0  0.00000000000E+00  0.00000000000E+00  0.33882020115E+02  0.33882020115E+02  0.00000000000E+00 0. -1.
          1   -1    0    0  501    0 -0.00000000000E+00 -0.00000000000E+00 -0.13153337838E+04  0.13153337838E+04  0.00000000000E+00 0. -1.
         25    2    1    2    0    0  0.15226280662E+02 -0.25776350973E+01 -0.49914797306E+03  0.51479351067E+03  0.12500070320E+03 0.  0.
          2    1    1    2  501    0 -0.36321406313E+02 -0.95217449662E+01 -0.80215301066E+03  0.80303135723E+03  0.00000000000E+00 0. -1.
          1    1    1    2  502    0  0.21095125651E+02  0.12099380063E+02  0.19849220067E+02  0.31390935975E+02  0.00000000000E+00 0. -1.
         22    1    3    3    0    0 -0.35462354935E+02 -0.41249208262E+02 -0.32109141038E+03  0.32566665414E+03  0.00000000000E+00 0. -1.
         22    1    3    3    0    0  0.50688635596E+02  0.38671573165E+02 -0.17805656267E+03  0.18912685653E+03  0.00000000000E+00 0. -1.
</event>
<event>
 7    1  0.6235964E-006  0.4151875E+02  0.7818608E-02  0.1600613E+00
          2   -1    0    0  502    0  0.00000000000E+00  0.00000000000E+00  0.71689120741E+03  0.71689120741E+03  0.00000000000E+00 0. -1.
          1   -1    0    0  501    0 -0.00000000000E+00 -0.00000000000E+00 -0.28451943339E+03  0.28451943339E+03  0.00000000000E+00 0. -1.
         25    2    1    2    0    0 -0.47220929991E+02  0.35090825467E+02  0.28312274468E+03  0.31503143221E+03  0.12500052985E+03 0.  0.
          2    1    1    2  501    0  0.20924062155E+02 -0.42429266173E+01 -0.26715505309E+03  0.26800679318E+03  0.00000000000E+00 0. -1.
          1    1    1    2  502    0  0.26296867836E+02 -0.30847898850E+02  0.41640408242E+03  0.41837241541E+03  0.00000000000E+00 0. -1.
         22    1    3    3    0    0 -0.38389691535E+02 -0.31999204664E+02  0.20802274842E+03  0.21394200470E+03  0.00000000000E+00 0. -1.
         22    1    3    3    0    0 -0.88312384556E+01  0.67090030132E+02  0.75099996267E+02  0.10108942751E+03  0.00000000000E+00 0. -1.
</event>
<event>
 7    1  0.6235964E-006  0.1143530E+03  0.7818608E-02  0.1342607E+00
          2   -1    0    0  502    0  0.00000000000E+00  0.00000000000E+00  0.20603338941E+03  0.20603338941E+03  0.00000000000E+00 0. -1.
          1   -1    0    0  501    0 -0.00000000000E+00 -0.00000000000E+00 -0.12592937600E+04  0.12592937600E+04  0.00000000000E+00 0. -1.
         25    2    1    2    0    0 -0.64818979471E+02 -0.28607717802E+02 -0.13627639490E+03  0.19803045109E+03  0.12499960854E+03 0.  0.
          2    1    1    2  501    0  0.10137529801E+03  0.62320988535E+02 -0.10852916820E+04  0.10917961768E+04  0.00000000000E+00 0. -1.
          1    1    1    2  502    0 -0.36556318544E+02 -0.33713270733E+02  0.16830770631E+03  0.17550052151E+03  0.00000000000E+00 0. -1.
         22    1    3    3    0    0 -0.82638619647E+02  0.25111705341E+02 -0.91840579699E+02  0.12607311879E+03  0.00000000000E+00 0. -1.
         22    1    3    3    0    0  0.17819640176E+02 -0.53719423143E+02 -0.44435815203E+02  0.71957332299E+02  0.00000000000E+00 0. -1.
</event>
<event>
 7    1  0.6235964E-006  0.6728809E+02  0.7818608E-02  0.1515111E+00
          2   -1    0    0  502    0  0.00000000000E+00  0.00000000000E+00  0.10430458838E+04  0.10430458838E+04  0.00000000000E+00 0. -1.
          1   -1    0    0  501    0 -0.00000000000E+00 -0.00000000000E+00 -0.20456345797E+03  0.20456345797E+03  0.00000000000E+00 0. -1.
         25    2    1    2    0    0 -0.57041502970E+02  0.64694440265E+02  0.33971980164E+03  0.37212166150E+03  0.12500353463E+03 0.  0.
          2    1    1    2  501    0  0.35842667456E+02 -0.56592468565E+02 -0.18221171027E+03  0.19413529217E+03  0.00000000000E+00 0. -1.
          1    1    1    2  502    0  0.21198835514E+02 -0.81019717009E+01  0.68097433446E+03  0.68135238810E+03  0.00000000000E+00 0. -1.
         22    1    3    3    0    0 -0.74907617784E+02 -0.79694212761E+01  0.19828350837E+03  0.21211084972E+03  0.00000000000E+00 0. -1.
         22    1    3    3    0    0  0.17866114814E+02  0.72663861542E+02  0.14143629326E+03  0.16001081178E+03  0.00000000000E+00 0. -1.
</event>
<event>
 7    1  0.6235964E-006  0.6756789E+02  0.7818608E-02  0.1383911E+00
          2   -1    0    0  502    0  0.00000000000E+00  0.00000000000E+00  0.89334923348E+03  0.89334923348E+03  0.00000000000E+00 0. -1.
          1   -1    0    0  501    0 -0.00000000000E+00 -0.00000000000E+00 -0.91615282795E+03  0.91615282795E+03  0.00000000000E+00 0. -1.
         25    2    1    2    0    0  0.10287875529E+03  0.11924619007E+02  0.11271601434E+03  0.19762788930E+03  0.12500259161E+03 0.  0.
          2    1    1    2  501    0 -0.60422924158E+02  0.29871976793E+02 -0.87119086031E+03  0.87379447231E+03  0.00000000000E+00 0. -1.
          1    1    1    2  502    0 -0.42455831135E+02 -0.41796595800E+02  0.73567125149E+03  0.73807969983E+03  0.00000000000E+00 0. -1.
         22    1    3    3    0    0 -0.42415994923E+01  0.54599230667E+01 -0.23340037782E+02  0.24342540742E+02  0.00000000000E+00 0. -1.
         22    1    3    3    0    0  0.10712035479E+03  0.64646959402E+01  0.13605605213E+03  0.17328534855E+03  0.00000000000E+00 0. -1.
</event>
<event>
 7    1  0.6235964E-006  0.1124114E+03  0.7818608E-02  0.1320080E+00
          2   -1    0    0  502    0  0.00000000000E+00  0.00000000000E+00  0.72837921417E+03  0.72837921417E+03  0.00000000000E+00 0. -1.
          1   -1    0    0  501    0 -0.00000000000E+00 -0.00000000000E+00 -0.12406108072E+04  0.12406108072E+04  0.00000000000E+00 0. -1.
         25    2    1    2    0    0  0.10813937038E+03  0.91706843176E+02  0.64288682370E+01  0.18914062952E+03  0.12501431468E+03 0.  0.
          2    1    1    2  501    0 -0.47267998343E+02 -0.10147324685E+03 -0.11450120721E+04  0.11504710899E+04  0.00000000000E+00 0. -1.
          1    1    1    2  502    0 -0.60871372038E+02  0.97664036755E+01  0.62635161083E+03  0.62937830194E+03  0.00000000000E+00 0. -1.
         22    1    3    3    0    0 -0.13959457730E+02  0.23844710530E+02 -0.33910881677E+02  0.43742251617E+02  0.00000000000E+00 0. -1.
         22    1    3    3    0    0  0.12209882811E+03  0.67862132646E+02  0.40339749914E+02  0.14539837790E+03  0.00000000000E+00 0. -1.
</event>
<event>
 7    1  0.6235964E-006  0.4237893E+02  0.7818608E-02  0.1520906E+00
          2   -1    0    0  502    0  0.00000000000E+00  0.00000000000E+00  0.29413714944E+03  0.29413714944E+03  0.00000000000E+00 0. -1.
          1   -1    0    0  501    0 -0.00000000000E+00 -0.00000000000E+00 -0.71712602253E+03  0.71712602253E+03  0.00000000000E+00 0. -1.
         25    2    1    2    0    0 -0.17298757890E+02 -0.58770625749E+02  0.66573374785E+01  0.13936524238E+03  0.12500046866E+03 0.  0.
          2    1    1    2  501    0  0.32165958271E+02  0.27460694083E+02 -0.64872101088E+03  0.65009821454E+03  0.00000000000E+00 0. -1.
          1    1    1    2  502    0 -0.14867200381E+02  0.31309931665E+02  0.21907480031E+03  0.22179971506E+03  0.00000000000E+00 0. -1.
         22    1    3    3    0    0  0.26421143345E+02 -0.84439197329E+02  0.28012704730E+01  0.88520630237E+02  0.00000000000E+00 0.  1.
         22    1    3    3    0    0 -0.43719901235E+02  0.25668571580E+02  0.38560670055E+01  0.50844612141E+02  0.00000000000E+00 0.  1.
</event>
<event>
 7    1  0.6235964E-006  0.9724287E+02  0.7818608E-02  0.1394397E+00
          2   -1    0    0  502    0  0.00000000000E+00  0.00000000000E+00  0.21218183455E+03  0.21218183455E+03  0.00000000000E+00 0. -1.
          1   -1    0    0  501    0 -0.00000000000E+00 -0.00000000000E+00 -0.24201637735E+04  0.24201637735E+04  0.00000000000E+00 0. -1.
         25    2    1    2    0    0 -0.54717681340E+02  0.36357108060E+02 -0.74012930247E+03  0.75348499400E+03  0.12502954793E+03 0.  0.
          2    1    1    2  501    0 -0.10351985366E+02  0.36611741567E+02 -0.16614983673E+04  0.16619339361E+04  0.00000000000E+00 0. -1.
          1    1    1    2  502    0  0.65069666706E+02 -0.72968849627E+02  0.19364573085E+03  0.21692667797E+03  0.00000000000E+00 0. -1.
         22    1    3    3    0    0 -0.59905174655E+02 -0.33598243590E+02 -0.43554843946E+03  0.44093073724E+03  0.00000000000E+00 0.  1.
         22    1    3    3    0    0  0.51874933156E+01  0.69955351651E+02 -0.30458086300E+03  0.31255425676E+03  0.00000000000E+00 0.  1.
</event>
<event>
 7    1  0.6235964E-006  0.4730673E+02  0.7818608E-02  0.1551834E+00
          2   -1    0    0  502    0  0.00000000000E+00  0.00000000000E+00  0.20529785945E+04  0.20529785945E+04  0.00000000000E+00 0. -1.
          1   -1    0    0  501    0 -0.00000000000E+00 -0.00000000000E+00 -0.15902560770E+04  0.15902560770E+04  0.00000000000E+00 0. -1.
         25    2    1    2    0    0 -0.38436154662E+02 -0.43582617620E+02  0.97217093476E+03  0.98189517555E+03  0.12500010736E+03 0.  0.
          2    1    1    2  501    0  0.13141741875E+02  0.45442731001E+02 -0.15848915394E+04  0.15855973445E+04  0.00000000000E+00 0. -1.
          1    1    1    2  502    0  0.25294412787E+02 -0.18601133809E+01  0.10754431222E+04  0.10757421514E+04  0.00000000000E+00 0. -1.
         22    1    3    3    0    0 -0.78635779531E+02 -0.28507951554E+02  0.43215290815E+03  0.44017317632E+03  0.00000000000E+00 0. -1.
         22    1    3    3    0    0  0.40199624869E+02 -0.15074666065E+02  0.54001802661E+03  0.54172199924E+03  0.00000000000E+00 0. -1.
</event>
<event>
 7    1  0.6235964E-006  0.9635479E+02  0.7818608E-02  0.1314754E+00
          2   -1    0    0  502    0  0.00000000000E+00  0.00000000000E+00  0.65154564570E+03  0.65154564570E+03  0.00000000000E+00 0. -1.
          1   -1    0    0  501    0 -0.00000000000E+00 -0.00000000000E+00 -0.48770172554E+03  0.48770172554E+03  0.00000000000E+00 0. -1.
         25    2    1    2    0    0  0.10858263213E+03  0.12633271056E+03  0.12867075908E+03  0.24480816839E+03  0.12499893325E+03 0.  0.
          2    1    1    2  501    0 -0.48028575010E+02 -0.81335284745E+02 -0.42130750631E+03  0.43176635746E+03  0.00000000000E+00 0. -1.
          1    1    1    2  502    0 -0.60554057115E+02 -0.44997425816E+02  0.45648066739E+03  0.46267284539E+03  0.00000000000E+00 0. -1.
         22    1    3    3    0    0  0.10465205966E+03  0.15075948028E+03  0.11296144180E+03  0.21550118751E+03  0.00000000000E+00 0.  1.
         22    1    3    3    0    0  0.39305724655E+01 -0.24426769721E+02  0.15709317271E+02  0.29306980875E+02  0.00000000000E+00 0.  1.
</event>
<event>
 7    1  0.6235964E-006  0.5847364E+02  0.7818608E-02  0.1442986E+00
          2   -1    0    0  502    0  0.00000000000E+00  0.00000000000E+00  0.23270473673E+04  0.23270473673E+04  0.00000000000E+00 0. -1.
          1   -1    0    0  501    0 -0.00000000000E+00 -0.00000000000E+00 -0.15975771872E+04  0.15975771872E+04  0.00000000000E+00 0. -1.
         25    2    1    2    0    0  0.40062109565E+01 -0.55572486902E+02  0.25881476273E+03  0.29276961444E+03  0.12499845881E+03 0.  0.
          2    1    1    2  501    0 -0.42179417371E+02  0.10673944413E+02 -0.15798769157E+04  0.15804759109E+04  0.00000000000E+00 0. -1.
          1    1    1    2  502    0  0.38173206414E+02  0.44898542489E+02  0.20505323329E+04  0.20513790292E+04  0.00000000000E+00 0. -1.
         22    1    3    3    0    0 -0.19263701510E+02  0.12020867288E+01  0.21850300511E+03  0.21935382023E+03  0.00000000000E+00 0. -1.
         22    1    3    3    0    0  0.23269912467E+02 -0.56774573630E+02  0.40311757627E+02  0.73415794214E+02  0.00000000000E+00 0. -1.
</event>
<event>
 7    1  0.6235964E-006  0.2040082E+03  0.7818608E-02  0.1324644E+00
          2   -1    0    0  502    0  0.00000000000E+00  0.00000000000E+00  0.50896424573E+03  0.50896424573E+03  0.00000000000E+00 0. -1.
          1   -1    0    0  501    0 -0.00000000000E+00 -0.00000000000E+00 -0.12980846423E+04  0.12980846423E+04  0.00000000000E+00 0. -1.
         25    2    1    2    0    0 -0.75453022040E+02  0.20667554233E+03  0.27606951724E+03  0.37449621591E+03  0.12500039620E+03 0.  0.
          2    1    1    2  501    0  0.17714458750E+02 -0.27388201047E+02 -0.12003044261E+04  0.12007475300E+04  0.00000000000E+00 0. -1.
          1    1    1    2  502    0  0.57738563290E+02 -0.17928734128E+03  0.13511451232E+03  0.23180514203E+03  0.00000000000E+00 0. -1.
         22    1    3    3    0    0 -0.81252977791E+02  0.10485494162E+03  0.22314376317E+03  0.25959534708E+03  0.00000000000E+00 0.  1.
         22    1    3    3    0    0  0.57999557511E+01  0.10182060070E+03  0.52925754072E+02  0.11490086883E+03  0.00000000000E+00 0.  1.
</event>
<event>
 7    1  0.6235964E-006  0.3656303E+03  0.7818608E-02  0.1249912E+00
          2   -1    0    0  502    0  0.00000000000E+00  0.00000000000E+00  0.78319028304E+03  0.78319028304E+03  0.00000000000E+00 0. -1.
          1   -1    0    0  501    0 -0.00000000000E+00 -0.00000000000E+00 -0.18240568594E+04  0.18240568594E+04  0.00000000000E+00 0. -1.
         25    2    1    2    0    0 -0.34066272613E+03  0.43793357793E+01 -0.50092034966E+02  0.36633955800E+03  0.12500075294E+03 0.  0.
          2    1    1    2  501    0  0.36852061248E+03  0.19631743736E+02 -0.15942023893E+04  0.16363600170E+04  0.00000000000E+00 0. -1.
          1    1    1    2  502    0 -0.27857886349E+02 -0.24011079515E+02  0.60342784786E+03  0.60454756748E+03  0.00000000000E+00 0. -1.
         22    1    3    3    0    0 -0.13436985969E+03 -0.28600550356E+02  0.33365802498E+02  0.14137371556E+03  0.00000000000E+00 0. -1.
         22    1    3    3    0    0 -0.20629286644E+03  0.32979886135E+02 -0.83457837465E+02  0.22496584244E+03  0.00000000000E+00 0. -1.
</event>
<event>
 7    1  0.6235964E-006  0.1175864E+03  0.7818608E-02  0.1292768E+00
          2   -1    0    0  502    0  0.00000000000E+00  0.00000000000E+00  0.28367457666E+03  0.28367457666E+03  0.00000000000E+00 0. -1.
          1   -1    0    0  501    0 -0.00000000000E+00 -0.00000000000E+00 -0.27905143247E+03  0.27905143247E+03  0.00000000000E+00 0. -1.
         25    2    1    2    0    0 -0.13991277426E+03 -0.80101585120E+02  0.39036466179E+02  0.20770654032E+03  0.12500525132E+03 0.  0.
          2    1    1    2  501    0  0.11282930697E+03  0.94978712280E+01 -0.16736390504E+03  0.20206765891E+03  0.00000000000E+00 0. -1.
          1    1    1    2  502    0  0.27083467292E+02  0.70603713892E+02  0.13295058306E+03  0.15295180990E+03  0.00000000000E+00 0. -1.
         22    1    3    3    0    0 -0.12366967454E+03 -0.10247602825E+03  0.61601799036E+02  0.17201833161E+03  0.00000000000E+00 0.  1.
         22    1    3    3    0    0 -0.16243099727E+02  0.22374443126E+02 -0.22565332858E+02  0.35688208710E+02  0.00000000000E+00 0.  1.
</event>
<event>
 7    1  0.6235964E-006  0.6071851E+02  0.7818608E-02  0.1442802E+00
          2   -1    0    0  502    0  0.00000000000E+00  0.00000000000E+00  0.19055429434E+03  0.19055429434E+03  0.00000000000E+00 0. -1.
          1   -1    0    0  501    0 -0.00000000000E+00 -0.00000000000E+00 -0.31772905805E+03  0.31772905805E+03  0.00000000000E+00 0. -1.
         25    2    1    2    0    0 -0.39324441565E+02  0.29991796714E+02 -0.41410768068E+02  0.14069483012E+03  0.12503705025E+03 0.  0.
          2    1    1    2  501    0 -0.22987438819E+02 -0.35100367357E+02 -0.21763750099E+03  0.22164507657E+03  0.00000000000E+00 0. -1.
          1    1    1    2  502    0  0.62311880384E+02  0.51085706429E+01  0.13187350535E+03  0.14594344570E+03  0.00000000000E+00 0. -1.
         22    1    3    3    0    0 -0.70174044597E+02 -0.19705541202E+02 -0.79855405321E+01  0.73324441674E+02  0.00000000000E+00 0.  1.
         22    1    3    3    0    0  0.30849603033E+02  0.49697337916E+02 -0.33425227536E+02  0.67370388444E+02  0.00000000000E+00 0.  1.
</event>
<event>
 7    1  0.6235964E-006  0.1572027E+03  0.7818608E-02  0.1313125E+00
          2   -1    0    0  502    0  0.00000000000E+00  0.00000000000E+00  0.56565321016E+03  0.56565321016E+03  0.00000000000E+00 0. -1.
          1   -1    0    0  501    0 -0.00000000000E+00 -0.00000000000E+00 -0.32736535009E+03  0.32736535009E+03  0.00000000000E+00 0. -1.
         25    2    1    2    0    0  0.18248819379E+03 -0.26310783657E+02  0.29889872524E+03  0.37277257583E+03  0.12499898851E+03 0.  0.
          2    1    1    2  501    0 -0.45806709337E+02 -0.10186763526E+02 -0.26641030574E+03  0.27051150766E+03  0.00000000000E+00 0. -1.
          1    1    1    2  502    0 -0.13668148446E+03  0.36497547183E+02  0.20579944057E+03  0.24973447676E+03  0.00000000000E+00 0. -1.
         22    1    3    3    0    0  0.13862101281E+03  0.54506481401E+01  0.11233435211E+03  0.17850630639E+03  0.00000000000E+00 0. -1.
         22    1    3    3    0    0  0.43867180978E+02 -0.31761431797E+02  0.18656437314E+03  0.19426626944E+03  0.00000000000E+00 0. -1.
</event>
<event>
 7    1  0.6235964E-006  0.6848075E+02  0.7818608E-02  0.1516364E+00
          2   -1    0    0  502    0  0.00000000000E+00  0.00000000000E+00  0.68358833736E+03  0.68358833736E+03  0.00000000000E+00 0. -1.
          1   -1    0    0  501    0 -0.00000000000E+00 -0.00000000000E+00 -0.68886172426E+03  0.68886172426E+03  0.00000000000E+00 0. -1.
         25    2    1    2    0    0  0.63024234616E+02 -0.10999418264E+02  0.25586026511E+03  0.29186233611E+03  0.12500442644E+03 0.  0.
          2    1    1    2  501    0 -0.60107592283E+02  0.32918254789E+02 -0.66881010244E+03  0.67231204606E+03  0.00000000000E+00 0. -1.
          1    1    1    2  502    0 -0.29166423321E+01 -0.21918836525E+02  0.40767645043E+03  0.40827567946E+03  0.00000000000E+00 0. -1.
         22    1    3    3    0    0 -0.20717996919E+02 -0.44478548337E+02  0.10876625416E+03  0.11932172770E+03  0.00000000000E+00 0. -1.
         22    1    3    3    0    0  0.83742231535E+02  0.33479130072E+02  0.14709401095E+03  0.17254060841E+03  0.00000000000E+00 0. -1.
</event>
<event>
 7    1  0.6235964E-006  0.8798646E+02  0.7818608E-02  0.1443312E+00
          2   -1    0    0  502    0  0.00000000000E+00  0.00000000000E+00  0.23007341135E+04  0.23007341135E+04  0.00000000000E+00 0. -1.
          1   -1    0    0  501    0 -0.00000000000E+00 -0.00000000000E+00 -0.41224444488E+02  0.41224444488E+02  0.00000000000E+00 0. -1.
         25    2    1    2    0    0 -0.63908054552E+02 -0.18059469596E+02  0.79268462401E+03  0.80522431542E+03  0.12500760426E+03 0.  0.
          2    1    1    2  501    0  0.78802653298E+02  0.42761314799E+02  0.22918979161E+02  0.92540087616E+02  0.00000000000E+00 0. -1.
          1    1    1    2  502    0 -0.14894598747E+02 -0.24701845203E+02  0.14439060658E+04  0.14441941549E+04  0.00000000000E+00 0. -1.
         22    1    3    3    0    0 -0.68025358247E+02  0.42256971643E+02  0.40324711478E+03  0.41112204587E+03  0.00000000000E+00 0.  1.
         22    1    3    3    0    0  0.41173036956E+01 -0.60316441239E+02  0.38943750923E+03  0.39410226955E+03  0.00000000000E+00 0.  1.
</event>
