<event>
 7    1  0.5736319E-006  0.1420112E+03  0.7818608E-02  0.1312181E+00
          2   -1    0    0  502    0  0.00000000000E+00  0.00000000000E+00  0.24483785739E+03  0.24483785739E+03  0.00000000000E+00 0. -1.
          1   -1    0    0  501    0 -0.00000000000E+00 -0.00000000000E+00 -0.14109326638E+04  0.14109326638E+04  0.00000000000E+00 0. -1.
         25    2    1    2    0    0 -0.15881421322E+03 -0.75041365796E+02  0.77739204174E+02  0.22917492497E+03  0.12499840586E+03 0.  0.
          2    1    1    2  501    0  0.45849695131E+02  0.25348757210E+02 -0.12927736655E+04  0.12938348057E+04  0.00000000000E+00 0. -1.
          1    1    1    2  502    0  0.11296451809E+03  0.49692608585E+02  0.48939654917E+02  0.13276079059E+03  0.00000000000E+00 0. -1.
         22    1    3    3    0    0 -0.13576161483E+03 -0.48457215918E+02  0.33781526248E+00  0.14415072652E+03  0.00000000000E+00 0.  1.
         22    1    3    3    0    0 -0.23052598388E+02 -0.26584149878E+02  0.77401388911E+02  0.85024198453E+02  0.00000000000E+00 0.  1.
</event>
<event>
 7    1  0.5736319E-006  0.2868347E+02  0.7818608E-02  0.1622804E+00
          2   -1    0    0  502    0  0.00000000000E+00  0.00000000000E+00  0.12554643143E+04  0.12554643143E+04  0.00000000000E+00 0. -1.
          1   -1    0    0  501    0 -0.00000000000E+00 -0.00000000000E+00 -0.50968264410E+03  0.50968264410E+03  0.00000000000E+00 0. -1.
         25    2    1    2    0    0 -0.41126444424E+02  0.16300084365E+02  0.12502907359E+02  0.13318635053E+03  0.12500081638E+03 0.  0.
          2    1    1    2  501    0  0.15225965753E+02 -0.24256439220E+02 -0.44872917387E+03  0.44964216480E+03  0.00000000000E+00 0. -1.
          1    1    1    2  502    0  0.25900478671E+02  0.79563548542E+01  0.11820079368E+04  0.11823184431E+04  0.00000000000E+00 0. -1.
         22    1    3    3    0    0  0.85217905902E+01  0.59885998051E+02  0.25857782971E+02  0.65784334135E+02  0.00000000000E+00 0.  1.
         22    1    3    3    0    0 -0.49648235014E+02 -0.43585913685E+02 -0.13354875612E+02  0.67402016397E+02  0.00000000000E+00 0.  1.
</event>
<event>
 7    1  0.5736319E-006  0.4213723E+03  0.7818608E-02  0.1267853E+00
          2   -1    0    0  502    0  0.00000000000E+00  0.00000000000E+00  0.15357155540E+04  0.15357155540E+04  0.00000000000E+00 0. -1.
          1   -1    0    0  501    0 -0.00000000000E+00 -0.00000000000E+00 -0.17151302134E+03  0.17151302134E+03  0.00000000000E+00 0. -1.
         25    2    1    2    0    0  0.27022949511E+03 -0.30868153776E+03  0.75530856178E+03  0.86857658349E+03  0.12500394440E+03 0.  0.
          2    1    1    2  501    0 -0.26491046217E+03  0.33489250247E+03  0.28436849006E+03  0.51302629495E+03  0.00000000000E+00 0. -1.
          1    1    1    2  502    0 -0.53190329386E+01 -0.26210964704E+02  0.32452548083E+03  0.32562569691E+03  0.00000000000E+00 0. -1.
         22    1    3    3    0    0  0.20449823215E+03 -0.29539263031E+03  0.66800291244E+03  0.75848811726E+03  0.00000000000E+00 0. -1.
         22    1    3    3    0    0  0.65731262959E+02 -0.13288907453E+02  0.87305649335E+02  0.11008846623E+03  0.00000000000E+00 0. -1.
</event>
<event>
 7    1  0.5736319E-006  0.5999636E+02  0.7818608E-02  0.1531484E+00
          2   -1    0    0  502    0  0.00000000000E+00  0.00000000000E+00  0.18495172153E+04  0.18495172153E+04  0.00000000000E+00 0. -1.
          1   -1    0    0  501    0 -0.00000000000E+00 -0.00000000000E+00 -0.19751862573E+02  0.19751862573E+02  0.00000000000E+00 0. -1.
         25    2    1    2    0    0 -0.58134875816E+02 -0.91956732149E+01  0.85578883815E+03  0.86686842257E+03  0.12498840891E+03 0.  0.
          2    1    1    2  501    0  0.51753033846E+02  0.31109586437E+02  0.50710699209E+02  0.78852760857E+02  0.00000000000E+00 0. -1.
          1    1    1    2  502    0  0.63818419698E+01 -0.21913913222E+02  0.92326581540E+03  0.92354789447E+03  0.00000000000E+00 0. -1.
         22    1    3    3    0    0 -0.70968504862E+02  0.40280814912E+01  0.22832332454E+03  0.23913237893E+03  0.00000000000E+00 0. -1.
         22    1    3    3    0    0  0.12833629046E+02 -0.13223754706E+02  0.62746551361E+03  0.62773604364E+03  0.00000000000E+00 0. -1.
</event>
<event>
 7    1  0.5736319E-006  0.6210904E+02  0.7818608E-02  0.1462945E+00
          2   -1    0    0  502    0  0.00000000000E+00  0.00000000000E+00  0.18726545235E+04  0.18726545235E+04  0.00000000000E+00 0. -1.
          1   -1    0    0  501    0 -0.00000000000E+00 -0.00000000000E+00 -0.75512452692E+02  0.75512452692E+02  0.00000000000E+00 0. -1.
         25    2    1    2    0    0 -0.74589056801E+01 -0.61087082869E+02  0.24382061603E+03  0.28082251401E+03  0.12500209842E+03 0.  0.
          2    1    1    2  501    0  0.35020167092E+02  0.50512165550E+01 -0.50855073496E+02  0.61952928842E+02  0.00000000000E+00 0. -1.
          1    1    1    2  502    0 -0.27561261412E+02  0.56035866314E+02  0.16041765283E+04  0.16053915333E+04  0.00000000000E+00 0. -1.
         22    1    3    3    0    0  0.43718226918E+02 -0.38540833736E+02  0.20402221025E+03  0.21218327339E+03  0.00000000000E+00 0.  1.
         22    1    3    3    0    0 -0.51177132598E+02 -0.22546249133E+02  0.39798405775E+02  0.68639240622E+02  0.00000000000E+00 0.  1.
</event>
<event>
 7    1  0.5736319E-006  0.1149616E+03  0.7818608E-02  0.1272302E+00
          2   -1    0    0  502    0  0.00000000000E+00  0.00000000000E+00  0.16081431935E+04  0.16081431935E+04  0.00000000000E+00 0. -1.
          1   -1    0    0  501    0 -0.00000000000E+00 -0.00000000000E+00 -0.93358488054E+02  0.93358488054E+02  0.00000000000E+00 0. -1.
         25    2    1    2    0    0 -0.43670800722E+02 -0.32361517089E+02  0.35691197567E+03  0.38205516094E+03  0.12500232398E+03 0.  0.
          2    1    1    2  501    0  0.20453850508E+02  0.12334925959E+03 -0.29418360727E+02  0.12844780959E+03  0.00000000000E+00 0. -1.
          1    1    1    2  502    0  0.23216950214E+02 -0.90987742499E+02  0.11872910905E+04  0.11909987111E+04  0.00000000000E+00 0. -1.
         22    1    3    3    0    0 -0.25673936291E+02 -0.14720620835E+02  0.35559014359E+03  0.35681955931E+03  0.00000000000E+00 0.  1.
         22    1    3    3    0    0 -0.17996864432E+02 -0.17640896254E+02  0.13218320796E+01  0.25235601638E+02  0.00000000000E+00 0.  1.
</event>
<event>
 7    1  0.5736319E-006  0.8508051E+02  0.7818608E-02  0.1458593E+00
          2   -1    0    0  502    0  0.00000000000E+00  0.00000000000E+00  0.12088323643E+04  0.12088323643E+04  0.00000000000E+00 0. -1.
          1   -1    0    0  501    0 -0.00000000000E+00 -0.00000000000E+00 -0.95866840845E+02  0.95866840845E+02  0.00000000000E+00 0. -1.
         25    2    1    2    0    0 -0.36816175663E+02 -0.46837562754E+02  0.47071534794E+03  0.49066004976E+03  0.12500063025E+03 0.  0.
          2    1    1    2  501    0  0.53094134952E+02  0.67948636561E+02 -0.63936600999E+02  0.10734939834E+03  0.00000000000E+00 0. -1.
          1    1    1    2  502    0 -0.16277959289E+02 -0.21111073807E+02  0.70618677650E+03  0.70668975704E+03  0.00000000000E+00 0. -1.
         22    1    3    3    0    0 -0.33634456591E+02 -0.88800582047E+02  0.29178321007E+03  0.30684566433E+03  0.00000000000E+00 0. -1.
         22    1    3    3    0    0 -0.31817190724E+01  0.41963019294E+02  0.17893213788E+03  0.18381438543E+03  0.00000000000E+00 0. -1.
</event>
<event>
 7    1  0.5736319E-006  0.4340725E+02  0.7818608E-02  0.1601053E+00
          2   -1    0    0  502    0  0.00000000000E+00  0.00000000000E+00  0.16029600445E+04  0.16029600445E+04  0.00000000000E+00 0. -1.
          1   -1    0    0  501    0 -0.00000000000E+00 -0.00000000000E+00 -0.51570422723E+03  0.51570422723E+03  0.00000000000E+00 0. -1.
         25    2    1    2    0    0 -0.30935930334E+01 -0.23729700449E+02 -0.56401623594E+02  0.13917094632E+03  0.12495895388E+03 0.  0.
          2    1    1    2  501    0 -0.10092388146E+02 -0.17690781035E+02 -0.41736706433E+03  0.41786371752E+03  0.00000000000E+00 0. -1.
          1    1    1    2  502    0  0.13185981180E+02  0.41420481484E+02  0.15610245052E+04  0.15616296079E+04  0.00000000000E+00 0. -1.
         22    1    3    3    0    0 -0.12528633996E+02 -0.61839960442E+02 -0.73049295206E+02  0.96526405234E+02  0.00000000000E+00 0. -1.
         22    1    3    3    0    0  0.94350409630E+01  0.38110259992E+02  0.16647671612E+02  0.42644541090E+02  0.00000000000E+00 0. -1.
</event>
<event>
 7    1  0.5736319E-006  0.5533981E+02  0.7818608E-02  0.1459978E+00
          2   -1    0    0  502    0  0.00000000000E+00  0.00000000000E+00  0.62972234918E+03  0.62972234918E+03  0.00000000000E+00 0. -1.
          1   -1    0    0  501    0 -0.00000000000E+00 -0.00000000000E+00 -0.15723232237E+03  0.15723232237E+03  0.00000000000E+00 0. -1.
         25    2    1    2    0    0  0.70592270343E+02 -0.62943561561E+02 -0.32268688760E+02  0.16004034457E+03  0.12500593202E+03 0.  0.
          2    1    1    2  501    0 -0.25900803198E+02  0.31231203485E+02 -0.52844852356E+02  0.66624455704E+02  0.00000000000E+00 0. -1.
          1    1    1    2  502    0 -0.44691467146E+02  0.31712358076E+02  0.55760356793E+03  0.56028987127E+03  0.00000000000E+00 0. -1.
         22    1    3    3    0    0  0.10441216473E+03 -0.28930186277E+02 -0.16790774990E+02  0.10963934488E+03  0.00000000000E+00 0. -1.
         22    1    3    3    0    0 -0.33819894388E+02 -0.34013375284E+02 -0.15477913770E+02  0.50400999685E+02  0.00000000000E+00 0. -1.
</event>
<event>
 7    1  0.5736319E-006  0.1297187E+03  0.7818608E-02  0.1307812E+00
          2   -1    0    0  502    0  0.00000000000E+00  0.00000000000E+00  0.27100180885E+04  0.27100180885E+04  0.00000000000E+00 0. -1.
          1   -1    0    0  501    0 -0.00000000000E+00 -0.00000000000E+00 -0.17784549111E+04  0.17784549111E+04  0.00000000000E+00 0. -1.
         25    2    1    2    0    0  0.11185112534E+03  0.15006751025E+03  0.25186398950E+03  0.33777383004E+03  0.12499903673E+03 0.  0.
          2    1    1    2  501    0 -0.86502739083E+02 -0.96043890690E+02 -0.17327238215E+04  0.17375381994E+04  0.00000000000E+00 0. -1.
          1    1    1    2  502    0 -0.25348386258E+02 -0.54023619561E+02  0.24124230093E+04  0.24131609702E+04  0.00000000000E+00 0. -1.
         22    1    3    3    0    0 -0.48990824457E+01  0.59529081058E+02  0.14078689662E+03  0.15293352399E+03  0.00000000000E+00 0. -1.
         22    1    3    3    0    0  0.11675020779E+03  0.90538429193E+02  0.11107709288E+03  0.18484030605E+03  0.00000000000E+00 0. -1.
</event>
<event>
 7    1  0.5736319E-006  0.6667804E+02  0.7818608E-02  0.1491563E+00
          2   -1    0    0  502    0  0.00000000000E+00  0.00000000000E+00  0.32532394669E+03  0.32532394669E+03  0.00000000000E+00 0. -1.
          1   -1    0    0  501    0 -0.00000000000E+00 -0.00000000000E+00 -0.10798224073E+03  0.10798224073E+03  0.00000000000E+00 0. -1.
         25    2    1    2    0    0 -0.34673779632E+02 -0.42164928988E+02  0.11887696721E+03  0.18093389925E+03  0.12500076134E+03 0.  0.
          2    1    1    2  501    0  0.59896990526E+02  0.32802632443E+02 -0.60446234703E+02  0.91199832560E+02  0.00000000000E+00 0. -1.
          1    1    1    2  502    0 -0.25223210894E+02  0.93622965457E+01  0.15891097345E+03  0.16117245561E+03  0.00000000000E+00 0. -1.
         22    1    3    3    0    0 -0.23502316366E+02 -0.67361825776E+02  0.14270601727E+02  0.72757298741E+02  0.00000000000E+00 0.  1.
         22    1    3    3    0    0 -0.11171463266E+02  0.25196896787E+02  0.10460636548E+03  0.10817660051E+03  0.00000000000E+00 0.  1.
</event>
<event>
 7    1  0.5736319E-006  0.4040541E+02  0.7818608E-02  0.1552170E+00
          2   -1    0    0  502    0  0.00000000000E+00  0.00000000000E+00  0.50775038007E+03  0.50775038007E+03  0.00000000000E+00 0. -1.
          1   -1    0    0  501    0 -0.00000000000E+00 -0.00000000000E+00 -0.37591789901E+03  0.37591789901E+03  0.00000000000E+00 0. -1.
         25    2    1    2    0    0  0.18554938939E+02  0.29730893138E+02  0.19582462676E+02  0.13128769847E+03  0.12499910064E+03 0.  0.
          2    1    1    2  501    0  0.21121850311E+02 -0.20781262783E+02 -0.31841922833E+03  0.31979493181E+03  0.00000000000E+00 0. -1.
          1    1    1    2  502    0 -0.39676789250E+02 -0.89496303550E+01  0.43066924671E+03  0.43258564880E+03  0.00000000000E+00 0. -1.
         22    1    3    3    0    0 -0.10005709560E+02  0.81427843615E+01 -0.50751866500E+02  0.52365743709E+02  0.00000000000E+00 0. -1.
         22    1    3    3    0    0  0.28560648499E+02  0.21588108776E+02  0.70334329176E+02  0.78921954764E+02  0.00000000000E+00 0. -1.
</event>
<event>
 7    1  0.5736319E-006  0.1146376E+03  0.7818608E-02  0.1369603E+00
          2   -1    0    0  502    0  0.00000000000E+00  0.00000000000E+00  0.47958063170E+03  0.47958063170E+03  0.00000000000E+00 0. -1.
          1   -1    0    0  501    0 -0.00000000000E+00 -0.00000000000E+00 -0.16105007993E+04  0.16105007993E+04  0.00000000000E+00 0. -1.
         25    2    1    2    0    0  0.86883122627E+01 -0.15258061450E+03 -0.23495249441E+03  0.30689530339E+03  0.12500288766E+03 0.  0.
          2    1    1    2  501    0  0.17315912019E+01  0.39445573114E+02 -0.13320050860E+04  0.13325901473E+04  0.00000000000E+00 0. -1.
          1    1    1    2  502    0 -0.10419903465E+02  0.11313504138E+03  0.43603741286E+03  0.45059598022E+03  0.00000000000E+00 0. -1.
         22    1    3    3    0    0  0.50054073208E+02 -0.11798705512E+03 -0.10325043965E+03  0.16458131336E+03  0.00000000000E+00 0.  1.
         22    1    3    3    0    0 -0.41365760945E+02 -0.34593559379E+02 -0.13170205476E+03  0.14231399003E+03  0.00000000000E+00 0.  1.
</event>
<event>
 7    1  0.5736319E-006  0.1151105E+03  0.7818608E-02  0.1323471E+00
          2   -1    0    0  502    0  0.00000000000E+00  0.00000000000E+00  0.93193697943E+02  0.93193697943E+02  0.00000000000E+00 0. -1.
          1   -1    0    0  501    0 -0.00000000000E+00 -0.00000000000E+00 -0.11464509034E+04  0.11464509034E+04  0.00000000000E+00 0. -1.
         25    2    1    2    0    0 -0.73574775349E+02  0.11173461999E+02 -0.30365434207E+03  0.33670326726E+03  0.12500014762E+03 0.  0.
          2    1    1    2  501    0 -0.45872297085E+02 -0.36163446843E+02 -0.77590927727E+03  0.77810492164E+03  0.00000000000E+00 0. -1.
          1    1    1    2  502    0  0.11944707243E+03  0.24989984844E+02  0.26306413897E+02  0.12483641243E+03  0.00000000000E+00 0. -1.
         22    1    3    3    0    0  0.15893068387E+02 -0.26426692730E+02 -0.16253578569E+03  0.16543530863E+03  0.00000000000E+00 0.  1.
         22    1    3    3    0    0 -0.89467843736E+02  0.37600154729E+02 -0.14111855638E+03  0.17126795863E+03  0.00000000000E+00 0.  1.
</event>
<event>
 7    1  0.5736319E-006  0.9749930E+02  0.7818608E-02  0.1406514E+00
          2   -1    0    0  502    0  0.00000000000E+00  0.00000000000E+00  0.86336692105E+02  0.86336692105E+02  0.00000000000E+00 0. -1.
          1   -1    0    0  501    0 -0.00000000000E+00 -0.00000000000E+00 -0.25039445867E+04  0.25039445867E+04  0.00000000000E+00 0. -1.
         25    2    1    2    0    0  0.83510603541E+02  0.18704798390E+02 -0.72145745406E+03  0.73719290245E+03  0.12501450724E+03 0.  0.
          2    1    1    2  501    0 -0.93099730118E+00  0.34465183306E+02 -0.17436488080E+04  0.17439896448E+04  0.00000000000E+00 0. -1.
          1    1    1    2  502    0 -0.82579606240E+02 -0.53169981696E+02  0.47498367429E+02  0.10909873156E+03  0.00000000000E+00 0. -1.
         22    1    3    3    0    0 -0.70077270144E+01 -0.32859608103E+02 -0.34357198959E+03  0.34521091250E+03  0.00000000000E+00 0. -1.
         22    1    3    3    0    0  0.90518330556E+02  0.51564406494E+02 -0.37788546447E+03  0.39198198995E+03  0.00000000000E+00 0. -1.
</event>
<event>
 7    1  0.5736319E-006  0.8328090E+02  0.7818608E-02  0.1430704E+00
          2   -1    0    0  502    0  0.00000000000E+00  0.00000000000E+00  0.38423880911E+04  0.38423880911E+04  0.00000000000E+00 0. -1.
          1   -1    0    0  501    0 -0.00000000000E+00 -0.00000000000E+00 -0.11225593116E+03  0.11225593116E+03  0.00000000000E+00 0. -1.
         25    2    1    2    0    0  0.50861182413E+02 -0.14804581746E+01  0.17370531394E+04  0.17422885359E+04  0.12500672577E+03 0.  0.
          2    1    1    2  501    0 -0.83295669829E+02 -0.68979827205E+01 -0.93555140813E+02  0.12545244179E+03  0.00000000000E+00 0. -1.
          1    1    1    2  502    0  0.32434487416E+02  0.83784408951E+01  0.20866341614E+04  0.20869030446E+04  0.00000000000E+00 0. -1.
         22    1    3    3    0    0  0.66773877490E+02  0.47050373974E+02  0.12151180798E+04  0.12178605980E+04  0.00000000000E+00 0. -1.
         22    1    3    3    0    0 -0.15912695077E+02 -0.48530832148E+02  0.52193505966E+03  0.52442793788E+03  0.00000000000E+00 0. -1.
</event>
<event>
 7    1  0.5736319E-006  0.1473328E+03  0.7818608E-02  0.1340088E+00
          2   -1    0    0  502    0  0.00000000000E+00  0.00000000000E+00  0.34730747263E+03  0.34730747263E+03  0.00000000000E+00 0. -1.
          1   -1    0    0  501    0 -0.00000000000E+00 -0.00000000000E+00 -0.46714752248E+03  0.46714752248E+03  0.00000000000E+00 0. -1.
         25    2    1    2    0    0 -0.15507699256E+03  0.72181659876E+02 -0.15204978224E+03  0.26077341240E+03  0.12499828275E+03 0.  0.
          2    1    1    2  501    0  0.11601653927E+03 -0.77690446627E+02 -0.24052174782E+03  0.27811212497E+03  0.00000000000E+00 0. -1.
          1    1    1    2  502    0  0.39060453288E+02  0.55087867505E+01  0.27273148021E+03  0.27556945774E+03  0.00000000000E+00 0. -1.
         22    1    3    3    0    0  0.68427061173E+01 -0.21943176420E+02 -0.27546550745E+02  0.35876706598E+02  0.00000000000E+00 0. -1.
         22    1    3    3    0    0 -0.16191969868E+03  0.94124836297E+02 -0.12450323149E+03  0.22489670580E+03  0.00000000000E+00 0. -1.
</event>
<event>
 7    1  0.5736319E-006  0.1134663E+03  0.7818608E-02  0.1410330E+00
          2   -1    0    0  502    0  0.00000000000E+00  0.00000000000E+00  0.18305162463E+04  0.18305162463E+04  0.00000000000E+00 0. -1.
          1   -1    0    0  501    0 -0.00000000000E+00 -0.00000000000E+00 -0.56372005240E+03  0.56372005240E+03  0.00000000000E+00 0. -1.
         25    2    1    2    0    0  0.10933707239E+03  0.26564243538E+02  0.10186483511E+04  0.10324425939E+04  0.12503196433E+03 0.  0.
          2    1    1    2  501    0 -0.75375377554E+01  0.27749513520E+02 -0.55231233253E+03  0.55306036076E+03  0.00000000000E+00 0. -1.
          1    1    1    2  502    0 -0.10179953463E+03 -0.54313757059E+02  0.80046017541E+03  0.80873334411E+03  0.00000000000E+00 0. -1.
         22    1    3    3    0    0  0.79857537219E+02  0.76062243941E+02  0.63878264294E+03  0.64823294897E+03  0.00000000000E+00 0.  1.
         22    1    3    3    0    0  0.29479535167E+02 -0.49498000403E+02  0.37986570811E+03  0.38420964490E+03  0.00000000000E+00 0.  1.
</event>
<event>
 7    1  0.5736319E-006  0.7536401E+02  0.7818608E-02  0.1484020E+00
          2   -1    0    0  502    0  0.00000000000E+00  0.00000000000E+00  0.16591534703E+03  0.16591534703E+03  0.00000000000E+00 0. -1.
          1   -1    0    0  501    0 -0.00000000000E+00 -0.00000000000E+00 -0.21656844368E+04  0.21656844368E+04  0.00000000000E+00 0. -1.
         25    2    1    2    0    0 -0.34217600407E+02  0.81152526965E+02 -0.13965555334E+03  0.20708814768E+03  0.12500100207E+03 0.  0.
          2    1    1    2  501    0  0.10026672119E+02 -0.74488129527E+02 -0.19904062284E+04  0.19918247838E+04  0.00000000000E+00 0. -1.
          1    1    1    2  502    0  0.24190928288E+02 -0.66643974377E+01  0.13029269194E+03  0.13268685232E+03  0.00000000000E+00 0. -1.
         22    1    3    3    0    0 -0.45314872116E+02  0.11144035324E+03 -0.11569095188E+03  0.16690352396E+03  0.00000000000E+00 0. -1.
         22    1    3    3    0    0  0.11097271710E+02 -0.30287826272E+02 -0.23964601467E+02  0.40184623715E+02  0.00000000000E+00 0. -1.
</event>
<event>
 7    1  0.5736319E-006  0.4156368E+02  0.7818608E-02  0.1550711E+00
          2   -1    0    0  502    0  0.00000000000E+00  0.00000000000E+00  0.54936473677E+03  0.54936473677E+03  0.00000000000E+00 0. -1.
          1   -1    0    0  501    0 -0.00000000000E+00 -0.00000000000E+00 -0.44432474562E+03  0.44432474562E+03  0.00000000000E+00 0. -1.
         25    2    1    2    0    0 -0.58018007837E+02 -0.13452248613E+01 -0.12227357986E+02  0.13835528867E+03  0.12499911503E+03 0.  0.
          2    1    1    2  501    0  0.21038448528E+02  0.20069526285E+02 -0.36757504574E+03  0.36872322472E+03  0.00000000000E+00 0. -1.
          1    1    1    2  502    0  0.36979559309E+02 -0.18724301424E+02  0.48484239488E+03  0.48661096899E+03  0.00000000000E+00 0. -1.
         22    1    3    3    0    0  0.11356496066E+02 -0.51073783155E+02 -0.16647458598E+01  0.52347614153E+02  0.00000000000E+00 0.  1.
         22    1    3    3    0    0 -0.69374503903E+02  0.49728558294E+02 -0.10562612126E+02  0.86007674522E+02  0.00000000000E+00 0.  1.
</event>
<event>
 7    1  0.5736319E-006  0.2061589E+03  0.7818608E-02  0.1257911E+00
          2   -1    0    0  502    0  0.00000000000E+00  0.00000000000E+00  0.58898765836E+03  0.58898765836E+03  0.00000000000E+00 0. -1.
          1   -1    0    0  501    0 -0.00000000000E+00 -0.00000000000E+00 -0.43449389746E+04  0.43449389746E+04  0.00000000000E+00 0. -1.
         25    2    1    2    0    0 -0.18303846847E+03  0.19038818091E+03 -0.58228666136E+03  0.65148453006E+03  0.12499438607E+03 0.  0.
          2    1    1    2  501    0  0.46561505635E+02 -0.38234964758E+02 -0.37089613869E+04  0.37094506946E+04  0.00000000000E+00 0. -1.
          1    1    1    2  502    0  0.13647696283E+03 -0.15215321615E+03  0.53529673205E+03  0.57299140824E+03  0.00000000000E+00 0. -1.
         22    1    3    3    0    0 -0.45489792430E+02  0.46365676588E+02 -0.46503792468E+02  0.79885542463E+02  0.00000000000E+00 0. -1.
         22    1    3    3    0    0 -0.13754867604E+03  0.14402250432E+03 -0.53578286889E+03  0.57159898760E+03  0.00000000000E+00 0. -1.
</event>
<event>
 7    1  0.5736319E-006  0.1145950E+03  0.7818608E-02  0.1351391E+00
          2   -1    0    0  502    0  0.00000000000E+00  0.00000000000E+00  0.42375980697E+03  0.42375980697E+03  0.00000000000E+00 0. -1.
          1   -1    0    0  501    0 -0.00000000000E+00 -0.00000000000E+00 -0.41389272489E+03  0.41389272489E+03  0.00000000000E+00 0. -1.
         25    2    1    2    0    0  0.70934263414E+02  0.61321785362E+02  0.52538760835E+02  0.16484541176E+03  0.12498662849E+03 0.  0.
          2    1    1    2  501    0 -0.13579573457E+02  0.43975851516E+02 -0.34474643864E+03  0.34780509957E+03  0.00000000000E+00 0. -1.
          1    1    1    2  502    0 -0.57354689958E+02 -0.10529763688E+03  0.30207475989E+03  0.32500202054E+03  0.00000000000E+00 0. -1.
         22    1    3    3    0    0  0.64398737242E+02  0.61922138436E+02 -0.20377809892E+02  0.91634075119E+02  0.00000000000E+00 0. -1.
         22    1    3    3    0    0  0.65355261722E+01 -0.60035307437E+00  0.72916570726E+02  0.73211336640E+02  0.00000000000E+00 0. -1.
</event>
<event>
 7    1  0.5736319E-006  0.4732117E+02  0.7818608E-02  0.1524089E+00
          2   -1    0    0  502    0  0.00000000000E+00  0.00000000000E+00  0.20394548890E+04  0.20394548890E+04  0.00000000000E+00 0. -1.
          1   -1    0    0  501    0 -0.00000000000E+00 -0.00000000000E+00 -0.86951811217E+02  0.86951811217E+02  0.00000000000E+00 0. -1.
         25    2    1    2    0    0 -0.45384822572E+02 -0.25021123440E+02  0.94967707789E+03  0.95926871315E+03  0.12499629198E+03 0.  0.
          2    1    1    2  501    0 -0.20874369654E+01  0.30317098537E+02 -0.78800582091E+02  0.84457182019E+02  0.00000000000E+00 0. -1.
          1    1    1    2  502    0  0.47472259537E+02 -0.52959750963E+01  0.10816265820E+04  0.10826808050E+04  0.00000000000E+00 0. -1.
         22    1    3    3    0    0 -0.28356298225E+02 -0.69346521118E+02  0.76214316207E+03  0.76581670073E+03  0.00000000000E+00 0. -1.
         22    1    3    3    0    0 -0.17028524346E+02  0.44325397677E+02  0.18753391583E+03  0.19345201241E+03  0.00000000000E+00 0. -1.
</event>
<event>
 7    1  0.5736319E-006  0.6715919E+02  0.7818608E-02  0.1437729E+00
          2   -1    0    0  502    0  0.00000000000E+00  0.00000000000E+00  0.94961379347E+03  0.94961379347E+03  0.00000000000E+00 0. -1.
          1   -1    0    0  501    0 -0.00000000000E+00 -0.00000000000E+00 -0.10721261662E+03  0.10721261662E+03  0.00000000000E+00 0. -1.
         25    2    1    2    0    0  0.13415459783E+01  0.35462400155E+02  0.36520743432E+03  0.38763508912E+03  0.12500044264E+03 0.  0.
          2    1    1    2  501    0  0.13054855361E+02  0.37173495313E+02 -0.89443286491E+02  0.97736377571E+02  0.00000000000E+00 0. -1.
          1    1    1    2  502    0 -0.14396401339E+02 -0.72635895469E+02  0.56663702902E+03  0.57145494340E+03  0.00000000000E+00 0. -1.
         22    1    3    3    0    0  0.22500484441E+02  0.77669061262E+02  0.26081074178E+03  0.27305859793E+03  0.00000000000E+00 0. -1.
         22    1    3    3    0    0 -0.21158938463E+02 -0.42206661106E+02  0.10439669255E+03  0.11457649119E+03  0.00000000000E+00 0. -1.
</event>
<event>
 7    1  0.5736319E-006  0.2074940E+03  0.7818608E-02  0.1341851E+00
          2   -1    0    0  502    0  0.00000000000E+00  0.00000000000E+00  0.18967894330E+04  0.18967894330E+04  0.00000000000E+00 0. -1.
          1   -1    0    0  501    0 -0.00000000000E+00 -0.00000000000E+00 -0.62657653910E+03  0.62657653910E+03  0.00000000000E+00 0. -1.
         25    2    1    2    0    0  0.13790708218E+03  0.17549350307E+03 -0.38351458086E+03  0.46100396474E+03  0.12499955536E+03 0.  0.
          2    1    1    2  501    0 -0.27585700654E+02  0.75264729245E-02 -0.19757423179E+03  0.19949072160E+03  0.00000000000E+00 0. -1.
          1    1    1    2  502    0 -0.11032138153E+03 -0.17550102955E+03  0.18513017066E+04  0.18628712858E+04  0.00000000000E+00 0. -1.
         22    1    3    3    0    0 -0.22890859910E+02  0.14425066833E+02 -0.28483312092E+02  0.39285787358E+02  0.00000000000E+00 0. -1.
         22    1    3    3    0    0  0.16079794209E+03  0.16106843624E+03 -0.35503126877E+03  0.42171817739E+03  0.00000000000E+00 0. -1.
</event>
<event>
 7    1  0.5736319E-006  0.8689937E+02  0.7818608E-02  0.1381212E+00
          2   -1    0    0  502    0  0.00000000000E+00  0.00000000000E+00  0.46399069022E+03  0.46399069022E+03  0.00000000000E+00 0. -1.
          1   -1    0    0  501    0 -0.00000000000E+00 -0.00000000000E+00 -0.11383874620E+04  0.11383874620E+04  0.00000000000E+00 0. -1.
         25    2    1    2    0    0  0.92442203493E+02  0.60249246933E+01  0.44170776677E+02  0.16175164048E+03  0.12502269786E+03 0.  0.
          2    1    1    2  501    0 -0.14256623245E+02 -0.45153582710E+02 -0.10737743877E+04  0.10748179069E+04  0.00000000000E+00 0. -1.
          1    1    1    2  502    0 -0.78185580248E+02  0.39128658016E+02  0.35520683917E+03  0.36580860491E+03  0.00000000000E+00 0. -1.
         22    1    3    3    0    0  0.33798342326E+02  0.30145491701E+02 -0.37187966225E+02  0.58600541344E+02  0.00000000000E+00 0.  1.
         22    1    3    3    0    0  0.58643861168E+02 -0.24120567007E+02  0.81358742902E+02  0.10315109913E+03  0.00000000000E+00 0.  1.
</event>
<event>
 7    1  0.5736319E-006  0.5449032E+02  0.7818608E-02  0.1434787E+00
          2   -1    0    0  502    0  0.00000000000E+00  0.00000000000E+00  0.33782487459E+03  0.33782487459E+03  0.00000000000E+00 0. -1.
          1   -1    0    0  501    0 -0.00000000000E+00 -0.00000000000E+00 -0.15280835822E+04  0.15280835822E+04  0.00000000000E+00 0. -1.
         25    2    1    2    0    0  0.35217427369E+02  0.31634083115E+01 -0.75969056787E+03  0.77071807803E+03  0.12500529005E+03 0.  0.
          2    1    1    2  501    0 -0.14672336917E+02  0.47426769788E+02 -0.75982075639E+03  0.76144084327E+03  0.00000000000E+00 0. -1.
          1    1    1    2  502    0 -0.20545090451E+02 -0.50590178099E+02  0.32925261666E+03  0.33374953549E+03  0.00000000000E+00 0. -1.
         22    1    3    3    0    0 -0.70964436077E+00  0.57362923226E+02 -0.22979032175E+03  0.23684298707E+03  0.00000000000E+00 0.  1.
         22    1    3    3    0    0  0.35927071729E+02 -0.54199514914E+02 -0.52990024612E+03  0.53387509096E+03  0.00000000000E+00 0.  1.
</event>
<event>
 7    1  0.5736319E-006  0.7625705E+02  0.7818608E-02  0.1434557E+00
          2   -1    0    0  502    0  0.00000000000E+00  0.00000000000E+00  0.20642107981E+04  0.20642107981E+04  0.00000000000E+00 0. -1.
          1   -1    0    0  501    0 -0.00000000000E+00 -0.00000000000E+00 -0.47416651782E+03  0.47416651782E+03  0.00000000000E+00 0. -1.
         25    2    1    2    0    0  0.99179291595E+02 -0.39247669955E+02  0.26591666940E+03  0.31259134641E+03  0.12499905321E+03 0.  0.
          2    1    1    2  501    0 -0.63705489490E+02  0.41340580819E+02 -0.44745149790E+03  0.45385049960E+03  0.00000000000E+00 0. -1.
          1    1    1    2  502    0 -0.35473802105E+02 -0.20929108636E+01  0.17715791088E+04  0.17719354699E+04  0.00000000000E+00 0. -1.
         22    1    3    3    0    0 -0.57109034843E+01 -0.31525139976E+01 -0.11831884776E+02  0.13510968154E+02  0.00000000000E+00 0. -1.
         22    1    3    3    0    0  0.10489019508E+03 -0.36095155958E+02  0.27774855418E+03  0.29908037825E+03  0.00000000000E+00 0. -1.
</event>
<event>
 7    1  0.5736319E-006  0.4185425E+02  0.7818608E-02  0.1533114E+00
          2   -1    0    0  502    0  0.00000000000E+00  0.00000000000E+00  0.80847380623E+02  0.80847380623E+02  0.00000000000E+00 0. -1.
          1   -1    0    0  501    0 -0.00000000000E+00 -0.00000000000E+00 -0.26722588233E+04  0.26722588233E+04  0.00000000000E+00 0. -1.
         25    2    1    2    0    0  0.46743778941E+02 -0.51437470822E+02 -0.35490924990E+03  0.38264233887E+03  0.12499515811E+03 0.  0.
          2    1    1    2  501    0 -0.35845003219E+02  0.20958704146E+02 -0.22993740226E+04  0.22997489053E+04  0.00000000000E+00 0. -1.
          1    1    1    2  502    0 -0.10898775722E+02  0.30478766676E+02  0.62871829901E+02  0.70714959700E+02  0.00000000000E+00 0. -1.
         22    1    3    3    0    0  0.32800717960E+02  0.33823610712E+02 -0.65998283372E+02  0.81090672388E+02  0.00000000000E+00 0. -1.
         22    1    3    3    0    0  0.13943060981E+02 -0.85261081534E+02 -0.28891096653E+03  0.30155166648E+03  0.00000000000E+00 0. -1.
</event>
<event>
 7    1  0.5736319E-006  0.5826435E+02  0.7818608E-02  0.1431784E+00
          2   -1    0    0  502    0  0.00000000000E+00  0.00000000000E+00  0.17082435617E+04  0.17082435617E+04  0.00000000000E+00 0. -1.
          1   -1    0    0  501    0 -0.00000000000E+00 -0.00000000000E+00 -0.77645568075E+03  0.77645568075E+03  0.00000000000E+00 0. -1.
         25    2    1    2    0    0 -0.81814526104E+02 -0.24458425179E+02  0.10366207753E+04  0.10476153131E+04  0.12499352423E+03 0.  0.
          2    1    1    2  501    0  0.38427742358E+02  0.43775622858E+02 -0.76900902077E+03  0.77121194919E+03  0.00000000000E+00 0. -1.
          1    1    1    2  502    0  0.43386783746E+02 -0.19317197679E+02  0.66417612639E+03  0.66587198019E+03  0.00000000000E+00 0. -1.
         22    1    3    3    0    0 -0.10492288199E+03  0.14505129211E+02  0.70385586743E+03  0.71178107031E+03  0.00000000000E+00 0.  1.
         22    1    3    3    0    0  0.23108355888E+02 -0.38963554390E+02  0.33276490789E+03  0.33583424275E+03  0.00000000000E+00 0.  1.
</event>
<event>
 7    1  0.5736319E-006  0.1298642E+03  0.7818608E-02  0.1295481E+00
          2   -1    0    0  502    0  0.00000000000E+00  0.00000000000E+00  0.30785524829E+03  0.30785524829E+03  0.00000000000E+00 0. -1.
          1   -1    0    0  501    0 -0.00000000000E+00 -0.00000000000E+00 -0.66210218540E+03  0.66210218540E+03  0.00000000000E+00 0. -1.
         25    2    1    2    0    0 -0.12527422288E+03  0.57540542120E+01 -0.10408577553E+03  0.20539414476E+03  0.12500466383E+03 0.  0.
          2    1    1    2  501    0  0.11244224053E+03 -0.71272996646E+02 -0.49406507591E+03  0.51168681510E+03  0.00000000000E+00 0. -1.
          1    1    1    2  502    0  0.12831982349E+02  0.65518942434E+02  0.24390391434E+03  0.25287647383E+03  0.00000000000E+00 0. -1.
         22    1    3    3    0    0 -0.13844490292E+03 -0.22372221448E+02 -0.10355807282E+03  0.17433238909E+03  0.00000000000E+00 0.  1.
         22    1    3    3    0    0  0.13170680048E+02  0.28126275660E+02 -0.52770270562E+00  0.31061755675E+02  0.00000000000E+00 0.  1.
</event>
<event>
 7    1  0.5736319E-006  0.9614275E+02  0.7818608E-02  0.1442792E+00
          2   -1    0    0  502    0  0.00000000000E+00  0.00000000000E+00  0.33192133453E+03  0.33192133453E+03  0.00000000000E+00 0. -1.
          1   -1    0    0  501    0 -0.00000000000E+00 -0.00000000000E+00 -0.44086072507E+03  0.44086072507E+03  0.00000000000E+00 0. -1.
         25    2    1    2    0    0 -0.11312365170E+03  0.35454529953E+02  0.14832157151E+03  0.22732918036E+03  0.12500113359E+03 0.  0.
          2    1    1    2  501    0  0.93930624122E+02 -0.17181821174E+02 -0.39439076273E+03  0.40578596681E+03  0.00000000000E+00 0. -1.
          1    1    1    2  502    0  0.19193027579E+02 -0.18272708779E+02  0.13712980069E+03  0.13966691244E+03  0.00000000000E+00 0. -1.
         22    1    3    3    0    0 -0.85800251138E+02  0.71389015391E+02  0.56703364941E+02  0.12519323548E+03  0.00000000000E+00 0.  1.
         22    1    3    3    0    0 -0.27323400563E+02 -0.35934485438E+02  0.91618206569E+02  0.10213594488E+03  0.00000000000E+00 0.  1.
</event>
<event>
 7    1  0.5736319E-006  0.7071257E+02  0.7818608E-02  0.1393403E+00
          2   -1    0    0  502    0  0.00000000000E+00  0.00000000000E+00  0.16440696855E+04  0.16440696855E+04  0.00000000000E+00 0. -1.
          1   -1    0    0  501    0 -0.00000000000E+00 -0.00000000000E+00 -0.32485664253E+03  0.32485664253E+03  0.00000000000E+00 0. -1.
         25    2    1    2    0    0  0.89293632164E+02  0.73204779227E+02  0.82598249007E+02  0.18916247462E+03  0.12501071401E+03 0.  0.
          2    1    1    2  501    0 -0.24362310953E+02 -0.46774908798E+02 -0.26819031629E+03  0.27332665447E+03  0.00000000000E+00 0. -1.
          1    1    1    2  502    0 -0.64931321211E+02 -0.26429870429E+02  0.15048051102E+04  0.15064371989E+04  0.00000000000E+00 0. -1.
         22    1    3    3    0    0  0.10475266133E+03  0.54569921090E+02  0.17116979608E+02  0.11934817692E+03  0.00000000000E+00 0. -1.
         22    1    3    3    0    0 -0.15459029169E+02  0.18634858138E+02  0.65481269399E+02  0.69814297696E+02  0.00000000000E+00 0. -1.
</event>
<event>
 7    1  0.5736319E-006  0.5520251E+02  0.7818608E-02  0.1456039E+00
          2   -1    0    0  502    0  0.00000000000E+00  0.00000000000E+00  0.81471952339E+03  0.81471952339E+03  0.00000000000E+00 0. -1.
          1   -1    0    0  501    0 -0.00000000000E+00 -0.00000000000E+00 -0.41768369892E+03  0.41768369892E+03  0.00000000000E+00 0. -1.
         25    2    1    2    0    0 -0.96613687357E+02  0.59284555677E+00 -0.26378748976E+02  0.16017502561E+03  0.12500257750E+03 0.  0.
          2    1    1    2  501    0  0.41857954695E+02 -0.27038504461E+00 -0.32204817617E+03  0.32475712348E+03  0.00000000000E+00 0. -1.
          1    1    1    2  502    0  0.54755732663E+02 -0.32246051216E+00  0.74546274961E+03  0.74747107322E+03  0.00000000000E+00 0. -1.
         22    1    3    3    0    0 -0.92901526123E+02  0.40751187064E+02  0.14819349343E+02  0.10252300190E+03  0.00000000000E+00 0. -1.
         22    1    3    3    0    0 -0.37121612346E+01 -0.40158341507E+02 -0.41198098319E+02  0.57652023718E+02  0.00000000000E+00 0. -1.
</event>
<event>
 7    1  0.5736319E-006  0.1785177E+03  0.7818608E-02  0.1184328E+00
          2   -1    0    0  502    0  0.00000000000E+00  0.00000000000E+00  0.73501334566E+02  0.73501334566E+02  0.00000000000E+00 0. -1.
          1   -1    0    0  501    0 -0.00000000000E+00 -0.00000000000E+00 -0.13027264446E+04  0.13027264446E+04  0.00000000000E+00 0. -1.
         25    2    1    2    0    0  0.43273546747E+02  0.62436640617E+02 -0.31916294088E+03  0.35108484270E+03  0.12499859999E+03 0.  0.
          2    1    1    2  501    0 -0.76850659486E+02  0.16112901981E+03 -0.67822563661E+03  0.70132631424E+03  0.00000000000E+00 0. -1.
          1    1    1    2  502    0  0.33577112739E+02 -0.22356566042E+03 -0.23183653259E+03  0.32381662228E+03  0.00000000000E+00 0. -1.
         22    1    3    3    0    0  0.36347807996E+02 -0.10802728145E+01 -0.13458031692E+02  0.38774331103E+02  0.00000000000E+00 0.  1.
         22    1    3    3    0    0  0.69257387515E+01  0.63516913432E+02 -0.30570490919E+03  0.31231051159E+03  0.00000000000E+00 0.  1.
</event>
<event>
 7    1  0.5736319E-006  0.4683076E+02  0.7818608E-02  0.1485454E+00
          2   -1    0    0  502    0  0.00000000000E+00  0.00000000000E+00  0.78528384197E+03  0.78528384197E+03  0.00000000000E+00 0. -1.
          1   -1    0    0  501    0 -0.00000000000E+00 -0.00000000000E+00 -0.10827658005E+03  0.10827658005E+03  0.00000000000E+00 0. -1.
         25    2    1    2    0    0 -0.51419989442E+01  0.47495421377E+02  0.20840734523E+03  0.24766699705E+03  0.12499225846E+03 0.  0.
          2    1    1    2  501    0 -0.34211810229E+02 -0.20679288110E+02 -0.83061291673E+02  0.92180578705E+02  0.00000000000E+00 0. -1.
          1    1    1    2  502    0  0.39353809173E+02 -0.26816133267E+02  0.55166120836E+03  0.55371284626E+03  0.00000000000E+00 0. -1.
         22    1    3    3    0    0 -0.56651563077E+02  0.41838900434E+01  0.50464721257E+02  0.75984160366E+02  0.00000000000E+00 0. -1.
         22    1    3    3    0    0  0.51509564133E+02  0.43311531334E+02  0.15794262398E+03  0.17168283668E+03  0.00000000000E+00 0. -1.
</event>
<event>
 7    1  0.5736319E-006  0.1205088E+03  0.7818608E-02  0.1314318E+00
          2   -1    0    0  502    0  0.00000000000E+00  0.00000000000E+00  0.21635020613E+03  0.21635020613E+03  0.00000000000E+00 0. -1.
          1   -1    0    0  501    0 -0.00000000000E+00 -0.00000000000E+00 -0.73120412684E+03  0.73120412684E+03  0.00000000000E+00 0. -1.
         25    2    1    2    0    0  0.15708886217E+03 -0.61976258544E+01 -0.36435564381E+03  0.41604812578E+03  0.12500274640E+03 0.  0.
          2    1    1    2  501    0 -0.10608381949E+03 -0.26450492335E+02 -0.32705860742E+03  0.34484886253E+03  0.00000000000E+00 0. -1.
          1    1    1    2  502    0 -0.51005042680E+02  0.32648118189E+02  0.17656033052E+03  0.18665734466E+03  0.00000000000E+00 0. -1.
         22    1    3    3    0    0  0.99441666940E+02  0.53018973321E+02 -0.16081620155E+03  0.19637084136E+03  0.00000000000E+00 0.  1.
         22    1    3    3    0    0  0.57647195225E+02 -0.59216599176E+02 -0.20353944226E+03  0.21967728442E+03  0.00000000000E+00 0.  1.
</event>
<event>
 7    1  0.5736319E-006  0.7683114E+02  0.7818608E-02  0.1426641E+00
          2   -1    0    0  502    0  0.00000000000E+00  0.00000000000E+00  0.54571068752E+03  0.54571068752E+03  0.00000000000E+00 0. -1.
          1   -1    0    0  501    0 -0.00000000000E+00 -0.00000000000E+00 -0.13533509004E+04  0.13533509004E+04  0.00000000000E+00 0. -1.
         25    2    1    2    0    0 -0.28578288483E+02 -0.32255022315E+02  0.22488228604E+02  0.13411567496E+03  0.12499675519E+03 0.  0.
          2    1    1    2  501    0 -0.33903661500E+02 -0.15905564005E+02 -0.12939356479E+04  0.12944774645E+04  0.00000000000E+00 0. -1.
          1    1    1    2  502    0  0.62481949983E+02  0.48160586321E+02  0.46380720647E+03  0.47046844838E+03  0.00000000000E+00 0. -1.
         22    1    3    3    0    0 -0.13845802217E+02  0.44874066833E+02 -0.11817125462E+02  0.48425536314E+02  0.00000000000E+00 0.  1.
         22    1    3    3    0    0 -0.14732486266E+02 -0.77129089148E+02  0.34305354066E+02  0.85690138651E+02  0.00000000000E+00 0.  1.
</event>
<event>
 7    1  0.5736319E-006  0.4701577E+03  0.7818608E-02  0.1237550E+00
          2   -1    0    0  502    0  0.00000000000E+00  0.00000000000E+00  0.27646984550E+04  0.27646984550E+04  0.00000000000E+00 0. -1.
          1   -1    0    0  501    0 -0.00000000000E+00 -0.00000000000E+00 -0.10328580529E+04  0.10328580529E+04  0.00000000000E+00 0. -1.
         25    2    1    2    0    0 -0.38629652855E+03 -0.25502824538E+03  0.75389948397E+03  0.89345063880E+03  0.12500079251E+03 0.  0.
          2    1    1    2  501    0  0.90807134590E+01 -0.31103300526E+02 -0.93392558399E+03  0.93448749114E+03  0.00000000000E+00 0. -1.
          1    1    1    2  502    0  0.37721581509E+03  0.28613154590E+03  0.19118665021E+04  0.19696183779E+04  0.00000000000E+00 0. -1.
         22    1    3    3    0    0 -0.11319287157E+03 -0.93685079186E+02  0.35213053990E+03  0.38155659785E+03  0.00000000000E+00 0. -1.
         22    1    3    3    0    0 -0.27310365699E+03 -0.16134316619E+03  0.40176894407E+03  0.51189404095E+03  0.00000000000E+00 0. -1.
</event>
<event>
 7    1  0.5736319E-006  0.5803843E+02  0.7818608E-02  0.1444871E+00
          2   -1    0    0  502    0  0.00000000000E+00  0.00000000000E+00  0.38501464528E+04  0.38501464528E+04  0.00000000000E+00 0. -1.
          1   -1    0    0  501    0 -0.00000000000E+00 -0.00000000000E+00 -0.25893608361E+03  0.25893608361E+03  0.00000000000E+00 0. -1.
         25    2    1    2    0    0 -0.92111589302E+02 -0.20746361403E+02  0.20158472946E+04  0.20219247421E+04  0.12499756378E+03 0.  0.
          2    1    1    2  501    0  0.43212403383E+02 -0.10628096446E+01 -0.25367742263E+03  0.25733378349E+03  0.00000000000E+00 0. -1.
          1    1    1    2  502    0  0.48899185919E+02  0.21809171047E+02  0.18290404972E+04  0.18298240109E+04  0.00000000000E+00 0. -1.
         22    1    3    3    0    0 -0.72949463506E+02  0.13129765992E+02  0.48938506180E+03  0.49496641674E+03  0.00000000000E+00 0.  1.
         22    1    3    3    0    0 -0.19162125796E+02 -0.33876127395E+02  0.15264622328E+04  0.15269583253E+04  0.00000000000E+00 0.  1.
</event>
<event>
 7    1  0.5736319E-006  0.1169783E+03  0.7818608E-02  0.1348560E+00
          2   -1    0    0  502    0  0.00000000000E+00  0.00000000000E+00  0.34458845037E+02  0.34458845037E+02  0.00000000000E+00 0. -1.
          1   -1    0    0  501    0 -0.00000000000E+00 -0.00000000000E+00 -0.16914388039E+04  0.16914388039E+04  0.00000000000E+00 0. -1.
         25    2    1    2    0    0 -0.15712201185E+01  0.81384492520E+02 -0.25960623919E+03  0.29941045930E+03  0.12500127741E+03 0.  0.
          2    1    1    2  501    0  0.28885143237E+02 -0.11863243793E+03 -0.13641180004E+04  0.13695714388E+04  0.00000000000E+00 0. -1.
          1    1    1    2  502    0 -0.27313923118E+02  0.37247945411E+02 -0.33255719245E+02  0.56915750860E+02  0.00000000000E+00 0. -1.
         22    1    3    3    0    0  0.17151296577E+02 -0.30890754426E+02 -0.62984295524E+02  0.72217914439E+02  0.00000000000E+00 0.  1.
         22    1    3    3    0    0 -0.18722516696E+02  0.11227524695E+03 -0.19662194367E+03  0.22719254486E+03  0.00000000000E+00 0.  1.
</event>
<event>
 7    1  0.5736319E-006  0.1334921E+03  0.7818608E-02  0.1313407E+00
          2   -1    0    0  502    0  0.00000000000E+00  0.00000000000E+00  0.14742541879E+04  0.14742541879E+04  0.00000000000E+00 0. -1.
          1   -1    0    0  501    0 -0.00000000000E+00 -0.00000000000E+00 -0.31809603170E+03  0.31809603170E+03  0.00000000000E+00 0. -1.
         25    2    1    2    0    0 -0.84980108956E+02 -0.12803004521E+03  0.23217868437E+02  0.19944240899E+03  0.12499957478E+03 0.  0.
          2    1    1    2  501    0  0.29859837040E+02  0.12801647363E+03 -0.21058863543E+03  0.24824866719E+03  0.00000000000E+00 0. -1.
          1    1    1    2  502    0  0.55120271916E+02  0.13571576969E-01  0.13435289231E+04  0.13446591434E+04  0.00000000000E+00 0. -1.
         22    1    3    3    0    0 -0.34866664702E+02 -0.13964330204E+03  0.24059659152E+01  0.14395042475E+03  0.00000000000E+00 0.  1.
         22    1    3    3    0    0 -0.50113444254E+02  0.11613256832E+02  0.20811902521E+02  0.55491984248E+02  0.00000000000E+00 0.  1.
</event>
<event>
 7    1  0.5736319E-006  0.4816020E+02  0.7818608E-02  0.1524516E+00
          2   -1    0    0  502    0  0.00000000000E+00  0.00000000000E+00  0.24489123303E+04  0.24489123303E+04  0.00000000000E+00 0. -1.
          1   -1    0    0  501    0 -0.00000000000E+00 -0.00000000000E+00 -0.48665340383E+02  0.48665340383E+02  0.00000000000E+00 0. -1.
         25    2    1    2    0    0 -0.23580572762E+02 -0.23990853804E+02  0.10860668233E+03  0.16897153438E+03  0.12499745400E+03 0.  0.
          2    1    1    2  501    0 -0.24284618945E+02  0.17227862452E+02 -0.60700786181E+01  0.30387296958E+02  0.00000000000E+00 0. -1.
          1    1    1    2  502    0  0.47865191707E+02  0.67629913514E+01  0.22977103862E+04  0.22982188394E+04  0.00000000000E+00 0. -1.
         22    1    3    3    0    0  0.10389137922E+02  0.39043218102E+02  0.84079220959E+02  0.93282487444E+02  0.00000000000E+00 0. -1.
         22    1    3    3    0    0 -0.33969710684E+02 -0.63034071906E+02  0.24527461366E+02  0.75689046936E+02  0.00000000000E+00 0. -1.
</event>
<event>
 7    1  0.5736319E-006  0.1141992E+03  0.7818608E-02  0.1271489E+00
          2   -1    0    0  502    0  0.00000000000E+00  0.00000000000E+00  0.20832848117E+04  0.20832848117E+04  0.00000000000E+00 0. -1.
          1   -1    0    0  501    0 -0.00000000000E+00 -0.00000000000E+00 -0.11169010222E+03  0.11169010222E+03  0.00000000000E+00 0. -1.
         25    2    1    2    0    0 -0.11559847753E+03  0.16393784421E+03  0.51550388986E+03  0.56710503826E+03  0.12500095674E+03 0.  0.
          2    1    1    2  501    0  0.67299555511E+02 -0.67438149064E+02 -0.56942235685E+02  0.11099347875E+03  0.00000000000E+00 0. -1.
          1    1    1    2  502    0  0.48298922014E+02 -0.96499695144E+02  0.15130330553E+04  0.15168763969E+04  0.00000000000E+00 0. -1.
         22    1    3    3    0    0 -0.14018653523E+03  0.12677263380E+03  0.44777437015E+03  0.48603029937E+03  0.00000000000E+00 0. -1.
         22    1    3    3    0    0  0.24588057701E+02  0.37165210405E+02  0.67729519709E+02  0.81074738889E+02  0.00000000000E+00 0. -1.
</event>
<event>
 7    1  0.5736319E-006  0.5504272E+02  0.7818608E-02  0.1420053E+00
          2   -1    0    0  502    0  0.00000000000E+00  0.00000000000E+00  0.18022409703E+04  0.18022409703E+04  0.00000000000E+00 0. -1.
          1   -1    0    0  501    0 -0.00000000000E+00 -0.00000000000E+00 -0.14242083149E+04  0.14242083149E+04  0.00000000000E+00 0. -1.
         25    2    1    2    0    0  0.69450752331E+02  0.47466857518E+02  0.91360483934E+02  0.17620544842E+03  0.12500044986E+03 0.  0.
          2    1    1    2  501    0 -0.54728280575E+02  0.55020767645E+01 -0.13807852405E+04  0.13818803631E+04  0.00000000000E+00 0. -1.
          1    1    1    2  502    0 -0.14722471756E+02 -0.52968934282E+02  0.16674574121E+04  0.16683634736E+04  0.00000000000E+00 0. -1.
         22    1    3    3    0    0  0.10406828091E+03  0.50488308037E+02  0.65870550967E+02  0.13310975105E+03  0.00000000000E+00 0.  1.
         22    1    3    3    0    0 -0.34617528584E+02 -0.30214505195E+01  0.25489932966E+02  0.43095697362E+02  0.00000000000E+00 0.  1.
</event>
<event>
 7    1  0.5736319E-006  0.1651726E+03  0.7818608E-02  0.1208833E+00
          2   -1    0    0  502    0  0.00000000000E+00  0.00000000000E+00  0.54339124086E+03  0.54339124086E+03  0.00000000000E+00 0. -1.
          1   -1    0    0  501    0 -0.00000000000E+00 -0.00000000000E+00 -0.10270341753E+04  0.10270341753E+04  0.00000000000E+00 0. -1.
         25    2    1    2    0    0 -0.60887009497E+02 -0.21435917484E+02  0.13179305686E+03  0.19277637628E+03  0.12500637956E+03 0.  0.
          2    1    1    2  501    0  0.16275338864E+03 -0.50121163388E+02 -0.97882481649E+03  0.99352846860E+03  0.00000000000E+00 0. -1.
          1    1    1    2  502    0 -0.10186637914E+03  0.71557080872E+02  0.36338882519E+03  0.38412057130E+03  0.00000000000E+00 0. -1.
         22    1    3    3    0    0 -0.74721980595E+02 -0.53233270148E+02  0.51257979171E+02  0.10509298675E+03  0.00000000000E+00 0.  1.
         22    1    3    3    0    0  0.13834971098E+02  0.31797352664E+02  0.80535077688E+02  0.87683389533E+02  0.00000000000E+00 0.  1.
</event>
<event>
 7    1  0.5736319E-006  0.8819478E+02  0.7818608E-02  0.1454308E+00
          2   -1    0    0  502    0  0.00000000000E+00  0.00000000000E+00  0.18210980998E+04  0.18210980998E+04  0.00000000000E+00 0. -1.
          1   -1    0    0  501    0 -0.00000000000E+00 -0.00000000000E+00 -0.32424522499E+02  0.32424522499E+02  0.00000000000E+00 0. -1.
         25    2    1    2    0    0 -0.91167617239E+01  0.10567204445E+03  0.11692802566E+04  0.11807163456E+04  0.12500029615E+03 0.  0.
          2    1    1    2  501    0  0.79676101056E+01 -0.25309325622E+02 -0.16898947676E+02  0.31458213662E+02  0.00000000000E+00 0. -1.
          1    1    1    2  502    0  0.11491516183E+01 -0.80362718828E+02  0.63629226837E+03  0.64134806300E+03  0.00000000000E+00 0. -1.
         22    1    3    3    0    0  0.46107985782E+02  0.16063516968E+02  0.58471277208E+03  0.58674782383E+03  0.00000000000E+00 0. -1.
         22    1    3    3    0    0 -0.55224747506E+02  0.89608527482E+02  0.58456748448E+03  0.59396852176E+03  0.00000000000E+00 0. -1.
</event>
<event>
 7    1  0.5736319E-006  0.1263331E+03  0.7818608E-02  0.1322493E+00
          2   -1    0    0  502    0  0.00000000000E+00  0.00000000000E+00  0.14869390256E+04  0.14869390256E+04  0.00000000000E+00 0. -1.
          1   -1    0    0  501    0 -0.00000000000E+00 -0.00000000000E+00 -0.31753586324E+03  0.31753586324E+03  0.00000000000E+00 0. -1.
         25    2    1    2    0    0  0.10108171988E+03  0.85003098270E+02 -0.86842947172E+02  0.20152072770E+03  0.12500346159E+03 0.  0.
          2    1    1    2  501    0 -0.45470272673E+02  0.28546763385E+02 -0.16632492350E+03  0.17477540895E+03  0.00000000000E+00 0. -1.
          1    1    1    2  502    0 -0.55611447207E+02 -0.11354986166E+03  0.14225710330E+04  0.14281787522E+04  0.00000000000E+00 0. -1.
         22    1    3    3    0    0  0.14330861297E+02  0.93456298865E+02 -0.41260199793E+02  0.10315937897E+03  0.00000000000E+00 0. -1.
         22    1    3    3    0    0  0.86750858582E+02 -0.84532005945E+01 -0.45582747379E+02  0.98361348728E+02  0.00000000000E+00 0. -1.
</event>
<event>
 7    1  0.5736319E-006  0.1178048E+03  0.7818608E-02  0.1449702E+00
          2   -1    0    0  502    0  0.00000000000E+00  0.00000000000E+00  0.87757203883E+03  0.87757203883E+03  0.00000000000E+00 0. -1.
          1   -1    0    0  501    0 -0.00000000000E+00 -0.00000000000E+00 -0.26380491899E+03  0.26380491899E+03  0.00000000000E+00 0. -1.
         25    2    1    2    0    0 -0.94628034172E+02 -0.93579783935E+02 -0.39745611000E+02  0.18684862188E+03  0.12498421137E+03 0.  0.
          2    1    1    2  501    0  0.84352969407E+02  0.75784899516E+02 -0.12899478705E+03  0.17175106849E+03  0.00000000000E+00 0. -1.
          1    1    1    2  502    0  0.10275064765E+02  0.17794884419E+02  0.78250751790E+03  0.78277726745E+03  0.00000000000E+00 0. -1.
         22    1    3    3    0    0 -0.93302014632E+02 -0.62850208023E+02  0.24935422492E+02  0.11522668909E+03  0.00000000000E+00 0. -1.
         22    1    3    3    0    0 -0.13260195398E+01 -0.30729575913E+02 -0.64681033492E+02  0.71621932795E+02  0.00000000000E+00 0. -1.
</event>
<event>
 7    1  0.5736319E-006  0.4970312E+02  0.7818608E-02  0.1503783E+00
          2   -1    0    0  502    0  0.00000000000E+00  0.00000000000E+00  0.11001183685E+03  0.11001183685E+03  0.00000000000E+00 0. -1.
          1   -1    0    0  501    0 -0.00000000000E+00 -0.00000000000E+00 -0.28025423711E+03  0.28025423711E+03  0.00000000000E+00 0. -1.
         25    2    1    2    0    0  0.82406295169E+01 -0.45931258926E+02  0.43604519759E+02  0.14037104550E+03  0.12500035100E+03 0.  0.
          2    1    1    2  501    0  0.24851041335E+02  0.43546560061E+02 -0.21068319039E+03  0.21656704242E+03  0.00000000000E+00 0. -1.
          1    1    1    2  502    0 -0.33091670852E+02  0.23846988645E+01 -0.31637296317E+01  0.33327986043E+02  0.00000000000E+00 0. -1.
         22    1    3    3    0    0  0.20542177282E+02 -0.76576266740E+02 -0.73803635423E+01  0.79626474500E+02  0.00000000000E+00 0. -1.
         22    1    3    3    0    0 -0.12301547765E+02  0.30645007814E+02  0.50984883301E+02  0.60744571005E+02  0.00000000000E+00 0. -1.
</event>
<event>
 7    1  0.5736319E-006  0.8136146E+02  0.7818608E-02  0.1356678E+00
          2   -1    0    0  502    0  0.00000000000E+00  0.00000000000E+00  0.22938540036E+04  0.22938540036E+04  0.00000000000E+00 0. -1.
          1   -1    0    0  501    0 -0.00000000000E+00 -0.00000000000E+00 -0.30362347613E+02  0.30362347613E+02  0.00000000000E+00 0. -1.
         25    2    1    2    0    0  0.24608789206E+02  0.16968596305E+02  0.58804768841E+03  0.60192883568E+03  0.12499885447E+03 0.  0.
          2    1    1    2  501    0  0.36344969521E+02  0.50208460368E+02  0.21125180428E+02  0.65483735004E+02  0.00000000000E+00 0. -1.
          1    1    1    2  502    0 -0.60953758728E+02 -0.67177056672E+02  0.16543187871E+04  0.16568037805E+04  0.00000000000E+00 0. -1.
         22    1    3    3    0    0 -0.38486431577E+02  0.15955298389E+02  0.42593043788E+03  0.42796321673E+03  0.00000000000E+00 0. -1.
         22    1    3    3    0    0  0.63095220784E+02  0.10132979157E+01  0.16211725053E+03  0.17396561895E+03  0.00000000000E+00 0. -1.
</event>
<event>
 7    1  0.5736319E-006  0.4260208E+02  0.7818608E-02  0.1494999E+00
          2   -1    0    0  502    0  0.00000000000E+00  0.00000000000E+00  0.12636532694E+04  0.12636532694E+04  0.00000000000E+00 0. -1.
          1   -1    0    0  501    0 -0.00000000000E+00 -0.00000000000E+00 -0.26124273689E+03  0.26124273689E+03  0.00000000000E+00 0. -1.
         25    2    1    2    0    0  0.45692681693E+02  0.32092349746E+02  0.22261936070E+03  0.26134789630E+03  0.12500241227E+03 0.  0.
          2    1    1    2  501    0 -0.39832720182E+02  0.10200309847E+02 -0.23968092345E+03  0.24318231223E+03  0.00000000000E+00 0. -1.
          1    1    1    2  502    0 -0.58599615109E+01 -0.42292659593E+02  0.10194720953E+04  0.10203657978E+04  0.00000000000E+00 0. -1.
         22    1    3    3    0    0 -0.70631585648E+01  0.27447944564E+02 -0.39995743295E+01  0.28622970924E+02  0.00000000000E+00 0.  1.
         22    1    3    3    0    0  0.52755840257E+02  0.46444051824E+01  0.22661893503E+03  0.23272492538E+03  0.00000000000E+00 0.  1.
</event>
<event>
 7    1  0.5736319E-006  0.5475624E+02  0.7818608E-02  0.1421653E+00
          2   -1    0    0  502    0  0.00000000000E+00  0.00000000000E+00  0.12985790893E+03  0.12985790893E+03  0.00000000000E+00 0. -1.
          1   -1    0    0  501    0 -0.00000000000E+00 -0.00000000000E+00 -0.27563252532E+04  0.27563252532E+04  0.00000000000E+00 0. -1.
         25    2    1    2    0    0  0.20817318135E+01  0.62772775768E+02 -0.90746205888E+03  0.91818171300E+03  0.12500205913E+03 0.  0.
          2    1    1    2  501    0 -0.46588346768E+02 -0.30875962707E+02 -0.18370370619E+04  0.18378870929E+04  0.00000000000E+00 0. -1.
          1    1    1    2  502    0  0.44506614954E+02 -0.31896813060E+02  0.11803177651E+03  0.13011435633E+03  0.00000000000E+00 0. -1.
         22    1    3    3    0    0  0.29334693742E+02  0.82701651208E+01 -0.49999024231E+02  0.58556146664E+02  0.00000000000E+00 0.  1.
         22    1    3    3    0    0 -0.27252961928E+02  0.54502610647E+02 -0.85746303465E+03  0.85962556633E+03  0.00000000000E+00 0.  1.
</event>
<event>
 7    1  0.5736319E-006  0.1888841E+03  0.7818608E-02  0.1213712E+00
          2   -1    0    0  502    0  0.00000000000E+00  0.00000000000E+00  0.32911213942E+04  0.32911213942E+04  0.00000000000E+00 0. -1.
          1   -1    0    0  501    0 -0.00000000000E+00 -0.00000000000E+00 -0.23835071818E+03  0.23835071818E+03  0.00000000000E+00 0. -1.
         25    2    1    2    0    0  0.92775575330E+02 -0.64849722118E+02  0.32160148576E+03  0.36313222785E+03  0.12499882168E+03 0.  0.
          2    1    1    2  501    0 -0.19453150131E+03  0.46788081339E+02 -0.17047482266E+03  0.26285603421E+03  0.00000000000E+00 0. -1.
          1    1    1    2  502    0  0.10175592598E+03  0.18061640779E+02  0.29016440129E+04  0.29034838503E+04  0.00000000000E+00 0. -1.
         22    1    3    3    0    0  0.27089806488E+01  0.34416041792E+02  0.70340911391E+02  0.78355895273E+02  0.00000000000E+00 0. -1.
         22    1    3    3    0    0  0.90066594681E+02 -0.99265763910E+02  0.25126057437E+03  0.28477633258E+03  0.00000000000E+00 0. -1.
</event>
<event>
 7    1  0.5736319E-006  0.7588280E+02  0.7818608E-02  0.1455214E+00
          2   -1    0    0  502    0  0.00000000000E+00  0.00000000000E+00  0.36612895097E+03  0.36612895097E+03  0.00000000000E+00 0. -1.
          1   -1    0    0  501    0 -0.00000000000E+00 -0.00000000000E+00 -0.94302717170E+03  0.94302717170E+03  0.00000000000E+00 0. -1.
         25    2    1    2    0    0 -0.39573715243E+02 -0.42956966474E+02 -0.32726775471E+03  0.35516457225E+03  0.12500524070E+03 0.  0.
          2    1    1    2  501    0 -0.29002885120E+02  0.98664179488E+01 -0.59729825925E+03  0.59808337550E+03  0.00000000000E+00 0. -1.
          1    1    1    2  502    0  0.68576600363E+02  0.33090548525E+02  0.34766779323E+03  0.35590817491E+03  0.00000000000E+00 0. -1.
         22    1    3    3    0    0 -0.26327358004E+02 -0.82526244901E+02 -0.27478293878E+03  0.28811347473E+03  0.00000000000E+00 0.  1.
         22    1    3    3    0    0 -0.13246357239E+02  0.39569278428E+02 -0.52484815932E+02  0.67051097521E+02  0.00000000000E+00 0.  1.
</event>
<event>
 7    1  0.5736319E-006  0.1039461E+03  0.7818608E-02  0.1329133E+00
          2   -1    0    0  502    0  0.00000000000E+00  0.00000000000E+00  0.48425607804E+02  0.48425607804E+02  0.00000000000E+00 0. -1.
          1   -1    0    0  501    0 -0.00000000000E+00 -0.00000000000E+00 -0.24825606961E+04  0.24825606961E+04  0.00000000000E+00 0. -1.
         25    2    1    2    0    0 -0.49969871224E+01 -0.96387931233E+02 -0.50730895343E+03  0.53132418441E+03  0.12500964579E+03 0.  0.
          2    1    1    2  501    0  0.61330206059E+02  0.49059601534E+01 -0.18823972317E+04  0.18834024531E+04  0.00000000000E+00 0. -1.
          1    1    1    2  502    0 -0.56333218937E+02  0.91481971080E+02 -0.44428903209E+02  0.11625966639E+03  0.00000000000E+00 0. -1.
         22    1    3    3    0    0 -0.31335915732E+02  0.15060113074E+02 -0.57742615189E+02  0.67401455692E+02  0.00000000000E+00 0. -1.
         22    1    3    3    0    0  0.26338928610E+02 -0.11144804431E+03 -0.44956633825E+03  0.46392272872E+03  0.00000000000E+00 0. -1.
</event>
<event>
 7    1  0.5736319E-006  0.6558585E+02  0.7818608E-02  0.1404524E+00
          2   -1    0    0  502    0  0.00000000000E+00  0.00000000000E+00  0.14172413314E+04  0.14172413314E+04  0.00000000000E+00 0. -1.
          1   -1    0    0  501    0 -0.00000000000E+00 -0.00000000000E+00 -0.31802463660E+03  0.31802463660E+03  0.00000000000E+00 0. -1.
         25    2    1    2    0    0 -0.78955142500E+02 -0.85562808637E+02  0.12401451916E+03  0.21109200447E+03  0.12500129854E+03 0.  0.
          2    1    1    2  501    0  0.37994607658E+02  0.35592818254E+02 -0.27117287474E+03  0.27612527396E+03  0.00000000000E+00 0. -1.
          1    1    1    2  502    0  0.40960534842E+02  0.49969990383E+02  0.12463750503E+04  0.12480486895E+04  0.00000000000E+00 0. -1.
         22    1    3    3    0    0  0.23484199822E+02 -0.41649838984E+02  0.75877799471E+02  0.89686438112E+02  0.00000000000E+00 0.  1.
         22    1    3    3    0    0 -0.10243934232E+03 -0.43912969653E+02  0.48136719692E+02  0.12140556635E+03  0.00000000000E+00 0.  1.
</event>
<event>
 7    1  0.5736319E-006  0.8489465E+02  0.7818608E-02  0.1321828E+00
          2   -1    0    0  502    0  0.00000000000E+00  0.00000000000E+00  0.21970692681E+03  0.21970692681E+03  0.00000000000E+00 0. -1.
          1   -1    0    0  501    0 -0.00000000000E+00 -0.00000000000E+00 -0.97107739717E+03  0.97107739717E+03  0.00000000000E+00 0. -1.
         25    2    1    2    0    0  0.15761210199E+03  0.34643368369E+02 -0.19296260315E+03  0.28089313605E+03  0.12499860000E+03 0.  0.
          2    1    1    2  501    0 -0.76364458863E+02 -0.25055174154E+02 -0.72227712305E+03  0.72673484491E+03  0.00000000000E+00 0. -1.
          1    1    1    2  502    0 -0.81247643125E+02 -0.95881942147E+01  0.16386925583E+03  0.18315634302E+03  0.00000000000E+00 0. -1.
         22    1    3    3    0    0 -0.68065960985E+01  0.24044790994E+02 -0.72799400928E+02  0.76969048974E+02  0.00000000000E+00 0.  1.
         22    1    3    3    0    0  0.16441869809E+03  0.10598577375E+02 -0.12016320222E+03  0.20392408708E+03  0.00000000000E+00 0.  1.
</event>
<event>
 7    1  0.5736319E-006  0.4623988E+02  0.7818608E-02  0.1474366E+00
          2   -1    0    0  502    0  0.00000000000E+00  0.00000000000E+00  0.22764373394E+04  0.22764373394E+04  0.00000000000E+00 0. -1.
          1   -1    0    0  501    0 -0.00000000000E+00 -0.00000000000E+00 -0.68866099386E+02  0.68866099386E+02  0.00000000000E+00 0. -1.
         25    2    1    2    0    0  0.83904365979E+01  0.52954718091E+01  0.17124983464E+03  0.21225128534E+03  0.12500264323E+03 0.  0.
          2    1    1    2  501    0 -0.30550059103E+01 -0.48754831063E+02 -0.35739716842E+02  0.60528455895E+02  0.00000000000E+00 0. -1.
          1    1    1    2  502    0 -0.53354306876E+01  0.43459359254E+02  0.20720611222E+04  0.20725236976E+04  0.00000000000E+00 0. -1.
         22    1    3    3    0    0  0.45688332076E+02  0.61004665056E+00  0.16847134955E+03  0.17455770239E+03  0.00000000000E+00 0.  1.
         22    1    3    3    0    0 -0.37297895478E+02  0.46854251586E+01  0.27784850902E+01  0.37693582947E+02  0.00000000000E+00 0.  1.
</event>
<event>
 7    1  0.5736319E-006  0.1294513E+03  0.7818608E-02  0.1306158E+00
          2   -1    0    0  502    0  0.00000000000E+00  0.00000000000E+00  0.63234381669E+03  0.63234381669E+03  0.00000000000E+00 0. -1.
          1   -1    0    0  501    0 -0.00000000000E+00 -0.00000000000E+00 -0.17420304245E+03  0.17420304245E+03  0.00000000000E+00 0. -1.
         25    2    1    2    0    0  0.13707527007E+03 -0.50377747409E+02  0.20881880065E+03  0.28382743797E+03  0.12500070377E+03 0.  0.
          2    1    1    2  501    0 -0.98795533649E+01  0.59897105056E+02 -0.11864418319E+03  0.13327306920E+03  0.00000000000E+00 0. -1.
          1    1    1    2  502    0 -0.12719571670E+03 -0.95193576465E+01  0.36796615679E+03  0.38944635197E+03  0.00000000000E+00 0. -1.
         22    1    3    3    0    0  0.72807818860E+02 -0.17538097376E+02  0.14156174556E+02  0.76216537738E+02  0.00000000000E+00 0.  1.
         22    1    3    3    0    0  0.64267451207E+02 -0.32839650033E+02  0.19466262609E+03  0.20761090023E+03  0.00000000000E+00 0.  1.
</event>
<event>
 7    1  0.5736319E-006  0.1390169E+03  0.7818608E-02  0.1236168E+00
          2   -1    0    0  502    0  0.00000000000E+00  0.00000000000E+00  0.41513088269E+03  0.41513088269E+03  0.00000000000E+00 0. -1.
          1   -1    0    0  501    0 -0.00000000000E+00 -0.00000000000E+00 -0.12230897111E+04  0.12230897111E+04  0.00000000000E+00 0. -1.
         25    2    1    2    0    0  0.17934267481E+03  0.16761351256E+03 -0.25074596202E+03  0.37250026349E+03  0.12499929693E+03 0.  0.
          2    1    1    2  501    0 -0.77109425559E+02 -0.80038758287E+02 -0.89511653718E+03  0.90198984555E+03  0.00000000000E+00 0. -1.
          1    1    1    2  502    0 -0.10223324925E+03 -0.87574754270E+02  0.33790367077E+03  0.36373048478E+03  0.00000000000E+00 0. -1.
         22    1    3    3    0    0  0.24994968918E+01  0.51777636091E+02 -0.10070400739E+03  0.11326282792E+03  0.00000000000E+00 0.  1.
         22    1    3    3    0    0  0.17684317792E+03  0.11583587647E+03 -0.15004195463E+03  0.25923743557E+03  0.00000000000E+00 0.  1.
</event>
<event>
 7    1  0.5736319E-006  0.5252350E+02  0.7818608E-02  0.1446786E+00
          2   -1    0    0  502    0  0.00000000000E+00  0.00000000000E+00  0.10100942983E+04  0.10100942983E+04  0.00000000000E+00 0. -1.
          1   -1    0    0  501    0 -0.00000000000E+00 -0.00000000000E+00 -0.41621753893E+02  0.41621753893E+02  0.00000000000E+00 0. -1.
         25    2    1    2    0    0 -0.81503493326E+02  0.54614074578E+02  0.64187367157E+03  0.66125027154E+03  0.12499837914E+03 0.  0.
          2    1    1    2  501    0  0.42214872688E+02 -0.28652716958E+02 -0.88029889103E+01  0.51774185448E+02  0.00000000000E+00 0. -1.
          1    1    1    2  502    0  0.39288620638E+02 -0.25961357621E+02  0.33540186176E+03  0.33869159522E+03  0.00000000000E+00 0. -1.
         22    1    3    3    0    0 -0.94317220709E+02  0.84067673052E+02  0.49097891904E+03  0.50697476339E+03  0.00000000000E+00 0. -1.
         22    1    3    3    0    0  0.12813727383E+02 -0.29453598474E+02  0.15089475253E+03  0.15427550815E+03  0.00000000000E+00 0. -1.
</event>
<event>
 7    1  0.5736319E-006  0.8865253E+02  0.7818608E-02  0.1420446E+00
          2   -1    0    0  502    0  0.00000000000E+00  0.00000000000E+00  0.54197355078E+03  0.54197355078E+03  0.00000000000E+00 0. -1.
          1   -1    0    0  501    0 -0.00000000000E+00 -0.00000000000E+00 -0.30090854216E+03  0.30090854216E+03  0.00000000000E+00 0. -1.
         25    2    1    2    0    0  0.55477394177E+02 -0.36901420201E+02  0.11845461716E+03  0.18464971803E+03  0.12499826385E+03 0.  0.
          2    1    1    2  501    0 -0.55261462421E+02  0.70931806190E+02 -0.25948593824E+03  0.27462356509E+03  0.00000000000E+00 0. -1.
          1    1    1    2  502    0 -0.21593175597E+00 -0.34030385988E+02  0.38209632970E+03  0.38360880981E+03  0.00000000000E+00 0. -1.
         22    1    3    3    0    0  0.61242124534E+02  0.14645637834E+02  0.91072164352E+01  0.63624161419E+02  0.00000000000E+00 0. -1.
         22    1    3    3    0    0 -0.57647303569E+01 -0.51547058035E+02  0.10934740073E+03  0.12102555661E+03  0.00000000000E+00 0. -1.
</event>
<event>
 7    1  0.5736319E-006  0.6898803E+02  0.7818608E-02  0.1482670E+00
          2   -1    0    0  502    0  0.00000000000E+00  0.00000000000E+00  0.61353445332E+03  0.61353445332E+03  0.00000000000E+00 0. -1.
          1   -1    0    0  501    0 -0.00000000000E+00 -0.00000000000E+00 -0.47533353194E+03  0.47533353194E+03  0.00000000000E+00 0. -1.
         25    2    1    2    0    0 -0.20272493470E+02  0.50813570480E+02 -0.32592318019E+03  0.35333303130E+03  0.12500127474E+03 0.  0.
          2    1    1    2  501    0  0.35528789356E+02 -0.73900667683E+02 -0.12296330652E+03  0.14779573170E+03  0.00000000000E+00 0. -1.
          1    1    1    2  502    0 -0.15256295886E+02  0.23087097203E+02  0.58708740810E+03  0.58773922225E+03  0.00000000000E+00 0. -1.
         22    1    3    3    0    0  0.51186012816E+02  0.57801738774E+01 -0.10948416720E+03  0.12099669907E+03  0.00000000000E+00 0. -1.
         22    1    3    3    0    0 -0.71458506286E+02  0.45033396602E+02 -0.21643901300E+03  0.23233633224E+03  0.00000000000E+00 0. -1.
</event>
<event>
 7    1  0.5736319E-006  0.1472763E+03  0.7818608E-02  0.1351620E+00
          2   -1    0    0  502    0  0.00000000000E+00  0.00000000000E+00  0.12517776148E+03  0.12517776148E+03  0.00000000000E+00 0. -1.
          1   -1    0    0  501    0 -0.00000000000E+00 -0.00000000000E+00 -0.45887842052E+03  0.45887842052E+03  0.00000000000E+00 0. -1.
         25    2    1    2    0    0  0.12696660167E+03 -0.10961971174E+03 -0.19323389714E+03  0.28478219179E+03  0.12499823444E+03 0.  0.
          2    1    1    2  501    0 -0.35736569180E+02  0.62424250702E+00 -0.15249623271E+03  0.15662883848E+03  0.00000000000E+00 0. -1.
          1    1    1    2  502    0 -0.91230032490E+02  0.10899546923E+03  0.12029470809E+02  0.14264515172E+03  0.00000000000E+00 0. -1.
         22    1    3    3    0    0  0.15146026902E+03 -0.94423328041E+02 -0.17844157427E+03  0.25238338574E+03  0.00000000000E+00 0.  1.
         22    1    3    3    0    0 -0.24493667346E+02 -0.15196383700E+02 -0.14792322875E+02  0.32398806053E+02  0.00000000000E+00 0.  1.
</event>
<event>
 7    1  0.5736319E-006  0.5137917E+02  0.7818608E-02  0.1476624E+00
          2   -1    0    0  502    0  0.00000000000E+00  0.00000000000E+00  0.21631620212E+04  0.21631620212E+04  0.00000000000E+00 0. -1.
          1   -1    0    0  501    0 -0.00000000000E+00 -0.00000000000E+00 -0.22903174789E+03  0.22903174789E+03  0.00000000000E+00 0. -1.
         25    2    1    2    0    0 -0.10935015169E+02  0.14851463151E+02  0.20325580329E+02  0.12798221295E+03  0.12500470832E+03 0.  0.
          2    1    1    2  501    0 -0.38765972298E+02 -0.99093470784E+00 -0.17273481530E+03  0.17703417460E+03  0.00000000000E+00 0. -1.
          1    1    1    2  502    0  0.49700987467E+02 -0.13860528443E+02  0.20865395082E+04  0.20871773815E+04  0.00000000000E+00 0. -1.
         22    1    3    3    0    0  0.31528050740E+02  0.22300984919E+02  0.58701031519E+02  0.70264948682E+02  0.00000000000E+00 0. -1.
         22    1    3    3    0    0 -0.42463065909E+02 -0.74495217681E+01 -0.38375451190E+02  0.57717264272E+02  0.00000000000E+00 0. -1.
</event>
<event>
 7    1  0.5736319E-006  0.1314831E+03  0.7818608E-02  0.1275225E+00
          2   -1    0    0  502    0  0.00000000000E+00  0.00000000000E+00  0.87047988616E+03  0.87047988616E+03  0.00000000000E+00 0. -1.
          1   -1    0    0  501    0 -0.00000000000E+00 -0.00000000000E+00 -0.12126056679E+03  0.12126056679E+03  0.00000000000E+00 0. -1.
         25    2    1    2    0    0  0.56396824815E+02 -0.41107721838E+02  0.21462953976E+03  0.25799501826E+03  0.12500057385E+03 0.  0.
          2    1    1    2  501    0 -0.13454059739E+03  0.57423135542E+02 -0.41575673475E+02  0.15207605159E+03  0.00000000000E+00 0. -1.
          1    1    1    2  502    0  0.78143772579E+02 -0.16315413704E+02  0.57616545308E+03  0.58166938310E+03  0.00000000000E+00 0. -1.
         22    1    3    3    0    0  0.87250186082E+02 -0.46317267096E+02  0.20080544386E+03  0.22378719911E+03  0.00000000000E+00 0.  1.
         22    1    3    3    0    0 -0.30853361268E+02  0.52095452582E+01  0.13824095905E+02  0.34207819148E+02  0.00000000000E+00 0.  1.
</event>
<event>
 7    1  0.1072944E-005  0.4164248E+02  0.7818608E-02  0.1594342E+00
          2   -1    0    0  502    0  0.00000000000E+00  0.00000000000E+00  0.19942544543E+04  0.19942544543E+04  0.00000000000E+00 0. -1.
          1   -1    0    0  501    0 -0.00000000000E+00 -0.00000000000E+00 -0.92290176513E+03  0.92290176513E+03  0.00000000000E+00 0. -1.
         25    2    1    2    0    0  0.24064745080E+01  0.62595252196E+02 -0.56053300804E+03  0.57770781530E+03  0.12500044015E+03 0.  0.
          2    1    1    2  501    0 -0.64212099515E+01 -0.21154627195E+02 -0.35321748188E+03  0.35390866010E+03  0.00000000000E+00 0. -1.
          1    1    1    2  502    0  0.40147354435E+01 -0.41440625000E+02  0.19851031790E+04  0.19855397440E+04  0.00000000000E+00 0. -1.
         22    1    3    3    0    0  0.78083731705E+01  0.29526622376E+02 -0.20836821392E+02  0.36972493103E+02  0.00000000000E+00 0. -1.
         22    1    3    3    0    0 -0.54018986626E+01  0.33068629820E+02 -0.53969618665E+03  0.54073532220E+03  0.00000000000E+00 0. -1.
</event>
<event>
 7    1  0.5736319E-006  0.5062752E+02  0.7818608E-02  0.1543317E+00
          2   -1    0    0  502    0  0.00000000000E+00  0.00000000000E+00  0.71808172995E+03  0.71808172995E+03  0.00000000000E+00 0. -1.
          1   -1    0    0  501    0 -0.00000000000E+00 -0.00000000000E+00 -0.29154819779E+03  0.29154819779E+03  0.00000000000E+00 0. -1.
         25    2    1    2    0    0 -0.74978658242E+01 -0.28763542128E+02  0.23499845691E+03  0.26783947231E+03  0.12502059361E+03 0.  0.
          2    1    1    2  501    0 -0.47114072916E+01  0.50620799360E+02 -0.27243871039E+03  0.27714168508E+03  0.00000000000E+00 0. -1.
          1    1    1    2  502    0  0.12209273116E+02 -0.21857257232E+02  0.46397378563E+03  0.46464877036E+03  0.00000000000E+00 0. -1.
         22    1    3    3    0    0  0.29995439622E+02 -0.50904950619E+02  0.48843485745E+02  0.76659810170E+02  0.00000000000E+00 0. -1.
         22    1    3    3    0    0 -0.37493305447E+02  0.22141408491E+02  0.18615497117E+03  0.19117966214E+03  0.00000000000E+00 0. -1.
</event>
<event>
 7    1  0.1858410E-005  0.9560114E+02  0.7818608E-02  0.1328268E+00
          2   -1    0    0  502    0  0.00000000000E+00  0.00000000000E+00  0.23489537227E+04  0.23489537227E+04  0.00000000000E+00 0. -1.
          1   -1    0    0  501    0 -0.00000000000E+00 -0.00000000000E+00 -0.14967790529E+04  0.14967790529E+04  0.00000000000E+00 0. -1.
         25    2    1    2    0    0 -0.13423077927E+02 -0.68209282186E+02 -0.31389232344E+03  0.34494558759E+03  0.12500552982E+03 0.  0.
          2    1    1    2  501    0  0.66415828323E+02 -0.11525920338E+02 -0.11654037264E+04  0.11673515985E+04  0.00000000000E+00 0. -1.
          1    1    1    2  502    0 -0.52992750397E+02  0.79735202525E+02  0.23314707196E+04  0.23334355895E+04  0.00000000000E+00 0. -1.
         22    1    3    3    0    0 -0.50265258694E+02  0.82165669567E+01 -0.68922256982E+02  0.85699391547E+02  0.00000000000E+00 0.  1.
         22    1    3    3    0    0  0.36842180767E+02 -0.76425849143E+02 -0.24497006646E+03  0.25924619604E+03  0.00000000000E+00 0.  1.
</event>
<event>
 7    1  0.5736319E-006  0.6600103E+02  0.7818608E-02  0.1428997E+00
          2   -1    0    0  502    0  0.00000000000E+00  0.00000000000E+00  0.11949401267E+04  0.11949401267E+04  0.00000000000E+00 0. -1.
          1   -1    0    0  501    0 -0.00000000000E+00 -0.00000000000E+00 -0.67628671518E+03  0.67628671518E+03  0.00000000000E+00 0. -1.
         25    2    1    2    0    0  0.27741699962E+02  0.22394916954E+02  0.12975466251E+02  0.13063173547E+03  0.12500061346E+03 0.  0.
          2    1    1    2  501    0 -0.96441184459E+01  0.41720280903E+02 -0.61572642020E+03  0.61721358977E+03  0.00000000000E+00 0. -1.
          1    1    1    2  502    0 -0.18097581516E+02 -0.64115197857E+02  0.11214043655E+04  0.11233815167E+04  0.00000000000E+00 0. -1.
         22    1    3    3    0    0  0.74629113958E+02 -0.24112119606E+01  0.19538996397E+02  0.77182193371E+02  0.00000000000E+00 0. -1.
         22    1    3    3    0    0 -0.46887413996E+02  0.24806128914E+02 -0.65635301458E+01  0.53449542102E+02  0.00000000000E+00 0. -1.
</event>
<event>
 7    1  0.5736319E-006  0.1982694E+03  0.7818608E-02  0.1211464E+00
          2   -1    0    0  502    0  0.00000000000E+00  0.00000000000E+00  0.38795817077E+03  0.38795817077E+03  0.00000000000E+00 0. -1.
          1   -1    0    0  501    0 -0.00000000000E+00 -0.00000000000E+00 -0.10376163695E+04  0.10376163695E+04  0.00000000000E+00 0. -1.
         25    2    1    2    0    0  0.14318354203E+03  0.16766600222E+03  0.16036428666E+03  0.29992421210E+03  0.12499765422E+03 0.  0.
          2    1    1    2  501    0 -0.18349176696E+03 -0.75237965921E+02 -0.94025610629E+03  0.96094303966E+03  0.00000000000E+00 0. -1.
          1    1    1    2  502    0  0.40308224927E+02 -0.92428036295E+02  0.13023362088E+03  0.16470728854E+03  0.00000000000E+00 0. -1.
         22    1    3    3    0    0  0.15021076338E+03  0.11212841962E+03  0.15583046764E+03  0.24376051888E+03  0.00000000000E+00 0. -1.
         22    1    3    3    0    0 -0.70272213478E+01  0.55537582595E+02  0.45338190144E+01  0.56163693212E+02  0.00000000000E+00 0. -1.
</event>
<event>
 7    1  0.5736319E-006  0.6828593E+02  0.7818608E-02  0.1515253E+00
          2   -1    0    0  502    0  0.00000000000E+00  0.00000000000E+00  0.11808770551E+04  0.11808770551E+04  0.00000000000E+00 0. -1.
          1   -1    0    0  501    0 -0.00000000000E+00 -0.00000000000E+00 -0.36072406033E+03  0.36072406033E+03  0.00000000000E+00 0. -1.
         25    2    1    2    0    0 -0.85262186114E+02  0.12327031909E+02  0.67752546174E+03  0.69432554758E+03  0.12500247446E+03 0.  0.
          2    1    1    2  501    0  0.64797897074E+02 -0.21291019089E+02 -0.34876683612E+03  0.35537357940E+03  0.00000000000E+00 0. -1.
          1    1    1    2  502    0  0.20464289040E+02  0.89639871801E+01  0.49139436919E+03  0.49190198847E+03  0.00000000000E+00 0. -1.
         22    1    3    3    0    0 -0.45769722395E+02  0.68120406969E+01  0.63246215384E+03  0.63415270041E+03  0.00000000000E+00 0.  1.
         22    1    3    3    0    0 -0.39492463720E+02  0.55149912122E+01  0.45063307900E+02  0.60172847179E+02  0.00000000000E+00 0.  1.
</event>
<event>
 7    1  0.5736319E-006  0.3497820E+02  0.7818608E-02  0.1582048E+00
          2   -1    0    0  502    0  0.00000000000E+00  0.00000000000E+00  0.76409689849E+02  0.76409689849E+02  0.00000000000E+00 0. -1.
          1   -1    0    0  501    0 -0.00000000000E+00 -0.00000000000E+00 -0.14711886041E+04  0.14711886041E+04  0.00000000000E+00 0. -1.
         25    2    1    2    0    0  0.23204504459E+02 -0.19679908151E+02 -0.25754196138E+03  0.28788602443E+03  0.12499901352E+03 0.  0.
          2    1    1    2  501    0  0.11503547173E+02  0.25936003568E+02 -0.11932142423E+04  0.11935515221E+04  0.00000000000E+00 0. -1.
          1    1    1    2  502    0 -0.34708051632E+02 -0.62560954176E+01  0.55977289383E+02  0.66160747461E+02  0.00000000000E+00 0. -1.
         22    1    3    3    0    0  0.10938327374E+02  0.50670992644E+02 -0.15077998447E+03  0.15944215321E+03  0.00000000000E+00 0.  1.
         22    1    3    3    0    0  0.12266177085E+02 -0.70350900794E+02 -0.10676197690E+03  0.12844387122E+03  0.00000000000E+00 0.  1.
</event>
<event>
 7    1  0.5736319E-006  0.5495257E+02  0.7818608E-02  0.1505885E+00
          2   -1    0    0  502    0  0.00000000000E+00  0.00000000000E+00  0.38043423021E+03  0.38043423021E+03  0.00000000000E+00 0. -1.
          1   -1    0    0  501    0 -0.00000000000E+00 -0.00000000000E+00 -0.73433174181E+03  0.73433174181E+03  0.00000000000E+00 0. -1.
         25    2    1    2    0    0  0.23552764956E+02  0.23022120898E+02 -0.10853655214E+03  0.16879100509E+03  0.12500187784E+03 0.  0.
          2    1    1    2  501    0  0.29023908536E+02 -0.57125111088E+01 -0.59311045944E+03  0.59384765483E+03  0.00000000000E+00 0. -1.
          1    1    1    2  502    0 -0.52576673492E+02 -0.17309609790E+02  0.34774949999E+03  0.35212731210E+03  0.00000000000E+00 0. -1.
         22    1    3    3    0    0  0.27428245988E+02 -0.33940290844E+02 -0.10247083747E+03  0.11137560124E+03  0.00000000000E+00 0. -1.
         22    1    3    3    0    0 -0.38754810319E+01  0.56962411742E+02 -0.60657146682E+01  0.57415403849E+02  0.00000000000E+00 0. -1.
</event>
<event>
 7    1  0.5736319E-006  0.7580925E+02  0.7818608E-02  0.1379938E+00
          2   -1    0    0  502    0  0.00000000000E+00  0.00000000000E+00  0.41513380311E+03  0.41513380311E+03  0.00000000000E+00 0. -1.
          1   -1    0    0  501    0 -0.00000000000E+00 -0.00000000000E+00 -0.44213586388E+03  0.44213586388E+03  0.00000000000E+00 0. -1.
         25    2    1    2    0    0  0.78856936215E+02 -0.98732229254E+01 -0.41832566600E+02  0.15391895738E+03  0.12500073957E+03 0.  0.
          2    1    1    2  501    0 -0.51327410801E+02  0.57307263699E+02 -0.33781578666E+03  0.34646519492E+03  0.00000000000E+00 0. -1.
          1    1    1    2  502    0 -0.27529525415E+02 -0.47434040773E+02  0.35264629249E+03  0.35688551470E+03  0.00000000000E+00 0. -1.
         22    1    3    3    0    0  0.18449491830E+02 -0.22964838975E+02 -0.77253465200E+02  0.82679292832E+02  0.00000000000E+00 0. -1.
         22    1    3    3    0    0  0.60407444385E+02  0.13091616050E+02  0.35420898600E+02  0.71239664552E+02  0.00000000000E+00 0. -1.
</event>
<event>
 7    1  0.5736319E-006  0.4555758E+02  0.7818608E-02  0.1525206E+00
          2   -1    0    0  502    0  0.00000000000E+00  0.00000000000E+00  0.36321447531E+03  0.36321447531E+03  0.00000000000E+00 0. -1.
          1   -1    0    0  501    0 -0.00000000000E+00 -0.00000000000E+00 -0.42555514549E+03  0.42555514549E+03  0.00000000000E+00 0. -1.
         25    2    1    2    0    0 -0.39723458367E+02  0.25888783990E+02 -0.12518147341E+03  0.18314890239E+03  0.12499974752E+03 0.  0.
          2    1    1    2  501    0  0.25909837741E+02  0.17617285601E+02 -0.26891765221E+03  0.27073675796E+03  0.00000000000E+00 0. -1.
          1    1    1    2  502    0  0.13813620626E+02 -0.43506069591E+02  0.33175845544E+03  0.33488396044E+03  0.00000000000E+00 0. -1.
         22    1    3    3    0    0 -0.82251185727E+02  0.12411884966E+02 -0.54100596383E+02  0.99227954584E+02  0.00000000000E+00 0.  1.
         22    1    3    3    0    0  0.42527727360E+02  0.13476899024E+02 -0.71080877025E+02  0.83920947804E+02  0.00000000000E+00 0.  1.
</event>
<event>
 7    1  0.5736319E-006  0.3627373E+02  0.7818608E-02  0.1580012E+00
          2   -1    0    0  502    0  0.00000000000E+00  0.00000000000E+00  0.40401843695E+02  0.40401843695E+02  0.00000000000E+00 0. -1.
          1   -1    0    0  501    0 -0.00000000000E+00 -0.00000000000E+00 -0.20055785465E+04  0.20055785465E+04  0.00000000000E+00 0. -1.
         25    2    1    2    0    0  0.41047845587E+02  0.79769388925E+01 -0.17187317406E+03  0.21659674040E+03  0.12500081124E+03 0.  0.
          2    1    1    2  501    0 -0.18342584348E+02  0.20763261713E+02 -0.17925346169E+04  0.17927487041E+04  0.00000000000E+00 0. -1.
          1    1    1    2  502    0 -0.22705261238E+02 -0.28740200606E+02 -0.76891187003E+00  0.36634945670E+02  0.00000000000E+00 0. -1.
         22    1    3    3    0    0  0.24582958355E+02 -0.54404285769E+02 -0.11917563876E+03  0.13329283936E+03  0.00000000000E+00 0.  1.
         22    1    3    3    0    0  0.16464887232E+02  0.62381224661E+02 -0.52697535298E+02  0.83303901039E+02  0.00000000000E+00 0.  1.
</event>
<event>
 7    1  0.5736319E-006  0.1696251E+03  0.7818608E-02  0.1279012E+00
          2   -1    0    0  502    0  0.00000000000E+00  0.00000000000E+00  0.12721657894E+03  0.12721657894E+03  0.00000000000E+00 0. -1.
          1   -1    0    0  501    0 -0.00000000000E+00 -0.00000000000E+00 -0.20528168904E+04  0.20528168904E+04  0.00000000000E+00 0. -1.
         25    2    1    2    0    0 -0.11499625406E+02 -0.21169304656E+03 -0.73255625215E+03  0.77279506579E+03  0.12500945483E+03 0.  0.
          2    1    1    2  501    0 -0.31103181910E+02  0.50932334948E+02 -0.12344176143E+04  0.12358593598E+04  0.00000000000E+00 0. -1.
          1    1    1    2  502    0  0.42602807316E+02  0.16076071161E+03  0.41373554999E+02  0.17137904376E+03  0.00000000000E+00 0. -1.
         22    1    3    3    0    0 -0.26913968558E+02 -0.21364922048E+03 -0.72337743908E+03  0.75474848161E+03  0.00000000000E+00 0.  1.
         22    1    3    3    0    0  0.15414343152E+02  0.19561739207E+01 -0.91788130634E+01  0.18046584177E+02  0.00000000000E+00 0.  1.
</event>
<event>
 7    1  0.5736319E-006  0.1371584E+03  0.7818608E-02  0.1378552E+00
          2   -1    0    0  502    0  0.00000000000E+00  0.00000000000E+00  0.12878306052E+02  0.12878306052E+02  0.00000000000E+00 0. -1.
          1   -1    0    0  501    0 -0.00000000000E+00 -0.00000000000E+00 -0.41780896358E+04  0.41780896358E+04  0.00000000000E+00 0. -1.
         25    2    1    2    0    0  0.12753050622E+03  0.42416785608E+02 -0.33990540663E+04  0.34040060047E+04  0.12500048154E+03 0.  0.
          2    1    1    2  501    0 -0.14723268758E+03 -0.18927719587E+02 -0.65850270672E+03  0.67502706436E+03  0.00000000000E+00 0. -1.
          1    1    1    2  502    0  0.19702181359E+02 -0.23489066020E+02 -0.10765455674E+03  0.11193487285E+03  0.00000000000E+00 0. -1.
         22    1    3    3    0    0  0.22696603759E+02  0.21320789071E+02 -0.15027754147E+03  0.15347003401E+03  0.00000000000E+00 0.  1.
         22    1    3    3    0    0  0.10483390246E+03  0.21095996536E+02 -0.32487765249E+04  0.32505359707E+04  0.00000000000E+00 0.  1.
</event>
<event>
 7    1  0.5736319E-006  0.5240145E+02  0.7818608E-02  0.1447932E+00
          2   -1    0    0  502    0  0.00000000000E+00  0.00000000000E+00  0.96744014717E+03  0.96744014717E+03  0.00000000000E+00 0. -1.
          1   -1    0    0  501    0 -0.00000000000E+00 -0.00000000000E+00 -0.43177439222E+02  0.43177439222E+02  0.00000000000E+00 0. -1.
         25    2    1    2    0    0 -0.65746985159E+02  0.87458415995E+01  0.13998010085E+03  0.19904244703E+03  0.12499724511E+03 0.  0.
          2    1    1    2  501    0  0.32206125702E+02 -0.41387768287E+02  0.40342283631E+02  0.66164051758E+02  0.00000000000E+00 0. -1.
          1    1    1    2  502    0  0.33540859457E+02  0.32641926687E+02  0.74394032347E+03  0.74541108760E+03  0.00000000000E+00 0. -1.
         22    1    3    3    0    0  0.22480510732E+02  0.30475661084E+02  0.78346768881E+01  0.38671972322E+02  0.00000000000E+00 0. -1.
         22    1    3    3    0    0 -0.88227495891E+02 -0.21729819485E+02  0.13214542396E+03  0.16037047471E+03  0.00000000000E+00 0. -1.
</event>
<event>
 7    1  0.5736319E-006  0.1087043E+03  0.7818608E-02  0.1361455E+00
          2   -1    0    0  502    0  0.00000000000E+00  0.00000000000E+00  0.25651585904E+04  0.25651585904E+04  0.00000000000E+00 0. -1.
          1   -1    0    0  501    0 -0.00000000000E+00 -0.00000000000E+00 -0.28408211223E+04  0.28408211223E+04  0.00000000000E+00 0. -1.
         25    2    1    2    0    0 -0.81333913201E+02 -0.12747983130E+03  0.11773228415E+04  0.11935577692E+04  0.12499905003E+03 0.  0.
          2    1    1    2  501    0  0.67593628964E+02  0.85086688938E+02 -0.28313012318E+04  0.28333858382E+04  0.00000000000E+00 0. -1.
          1    1    1    2  502    0  0.13740284237E+02  0.42393142363E+02  0.13783158584E+04  0.13790361052E+04  0.00000000000E+00 0. -1.
         22    1    3    3    0    0 -0.66281120142E+02 -0.80579693617E+02  0.10744129529E+04  0.10794672146E+04  0.00000000000E+00 0. -1.
         22    1    3    3    0    0 -0.15052793059E+02 -0.46900137684E+02  0.10290988859E+03  0.11409055467E+03  0.00000000000E+00 0. -1.
</event>
<event>
 7    1  0.5736319E-006  0.5811183E+02  0.7818608E-02  0.1436348E+00
          2   -1    0    0  502    0  0.00000000000E+00  0.00000000000E+00  0.62460798521E+03  0.62460798521E+03  0.00000000000E+00 0. -1.
          1   -1    0    0  501    0 -0.00000000000E+00 -0.00000000000E+00 -0.32825858336E+03  0.32825858336E+03  0.00000000000E+00 0. -1.
         25    2    1    2    0    0  0.67232146390E+02  0.67901683481E+02  0.77405136167E+02  0.17534581780E+03  0.12499520226E+03 0.  0.
          2    1    1    2  501    0 -0.51850356986E+02 -0.24541614669E+02 -0.27526282943E+03  0.28117676938E+03  0.00000000000E+00 0. -1.
          1    1    1    2  502    0 -0.15381789404E+02 -0.43360068812E+02  0.49420709511E+03  0.49634398139E+03  0.00000000000E+00 0. -1.
         22    1    3    3    0    0  0.68274033446E+02 -0.15177667204E+02  0.15250102721E+02  0.71584012585E+02  0.00000000000E+00 0. -1.
         22    1    3    3    0    0 -0.10418870558E+01  0.83079350685E+02  0.62155033446E+02  0.10376180522E+03  0.00000000000E+00 0. -1.
</event>
<event>
 7    1  0.5736319E-006  0.6552322E+02  0.7818608E-02  0.1520175E+00
          2   -1    0    0  502    0  0.00000000000E+00  0.00000000000E+00  0.21414127587E+03  0.21414127587E+03  0.00000000000E+00 0. -1.
          1   -1    0    0  501    0 -0.00000000000E+00 -0.00000000000E+00 -0.61134149855E+03  0.61134149855E+03  0.00000000000E+00 0. -1.
         25    2    1    2    0    0  0.49517715777E+02 -0.67038971773E+02  0.29100508531E+02  0.15303002968E+03  0.12500048990E+03 0.  0.
          2    1    1    2  501    0 -0.19448692517E+02  0.11367691932E+02 -0.54099476810E+03  0.54146358620E+03  0.00000000000E+00 0. -1.
          1    1    1    2  502    0 -0.30069023260E+02  0.55671279842E+02  0.11469403689E+03  0.13098915855E+03  0.00000000000E+00 0. -1.
         22    1    3    3    0    0  0.47144274034E+02  0.19799789342E+02 -0.18003359606E+02  0.54210102280E+02  0.00000000000E+00 0. -1.
         22    1    3    3    0    0  0.23734417430E+01 -0.86838761115E+02  0.47103868137E+02  0.98819927399E+02  0.00000000000E+00 0. -1.
</event>
<event>
 7    1  0.5736319E-006  0.1072098E+03  0.7818608E-02  0.1275123E+00
          2   -1    0    0  502    0  0.00000000000E+00  0.00000000000E+00  0.20241531989E+04  0.20241531989E+04  0.00000000000E+00 0. -1.
          1   -1    0    0  501    0 -0.00000000000E+00 -0.00000000000E+00 -0.32013312170E+03  0.32013312170E+03  0.00000000000E+00 0. -1.
         25    2    1    2    0    0 -0.11483524092E+03  0.16311239775E+03  0.33018637460E+03  0.40551322825E+03  0.12500059782E+03 0.  0.
          2    1    1    2  501    0  0.66939960854E+02 -0.71574609893E+02 -0.27230141817E+03  0.28939928382E+03  0.00000000000E+00 0. -1.
          1    1    1    2  502    0  0.47895280062E+02 -0.91537787861E+02  0.16461351208E+04  0.16493738086E+04  0.00000000000E+00 0. -1.
         22    1    3    3    0    0 -0.10972720189E+03  0.14607666139E+03  0.18774870613E+03  0.26196951443E+03  0.00000000000E+00 0.  1.
         22    1    3    3    0    0 -0.51080390221E+01  0.17035736362E+02  0.14243766848E+03  0.14354371382E+03  0.00000000000E+00 0.  1.
</event>
<event>
 7    1  0.5736319E-006  0.1165045E+03  0.7818608E-02  0.1420271E+00
          2   -1    0    0  502    0  0.00000000000E+00  0.00000000000E+00  0.31962120171E+04  0.31962120171E+04  0.00000000000E+00 0. -1.
          1   -1    0    0  501    0 -0.00000000000E+00 -0.00000000000E+00 -0.10181774279E+03  0.10181774279E+03  0.00000000000E+00 0. -1.
         25    2    1    2    0    0  0.91392116781E+02  0.10011196326E+03  0.15105963173E+04  0.15218085765E+04  0.12500074114E+03 0.  0.
          2    1    1    2  501    0 -0.89224913028E+02 -0.74272306925E+02 -0.61051830127E+02  0.13116701812E+03  0.00000000000E+00 0. -1.
          1    1    1    2  502    0 -0.21672037525E+01 -0.25839656339E+02  0.16448497871E+04  0.16450541653E+04  0.00000000000E+00 0. -1.
         22    1    3    3    0    0  0.10795996299E+03  0.69886353783E+02  0.79094671664E+03  0.80133399067E+03  0.00000000000E+00 0.  1.
         22    1    3    3    0    0 -0.16567846205E+02  0.30225609481E+02  0.71964960071E+03  0.72047458581E+03  0.00000000000E+00 0.  1.
</event>
<event>
 7    1  0.5736319E-006  0.3851875E+02  0.7818608E-02  0.1545245E+00
          2   -1    0    0  502    0  0.00000000000E+00  0.00000000000E+00  0.11145926083E+03  0.11145926083E+03  0.00000000000E+00 0. -1.
          1   -1    0    0  501    0 -0.00000000000E+00 -0.00000000000E+00 -0.57100288912E+03  0.57100288912E+03  0.00000000000E+00 0. -1.
         25    2    1    2    0    0 -0.40207762202E+02 -0.54387315081E+01 -0.13984250556E+03  0.19190010988E+03  0.12499392734E+03 0.  0.
          2    1    1    2  501    0  0.18482291300E+02 -0.26731147825E+02 -0.40002862351E+03  0.40134654475E+03  0.00000000000E+00 0. -1.
          1    1    1    2  502    0  0.21725470902E+02  0.32169879333E+02  0.80327500780E+02  0.89215495312E+02  0.00000000000E+00 0. -1.
         22    1    3    3    0    0  0.54233970901E+01  0.44711896743E+02 -0.11088974884E+02  0.46384612862E+02  0.00000000000E+00 0. -1.
         22    1    3    3    0    0 -0.45631159292E+02 -0.50150628251E+02 -0.12875353068E+03  0.14551549702E+03  0.00000000000E+00 0. -1.
</event>
<event>
 7    1  0.5736319E-006  0.5375927E+02  0.7818608E-02  0.1458562E+00
          2   -1    0    0  502    0  0.00000000000E+00  0.00000000000E+00  0.62846450552E+03  0.62846450552E+03  0.00000000000E+00 0. -1.
          1   -1    0    0  501    0 -0.00000000000E+00 -0.00000000000E+00 -0.22792566875E+04  0.22792566875E+04  0.00000000000E+00 0. -1.
         25    2    1    2    0    0  0.89208748413E+02 -0.25437916844E+02  0.22314336378E+03  0.27207250650E+03  0.12500079835E+03 0.  0.
          2    1    1    2  501    0 -0.39021842466E+02  0.16063960681E+02 -0.22528826275E+04  0.22532778098E+04  0.00000000000E+00 0. -1.
          1    1    1    2  502    0 -0.50186905948E+02  0.93739561627E+01  0.37894708174E+03  0.38237087669E+03  0.00000000000E+00 0. -1.
         22    1    3    3    0    0  0.15548302380E+02 -0.68550255266E+02  0.10297859216E+03  0.12468150483E+03  0.00000000000E+00 0. -1.
         22    1    3    3    0    0  0.73660446033E+02  0.43112338422E+02  0.12016477162E+03  0.14739100167E+03  0.00000000000E+00 0. -1.
</event>
<event>
 7    1  0.5736319E-006  0.8266525E+02  0.7818608E-02  0.1444221E+00
          2   -1    0    0  502    0  0.00000000000E+00  0.00000000000E+00  0.13688031339E+04  0.13688031339E+04  0.00000000000E+00 0. -1.
          1   -1    0    0  501    0 -0.00000000000E+00 -0.00000000000E+00 -0.53788787387E+02  0.53788787387E+02  0.00000000000E+00 0. -1.
         25    2    1    2    0    0 -0.10032143024E+03  0.42323902867E+02  0.28764879723E+03  0.33199825762E+03  0.12500124156E+03 0.  0.
          2    1    1    2  501    0  0.73226930733E+02 -0.28329659620E+02  0.17723856033E+02  0.80491540372E+02  0.00000000000E+00 0. -1.
          1    1    1    2  502    0  0.27094499510E+02 -0.13994243247E+02  0.10096416932E+04  0.10101021233E+04  0.00000000000E+00 0. -1.
         22    1    3    3    0    0 -0.93865865907E+02  0.59507156211E+02  0.29259169638E+03  0.31298850332E+03  0.00000000000E+00 0.  1.
         22    1    3    3    0    0 -0.64555643358E+01 -0.17183253344E+02 -0.49428991448E+01  0.19009754295E+02  0.00000000000E+00 0.  1.
</event>
<event>
 7    1  0.5736319E-006  0.1442015E+03  0.7818608E-02  0.1336787E+00
          2   -1    0    0  502    0  0.00000000000E+00  0.00000000000E+00  0.79293941527E+03  0.79293941527E+03  0.00000000000E+00 0. -1.
          1   -1    0    0  501    0 -0.00000000000E+00 -0.00000000000E+00 -0.13612143467E+03  0.13612143467E+03  0.00000000000E+00 0. -1.
         25    2    1    2    0    0  0.10988770760E+03  0.39292791455E+02  0.13319651173E+03  0.21676292087E+03  0.12500248551E+03 0.  0.
          2    1    1    2  501    0  0.20599980514E+02  0.35997780311E+02 -0.80026193738E+02  0.90135404080E+02  0.00000000000E+00 0. -1.
          1    1    1    2  502    0 -0.13048768811E+03 -0.75290571766E+02  0.60364766260E+03  0.62216252499E+03  0.00000000000E+00 0. -1.
         22    1    3    3    0    0  0.53486751497E+02 -0.50486497726E+01 -0.11784336941E+02  0.55001745858E+02  0.00000000000E+00 0.  1.
         22    1    3    3    0    0  0.56400956099E+02  0.44341441227E+02  0.14498084867E+03  0.16176117501E+03  0.00000000000E+00 0.  1.
</event>
<event>
 7    1  0.5736319E-006  0.9943560E+02  0.7818608E-02  0.1303348E+00
          2   -1    0    0  502    0  0.00000000000E+00  0.00000000000E+00  0.40449651848E+03  0.40449651848E+03  0.00000000000E+00 0. -1.
          1   -1    0    0  501    0 -0.00000000000E+00 -0.00000000000E+00 -0.71301242897E+03  0.71301242897E+03  0.00000000000E+00 0. -1.
         25    2    1    2    0    0  0.65980932333E+02 -0.38092770456E+02 -0.65171957854E+02  0.16024042947E+03  0.12500027421E+03 0.  0.
          2    1    1    2  501    0 -0.50416771783E+02 -0.63511628655E+02 -0.59007570101E+03  0.59562144923E+03  0.00000000000E+00 0. -1.
          1    1    1    2  502    0 -0.15564160550E+02  0.10160439911E+03  0.34673174837E+03  0.36164706876E+03  0.00000000000E+00 0. -1.
         22    1    3    3    0    0  0.25361187312E+02  0.20469450331E+02 -0.80932294201E+02  0.87248062806E+02  0.00000000000E+00 0. -1.
         22    1    3    3    0    0  0.40619745021E+02 -0.58562220787E+02  0.15760336347E+02  0.72992366662E+02  0.00000000000E+00 0. -1.
</event>
<event>
 7    1  0.5736319E-006  0.1481450E+03  0.7818608E-02  0.1230011E+00
          2   -1    0    0  502    0  0.00000000000E+00  0.00000000000E+00  0.31139244625E+04  0.31139244625E+04  0.00000000000E+00 0. -1.
          1   -1    0    0  501    0 -0.00000000000E+00 -0.00000000000E+00 -0.60173252862E+02  0.60173252862E+02  0.00000000000E+00 0. -1.
         25    2    1    2    0    0  0.18181058836E+03 -0.59702378664E+02  0.24232466207E+03  0.33312844089E+03  0.12503540386E+03 0.  0.
          2    1    1    2  501    0 -0.94074428229E+02 -0.59106223054E+02  0.23109719755E+03  0.25641657194E+03  0.00000000000E+00 0. -1.
          1    1    1    2  502    0 -0.87736160136E+02  0.11880860172E+03  0.25803293500E+04  0.25845527025E+04  0.00000000000E+00 0. -1.
         22    1    3    3    0    0  0.19660860060E+03 -0.38699717755E+02  0.22863216705E+03  0.30401525914E+03  0.00000000000E+00 0. -1.
         22    1    3    3    0    0 -0.14798012230E+02 -0.21002660908E+02  0.13692495023E+02  0.29113181742E+02  0.00000000000E+00 0. -1.
</event>
<event>
 7    1  0.5736319E-006  0.1377721E+03  0.7818608E-02  0.1299348E+00
          2   -1    0    0  502    0  0.00000000000E+00  0.00000000000E+00  0.17975062030E+04  0.17975062030E+04  0.00000000000E+00 0. -1.
          1   -1    0    0  501    0 -0.00000000000E+00 -0.00000000000E+00 -0.29165165288E+02  0.29165165288E+02  0.00000000000E+00 0. -1.
         25    2    1    2    0    0 -0.26630701372E+02 -0.14394871206E+03  0.60751403978E+03  0.63728253370E+03  0.12500117307E+03 0.  0.
          2    1    1    2  501    0  0.78733432304E+02  0.11277035613E+03  0.34645185180E+03  0.37275325914E+03  0.00000000000E+00 0. -1.
          1    1    1    2  502    0 -0.52102730932E+02  0.31178355931E+02  0.81437514614E+03  0.81663557545E+03  0.00000000000E+00 0. -1.
         22    1    3    3    0    0 -0.41144266781E+02 -0.16313244763E+03  0.52136377042E+03  0.54783686191E+03  0.00000000000E+00 0. -1.
         22    1    3    3    0    0  0.14513565410E+02  0.19183735571E+02  0.86150269354E+02  0.89445671786E+02  0.00000000000E+00 0. -1.
</event>
<event>
 7    1  0.5736319E-006  0.1160458E+03  0.7818608E-02  0.1370842E+00
          2   -1    0    0  502    0  0.00000000000E+00  0.00000000000E+00  0.52119134401E+03  0.52119134401E+03  0.00000000000E+00 0. -1.
          1   -1    0    0  501    0 -0.00000000000E+00 -0.00000000000E+00 -0.55656281043E+03  0.55656281043E+03  0.00000000000E+00 0. -1.
         25    2    1    2    0    0 -0.38712199856E+02  0.76481581271E+02 -0.12569813033E+03  0.19690928007E+03  0.12500071166E+03 0.  0.
          2    1    1    2  501    0  0.97322587557E+01  0.37359628218E+02 -0.38718038686E+03  0.38910038634E+03  0.00000000000E+00 0. -1.
          1    1    1    2  502    0  0.28979941100E+02 -0.11384120949E+03  0.47750705078E+03  0.49174448803E+03  0.00000000000E+00 0. -1.
         22    1    3    3    0    0  0.13392840661E+02  0.15806485324E+02  0.21205349334E+02  0.29645910336E+02  0.00000000000E+00 0. -1.
         22    1    3    3    0    0 -0.52105040517E+02  0.60675095947E+02 -0.14690347967E+03  0.16726336973E+03  0.00000000000E+00 0. -1.
</event>
<event>
 7    1  0.5736319E-006  0.7558429E+02  0.7818608E-02  0.1360716E+00
          2   -1    0    0  502    0  0.00000000000E+00  0.00000000000E+00  0.22179483255E+03  0.22179483255E+03  0.00000000000E+00 0. -1.
          1   -1    0    0  501    0 -0.00000000000E+00 -0.00000000000E+00 -0.26717936171E+03  0.26717936171E+03  0.00000000000E+00 0. -1.
         25    2    1    2    0    0  0.98984425456E+02 -0.76435435146E+02  0.71308494832E+02  0.19065845461E+03  0.12500181058E+03 0.  0.
          2    1    1    2  501    0 -0.60136273494E+02  0.23294194092E+02 -0.18949386245E+03  0.20016721704E+03  0.00000000000E+00 0. -1.
          1    1    1    2  502    0 -0.38848151962E+02  0.53141241054E+02  0.72800838457E+02  0.98148522616E+02  0.00000000000E+00 0. -1.
         22    1    3    3    0    0  0.71255206589E+02 -0.87751707465E+02  0.98705604520E+02  0.15006819447E+03  0.00000000000E+00 0. -1.
         22    1    3    3    0    0  0.27729218868E+02  0.11316272319E+02 -0.27397109689E+02  0.40590260131E+02  0.00000000000E+00 0. -1.
</event>
<event>
 7    1  0.5736319E-006  0.8528040E+02  0.7818608E-02  0.1472515E+00
          2   -1    0    0  502    0  0.00000000000E+00  0.00000000000E+00  0.57412591650E+03  0.57412591650E+03  0.00000000000E+00 0. -1.
          1   -1    0    0  501    0 -0.00000000000E+00 -0.00000000000E+00 -0.64330028557E+03  0.64330028557E+03  0.00000000000E+00 0. -1.
         25    2    1    2    0    0  0.97683741430E+02  0.40742248106E+02  0.33459374957E+03  0.37252947301E+03  0.12499274734E+03 0.  0.
          2    1    1    2  501    0 -0.82118259922E+02 -0.22400380365E+02 -0.62076346588E+03  0.62657199604E+03  0.00000000000E+00 0. -1.
          1    1    1    2  502    0 -0.15565481509E+02 -0.18341867742E+02  0.21699534723E+03  0.21832473302E+03  0.00000000000E+00 0. -1.
         22    1    3    3    0    0  0.64596891983E+02  0.24218205440E+02  0.49163565577E+02  0.84713258165E+02  0.00000000000E+00 0. -1.
         22    1    3    3    0    0  0.33086849447E+02  0.16524042666E+02  0.28543018399E+03  0.28781621484E+03  0.00000000000E+00 0. -1.
</event>
<event>
 7    1  0.5736319E-006  0.3692862E+02  0.7818608E-02  0.1628493E+00
          2   -1    0    0  502    0  0.00000000000E+00  0.00000000000E+00  0.25514250286E+04  0.25514250286E+04  0.00000000000E+00 0. -1.
          1   -1    0    0  501    0 -0.00000000000E+00 -0.00000000000E+00 -0.29969452528E+03  0.29969452528E+03  0.00000000000E+00 0. -1.
         25    2    1    2    0    0 -0.18829394478E+02 -0.15849614420E+02  0.75489764363E+03  0.76557690264E+03  0.12502713756E+03 0.  0.
          2    1    1    2  501    0 -0.18099047957E+02  0.93242299241E+01 -0.29380628786E+03  0.29451086837E+03  0.00000000000E+00 0. -1.
          1    1    1    2  502    0  0.36928442434E+02  0.65253844964E+01  0.17906391475E+04  0.17910317828E+04  0.00000000000E+00 0. -1.
         22    1    3    3    0    0 -0.58266899962E+02  0.22227181970E+02  0.24788102907E+03  0.25560532824E+03  0.00000000000E+00 0. -1.
         22    1    3    3    0    0  0.39437505485E+02 -0.38076796391E+02  0.50701661455E+03  0.50997157440E+03  0.00000000000E+00 0. -1.
</event>
<event>
 7    1  0.5736319E-006  0.2598084E+03  0.7818608E-02  0.1248141E+00
          2   -1    0    0  502    0  0.00000000000E+00  0.00000000000E+00  0.14739295832E+04  0.14739295832E+04  0.00000000000E+00 0. -1.
          1   -1    0    0  501    0 -0.00000000000E+00 -0.00000000000E+00 -0.64817556996E+03  0.64817556996E+03  0.00000000000E+00 0. -1.
         25    2    1    2    0    0  0.14204588057E+03 -0.27317242504E+03  0.47265520150E+03  0.57777829033E+03  0.12499842912E+03 0.  0.
          2    1    1    2  501    0 -0.10668456859E+03  0.23412053479E+03 -0.56704141889E+03  0.62267968710E+03  0.00000000000E+00 0. -1.
          1    1    1    2  502    0 -0.35361311986E+02  0.39051890248E+02  0.92014023062E+03  0.92164717572E+03  0.00000000000E+00 0. -1.
         22    1    3    3    0    0 -0.15969474496E+02 -0.16990087110E+02  0.90068658842E+01  0.24996215889E+02  0.00000000000E+00 0.  1.
         22    1    3    3    0    0  0.15801535507E+03 -0.25618233793E+03  0.46364833562E+03  0.55278207444E+03  0.00000000000E+00 0.  1.
</event>
<event>
 7    1  0.5736319E-006  0.5495274E+02  0.7818608E-02  0.1521087E+00
          2   -1    0    0  502    0  0.00000000000E+00  0.00000000000E+00  0.13573184790E+04  0.13573184790E+04  0.00000000000E+00 0. -1.
          1   -1    0    0  501    0 -0.00000000000E+00 -0.00000000000E+00 -0.57553397843E+03  0.57553397843E+03  0.00000000000E+00 0. -1.
         25    2    1    2    0    0  0.77798997498E+02  0.23614881178E+02 -0.19679890660E+03  0.24691440363E+03  0.12500626566E+03 0.  0.
          2    1    1    2  501    0 -0.26285350125E+02 -0.46726536011E+01 -0.35260719444E+03  0.35361644036E+03  0.00000000000E+00 0. -1.
          1    1    1    2  502    0 -0.51513647373E+02 -0.18942227577E+02  0.13311906016E+04  0.13323216134E+04  0.00000000000E+00 0. -1.
         22    1    3    3    0    0  0.17400652850E+02 -0.50524679935E+02 -0.67331901727E+02  0.85959938298E+02  0.00000000000E+00 0.  1.
         22    1    3    3    0    0  0.60398344649E+02  0.74139561113E+02 -0.12946700487E+03  0.16095446533E+03  0.00000000000E+00 0.  1.
</event>
<event>
 7    1  0.5736319E-006  0.1002941E+03  0.7818608E-02  0.1341238E+00
          2   -1    0    0  502    0  0.00000000000E+00  0.00000000000E+00  0.53271426285E+03  0.53271426285E+03  0.00000000000E+00 0. -1.
          1   -1    0    0  501    0 -0.00000000000E+00 -0.00000000000E+00 -0.55476708430E+03  0.55476708430E+03  0.00000000000E+00 0. -1.
         25    2    1    2    0    0  0.13698138781E+03  0.43777004496E+02 -0.26804080486E+03  0.32886402621E+03  0.12500139176E+03 0.  0.
          2    1    1    2  501    0 -0.37303246272E+02 -0.43591768838E+02 -0.24806285091E+03  0.25461137543E+03  0.00000000000E+00 0. -1.
          1    1    1    2  502    0 -0.99678141534E+02 -0.18523565885E+00  0.49405083432E+03  0.50400594551E+03  0.00000000000E+00 0. -1.
         22    1    3    3    0    0  0.10199468767E+03  0.63088315609E+02 -0.10004204019E+03  0.15617766065E+03  0.00000000000E+00 0.  1.
         22    1    3    3    0    0  0.34986700135E+02 -0.19311311112E+02 -0.16799876467E+03  0.17268636557E+03  0.00000000000E+00 0.  1.
</event>
<event>
 7    1  0.5736319E-006  0.3656552E+02  0.7818608E-02  0.1543455E+00
          2   -1    0    0  502    0  0.00000000000E+00  0.00000000000E+00  0.29305645674E+04  0.29305645674E+04  0.00000000000E+00 0. -1.
          1   -1    0    0  501    0 -0.00000000000E+00 -0.00000000000E+00 -0.48150741536E+02  0.48150741536E+02  0.00000000000E+00 0. -1.
         25    2    1    2    0    0 -0.19660429547E+02 -0.66005966953E+02  0.65043734967E+03  0.66591170027E+03  0.12500530605E+03 0.  0.
          2    1    1    2  501    0  0.17965167165E+02  0.31414282301E+02 -0.32153230692E+02  0.48409034361E+02  0.00000000000E+00 0. -1.
          1    1    1    2  502    0  0.16952623828E+01  0.34591684652E+02  0.22641297069E+04  0.22643945743E+04  0.00000000000E+00 0. -1.
         22    1    3    3    0    0  0.24266668751E+02 -0.46524453543E+02  0.96074862639E+02  0.10947043081E+03  0.00000000000E+00 0. -1.
         22    1    3    3    0    0 -0.43927098298E+02 -0.19481513409E+02  0.55436248703E+03  0.55644126946E+03  0.00000000000E+00 0. -1.
</event>
<event>
 7    1  0.5736319E-006  0.3113700E+02  0.7818608E-02  0.1590497E+00
          2   -1    0    0  502    0  0.00000000000E+00  0.00000000000E+00  0.15574583625E+04  0.15574583625E+04  0.00000000000E+00 0. -1.
          1   -1    0    0  501    0 -0.00000000000E+00 -0.00000000000E+00 -0.83487888209E+01  0.83487888209E+01  0.00000000000E+00 0. -1.
         25    2    1    2    0    0 -0.36358914638E+02 -0.16741961640E+02  0.12814748015E+04  0.12881805208E+04  0.12501649222E+03 0.  0.
          2    1    1    2  501    0  0.91342621220E+01  0.29963999409E+02  0.58926929018E+02  0.66735739815E+02  0.00000000000E+00 0. -1.
          1    1    1    2  502    0  0.27224652516E+02 -0.13222037769E+02  0.20870784311E+03  0.21089089066E+03  0.00000000000E+00 0. -1.
         22    1    3    3    0    0  0.22719132166E+02 -0.36049248462E+02  0.94837477079E+03  0.94933156123E+03  0.00000000000E+00 0.  1.
         22    1    3    3    0    0 -0.59078046804E+02  0.19307286821E+02  0.33310003072E+03  0.33884895957E+03  0.00000000000E+00 0.  1.
</event>
<event>
 7    1  0.5736319E-006  0.6167723E+02  0.7818608E-02  0.1504558E+00
          2   -1    0    0  502    0  0.00000000000E+00  0.00000000000E+00  0.11618651393E+04  0.11618651393E+04  0.00000000000E+00 0. -1.
          1   -1    0    0  501    0 -0.00000000000E+00 -0.00000000000E+00 -0.13085586012E+02  0.13085586012E+02  0.00000000000E+00 0. -1.
         25    2    1    2    0    0 -0.54175308640E+02  0.23617713823E+02  0.71776057058E+03  0.73095691029E+03  0.12500003018E+03 0.  0.
          2    1    1    2  501    0  0.63343179341E+02  0.13472304554E+01  0.16659869196E+03  0.17823943885E+03  0.00000000000E+00 0. -1.
          1    1    1    2  502    0 -0.91678707004E+01 -0.24964944278E+02  0.26442029076E+03  0.26575437619E+03  0.00000000000E+00 0. -1.
         22    1    3    3    0    0  0.14839262143E+02 -0.13705282153E+02  0.18763136174E+02  0.27569797586E+02  0.00000000000E+00 0. -1.
         22    1    3    3    0    0 -0.69014570783E+02  0.37322995976E+02  0.69899743441E+03  0.70338711270E+03  0.00000000000E+00 0. -1.
</event>
<event>
 7    1  0.5736319E-006  0.2230082E+02  0.7818608E-02  0.1722181E+00
          2   -1    0    0  502    0  0.00000000000E+00  0.00000000000E+00  0.61805418819E+03  0.61805418819E+03  0.00000000000E+00 0. -1.
          1   -1    0    0  501    0 -0.00000000000E+00 -0.00000000000E+00 -0.16827047953E+02  0.16827047953E+02  0.00000000000E+00 0. -1.
         25    2    1    2    0    0  0.27537638653E+01 -0.71279790995E+01  0.41994223988E+03  0.43821793209E+03  0.12500031947E+03 0.  0.
          2    1    1    2  501    0  0.14009171100E+02  0.18369319530E+02  0.11725833305E+02  0.25907217944E+02  0.00000000000E+00 0. -1.
          1    1    1    2  502    0 -0.16762934966E+02 -0.11241340431E+02  0.16955906705E+03  0.17075608611E+03  0.00000000000E+00 0. -1.
         22    1    3    3    0    0 -0.48147376602E+02  0.12625176639E+02  0.82237590600E+02  0.96127968181E+02  0.00000000000E+00 0.  1.
         22    1    3    3    0    0  0.50901140467E+02 -0.19753155739E+02  0.33770464928E+03  0.34208996391E+03  0.00000000000E+00 0.  1.
</event>
<event>
 7    1  0.5736319E-006  0.2967447E+02  0.7818608E-02  0.1639976E+00
          2   -1    0    0  502    0  0.00000000000E+00  0.00000000000E+00  0.29794972781E+03  0.29794972781E+03  0.00000000000E+00 0. -1.
          1   -1    0    0  501    0 -0.00000000000E+00 -0.00000000000E+00 -0.15049186163E+04  0.15049186163E+04  0.00000000000E+00 0. -1.
         25    2    1    2    0    0  0.38950538429E+02 -0.13794359983E+02  0.17275776151E+03  0.21720421752E+03  0.12499999654E+03 0.  0.
          2    1    1    2  501    0 -0.21641762516E+02 -0.96981354101E+01 -0.14805311634E+04  0.14807210897E+04  0.00000000000E+00 0. -1.
          1    1    1    2  502    0 -0.17308775913E+02  0.23492495393E+02  0.10080451341E+03  0.10494303687E+03  0.00000000000E+00 0. -1.
         22    1    3    3    0    0 -0.16390958958E+01 -0.69449357829E+01  0.17578480323E+03  0.17592957630E+03  0.00000000000E+00 0.  1.
         22    1    3    3    0    0  0.40589634325E+02 -0.68494242000E+01 -0.30270417254E+01  0.41274641223E+02  0.00000000000E+00 0.  1.
</event>
<event>
 7    1  0.5736319E-006  0.1109978E+03  0.7818608E-02  0.1351295E+00
          2   -1    0    0  502    0  0.00000000000E+00  0.00000000000E+00  0.88110150830E+03  0.88110150830E+03  0.00000000000E+00 0. -1.
          1   -1    0    0  501    0 -0.00000000000E+00 -0.00000000000E+00 -0.26420929702E+03  0.26420929702E+03  0.00000000000E+00 0. -1.
         25    2    1    2    0    0 -0.95559582882E+02  0.11363516564E+02 -0.16867004250E+02  0.15864049832E+03  0.12498619318E+03 0.  0.
          2    1    1    2  501    0  0.10104600705E+03 -0.58601582040E+02 -0.15633068233E+03  0.19515051421E+03  0.00000000000E+00 0. -1.
          1    1    1    2  502    0 -0.54864241676E+01  0.47238065475E+02  0.79008989786E+03  0.79151979279E+03  0.00000000000E+00 0. -1.
         22    1    3    3    0    0 -0.15320351615E+02 -0.46719361445E+02  0.19817006191E+02  0.53010618199E+02  0.00000000000E+00 0. -1.
         22    1    3    3    0    0 -0.80239231267E+02  0.58082878009E+02 -0.36684010441E+02  0.10562988012E+03  0.00000000000E+00 0. -1.
</event>
<event>
 7    1  0.5736319E-006  0.2480406E+03  0.7818608E-02  0.1245812E+00
          2   -1    0    0  502    0  0.00000000000E+00  0.00000000000E+00  0.13466819643E+04  0.13466819643E+04  0.00000000000E+00 0. -1.
          1   -1    0    0  501    0 -0.00000000000E+00 -0.00000000000E+00 -0.17205719310E+03  0.17205719310E+03  0.00000000000E+00 0. -1.
         25    2    1    2    0    0 -0.24611211522E+03  0.78756627884E+02  0.29917758025E+03  0.41461461772E+03  0.12499710800E+03 0.  0.
          2    1    1    2  501    0  0.21227197869E+03 -0.12398592348E+03  0.19811234443E+02  0.24662600668E+03  0.00000000000E+00 0. -1.
          1    1    1    2  502    0  0.33840136530E+02  0.45229295597E+02  0.85563595649E+03  0.85749853298E+03  0.00000000000E+00 0. -1.
         22    1    3    3    0    0 -0.20167617354E+03  0.97561552905E+02  0.28836705830E+03  0.36516721634E+03  0.00000000000E+00 0.  1.
         22    1    3    3    0    0 -0.44435941681E+02 -0.18804925021E+02  0.10810521949E+02  0.49447401378E+02  0.00000000000E+00 0.  1.
</event>
<event>
 7    1  0.5736319E-006  0.7079287E+02  0.7818608E-02  0.1460394E+00
          2   -1    0    0  502    0  0.00000000000E+00  0.00000000000E+00  0.27004236141E+02  0.27004236141E+02  0.00000000000E+00 0. -1.
          1   -1    0    0  501    0 -0.00000000000E+00 -0.00000000000E+00 -0.16375391954E+04  0.16375391954E+04  0.00000000000E+00 0. -1.
         25    2    1    2    0    0  0.51378499980E+01 -0.74845451989E+02 -0.31239078687E+03  0.34473444689E+03  0.12500238386E+03 0.  0.
          2    1    1    2  501    0 -0.34116057538E+02  0.62189144787E+02 -0.12826243635E+04  0.12845842335E+04  0.00000000000E+00 0. -1.
          1    1    1    2  502    0  0.28978207540E+02  0.12656307203E+02 -0.15519808865E+02  0.35224751119E+02  0.00000000000E+00 0. -1.
         22    1    3    3    0    0  0.36510650179E+02  0.22778387431E+02 -0.84041351184E+02  0.94418383905E+02  0.00000000000E+00 0.  1.
         22    1    3    3    0    0 -0.31372800181E+02 -0.97623839420E+02 -0.22834943568E+03  0.25031606299E+03  0.00000000000E+00 0.  1.
</event>
<event>
 7    1  0.5736319E-006  0.1808075E+03  0.7818608E-02  0.1378784E+00
          2   -1    0    0  502    0  0.00000000000E+00  0.00000000000E+00  0.52683869686E+03  0.52683869686E+03  0.00000000000E+00 0. -1.
          1   -1    0    0  501    0 -0.00000000000E+00 -0.00000000000E+00 -0.26805423125E+03  0.26805423125E+03  0.00000000000E+00 0. -1.
         25    2    1    2    0    0  0.16498896165E+03  0.38938452491E+02  0.30136123151E+03  0.36767022560E+03  0.12500096955E+03 0.  0.
          2    1    1    2  501    0 -0.17150509900E+03 -0.61217812235E+02 -0.19861833151E+03  0.26946402567E+03  0.00000000000E+00 0. -1.
          1    1    1    2  502    0  0.65161373463E+01  0.22279359743E+02  0.15604156561E+03  0.15775867683E+03  0.00000000000E+00 0. -1.
         22    1    3    3    0    0  0.69313733382E+02  0.13442661871E+02  0.26323463263E+02  0.75352660946E+02  0.00000000000E+00 0. -1.
         22    1    3    3    0    0  0.95675228268E+02  0.25495790621E+02  0.27503776825E+03  0.29231756466E+03  0.00000000000E+00 0. -1.
</event>
<event>
 7    1  0.5736319E-006  0.6256525E+02  0.7818608E-02  0.1493537E+00
          2   -1    0    0  502    0  0.00000000000E+00  0.00000000000E+00  0.31014945828E+03  0.31014945828E+03  0.00000000000E+00 0. -1.
          1   -1    0    0  501    0 -0.00000000000E+00 -0.00000000000E+00 -0.45099344416E+03  0.45099344416E+03  0.00000000000E+00 0. -1.
         25    2    1    2    0    0  0.83480466612E+02 -0.34565353620E+02  0.11351750880E+03  0.19154039818E+03  0.12505097903E+03 0.  0.
          2    1    1    2  501    0 -0.56774157766E+02  0.25254026639E+02 -0.40834370550E+03  0.41304437131E+03  0.00000000000E+00 0. -1.
          1    1    1    2  502    0 -0.26706308847E+02  0.93113269805E+01  0.15398221083E+03  0.15655813295E+03  0.00000000000E+00 0. -1.
         22    1    3    3    0    0  0.40358830285E+02  0.38633676057E+02  0.85808627796E+01  0.56524572654E+02  0.00000000000E+00 0.  1.
         22    1    3    3    0    0  0.43121636328E+02 -0.73199029677E+02  0.10493664602E+03  0.13501582553E+03  0.00000000000E+00 0.  1.
</event>
<event>
 7    1  0.5736319E-006  0.8310319E+02  0.7818608E-02  0.1469835E+00
          2   -1    0    0  502    0  0.00000000000E+00  0.00000000000E+00  0.45294991421E+03  0.45294991421E+03  0.00000000000E+00 0. -1.
          1   -1    0    0  501    0 -0.00000000000E+00 -0.00000000000E+00 -0.62222480132E+03  0.62222480132E+03  0.00000000000E+00 0. -1.
         25    2    1    2    0    0  0.73472370254E+02  0.20906109899E+02  0.28855877668E+02  0.14931287173E+03  0.12500566933E+03 0.  0.
          2    1    1    2  501    0 -0.83425688558E+02  0.22061309706E+01 -0.55845686060E+03  0.56465810689E+03  0.00000000000E+00 0. -1.
          1    1    1    2  502    0  0.99533183036E+01 -0.23112240869E+02  0.36032609583E+03  0.36120373691E+03  0.00000000000E+00 0. -1.
         22    1    3    3    0    0 -0.74791742702E+01 -0.42674385276E+02  0.46801148695E+01  0.43576882422E+02  0.00000000000E+00 0. -1.
         22    1    3    3    0    0  0.80951544525E+02  0.63580495175E+02  0.24175762799E+02  0.10573598931E+03  0.00000000000E+00 0. -1.
</event>
<event>
 7    1  0.5736319E-006  0.1591494E+03  0.7818608E-02  0.1290066E+00
          2   -1    0    0  502    0  0.00000000000E+00  0.00000000000E+00  0.95605053534E+03  0.95605053534E+03  0.00000000000E+00 0. -1.
          1   -1    0    0  501    0 -0.00000000000E+00 -0.00000000000E+00 -0.92435407033E+03  0.92435407033E+03  0.00000000000E+00 0. -1.
         25    2    1    2    0    0 -0.48248221017E+02 -0.19903364904E+03 -0.75933436714E+03  0.79633790894E+03  0.12499239906E+03 0.  0.
          2    1    1    2  501    0  0.40599916909E+02  0.40433981347E+02 -0.13387926323E+03  0.14562594970E+03  0.00000000000E+00 0. -1.
          1    1    1    2  502    0  0.76483041080E+01  0.15859966769E+03  0.92491009538E+03  0.93844074703E+03  0.00000000000E+00 0. -1.
         22    1    3    3    0    0 -0.42398155748E+01 -0.18018809109E+03 -0.47587345998E+03  0.50886272620E+03  0.00000000000E+00 0. -1.
         22    1    3    3    0    0 -0.44008405442E+02 -0.18845557947E+02 -0.28346090716E+03  0.28747518274E+03  0.00000000000E+00 0. -1.
</event>
<event>
 7    1  0.5736319E-006  0.1466920E+03  0.7818608E-02  0.1239151E+00
          2   -1    0    0  502    0  0.00000000000E+00  0.00000000000E+00  0.52206353557E+03  0.52206353557E+03  0.00000000000E+00 0. -1.
          1   -1    0    0  501    0 -0.00000000000E+00 -0.00000000000E+00 -0.16212743916E+04  0.16212743916E+04  0.00000000000E+00 0. -1.
         25    2    1    2    0    0  0.10938874240E+03  0.21567314464E+03  0.13267347908E+03  0.30283386518E+03  0.12500118225E+03 0.  0.
          2    1    1    2  501    0 -0.87598215071E+02 -0.11585319400E+03 -0.15240673866E+04  0.15309725042E+04  0.00000000000E+00 0. -1.
          1    1    1    2  502    0 -0.21790527332E+02 -0.99819950645E+02  0.29218305153E+03  0.30953155773E+03  0.00000000000E+00 0. -1.
         22    1    3    3    0    0  0.68318752321E+02  0.15913072276E+03  0.15189751656E+03  0.23035384604E+03  0.00000000000E+00 0.  1.
         22    1    3    3    0    0  0.41069990081E+02  0.56542421880E+02 -0.19224037486E+02  0.72480019141E+02  0.00000000000E+00 0.  1.
</event>
<event>
 7    1  0.5736319E-006  0.9096838E+02  0.7818608E-02  0.1375842E+00
          2   -1    0    0  502    0  0.00000000000E+00  0.00000000000E+00  0.33748681795E+03  0.33748681795E+03  0.00000000000E+00 0. -1.
          1   -1    0    0  501    0 -0.00000000000E+00 -0.00000000000E+00 -0.23778088089E+04  0.23778088089E+04  0.00000000000E+00 0. -1.
         25    2    1    2    0    0 -0.49369796701E+02 -0.60352736009E+02 -0.31182079829E+02  0.15059062303E+03  0.12500153627E+03 0.  0.
          2    1    1    2  501    0  0.86068570354E+02  0.30572003185E+02 -0.22839927636E+04  0.22858183197E+04  0.00000000000E+00 0. -1.
          1    1    1    2  502    0 -0.36698773653E+02  0.29780732824E+02  0.27485285254E+03  0.27888668413E+03  0.00000000000E+00 0. -1.
         22    1    3    3    0    0 -0.80925056524E+02 -0.43877700202E+01 -0.49539623861E+01  0.81195191006E+02  0.00000000000E+00 0.  1.
         22    1    3    3    0    0  0.31555259823E+02 -0.55964965989E+02 -0.26228117443E+02  0.69395432020E+02  0.00000000000E+00 0.  1.
</event>
<event>
 7    1  0.5736319E-006  0.7703427E+02  0.7818608E-02  0.1340528E+00
          2   -1    0    0  502    0  0.00000000000E+00  0.00000000000E+00  0.28542935291E+04  0.28542935291E+04  0.00000000000E+00 0. -1.
          1   -1    0    0  501    0 -0.00000000000E+00 -0.00000000000E+00 -0.32432604706E+02  0.32432604706E+02  0.00000000000E+00 0. -1.
         25    2    1    2    0    0 -0.26344942321E+02  0.60803433255E+00  0.12858002286E+04  0.12921293280E+04  0.12498618650E+03 0.  0.
          2    1    1    2  501    0  0.29178011982E+02  0.74496045414E+02  0.28149821833E+02  0.84814088657E+02  0.00000000000E+00 0. -1.
          1    1    1    2  502    0 -0.28330696603E+01 -0.75104079746E+02  0.15079108740E+04  0.15097827172E+04  0.00000000000E+00 0. -1.
         22    1    3    3    0    0  0.17693065967E+02 -0.27305343989E+02  0.10554753502E+04  0.10559767238E+04  0.00000000000E+00 0. -1.
         22    1    3    3    0    0 -0.44038008289E+02  0.27913378322E+02  0.23032487838E+03  0.23615260418E+03  0.00000000000E+00 0. -1.
</event>
<event>
 7    1  0.5736319E-006  0.1467725E+03  0.7818608E-02  0.1304697E+00
          2   -1    0    0  502    0  0.00000000000E+00  0.00000000000E+00  0.10798945487E+04  0.10798945487E+04  0.00000000000E+00 0. -1.
          1   -1    0    0  501    0 -0.00000000000E+00 -0.00000000000E+00 -0.30196965935E+03  0.30196965935E+03  0.00000000000E+00 0. -1.
         25    2    1    2    0    0 -0.14578370409E+03  0.51090788737E+02  0.45002822009E+03  0.49194919184E+03  0.12500180558E+03 0.  0.
          2    1    1    2  501    0  0.14680915393E+03  0.31618809356E+01 -0.26049170152E+03  0.29902985090E+03  0.00000000000E+00 0. -1.
          1    1    1    2  502    0 -0.10254498414E+01 -0.54252669672E+02  0.58838837077E+03  0.59088516530E+03  0.00000000000E+00 0. -1.
         22    1    3    3    0    0 -0.51421441444E+02  0.60876451422E+02  0.92705998117E+02  0.12224773644E+03  0.00000000000E+00 0. -1.
         22    1    3    3    0    0 -0.94362262645E+02 -0.97856626855E+01  0.35732222198E+03  0.36970145540E+03  0.00000000000E+00 0. -1.
</event>
<event>
 7    1  0.5736319E-006  0.1621682E+03  0.7818608E-02  0.1303286E+00
          2   -1    0    0  502    0  0.00000000000E+00  0.00000000000E+00  0.76799838465E+03  0.76799838465E+03  0.00000000000E+00 0. -1.
          1   -1    0    0  501    0 -0.00000000000E+00 -0.00000000000E+00 -0.84968182754E+03  0.84968182754E+03  0.00000000000E+00 0. -1.
         25    2    1    2    0    0  0.11352766261E+03 -0.17300852719E+03  0.15385032752E+03  0.28655820156E+03  0.12500079578E+03 0.  0.
          2    1    1    2  501    0 -0.10084035380E+03  0.12490398632E+03 -0.77394459688E+03  0.79041762492E+03  0.00000000000E+00 0. -1.
          1    1    1    2  502    0 -0.12687308813E+02  0.48104540876E+02  0.53841082647E+03  0.54070438571E+03  0.00000000000E+00 0. -1.
         22    1    3    3    0    0  0.13086427800E+03 -0.95204413892E+02  0.97389893941E+02  0.18887596756E+03  0.00000000000E+00 0.  1.
         22    1    3    3    0    0 -0.17336615388E+02 -0.77804113299E+02  0.56460433578E+02  0.97682234000E+02  0.00000000000E+00 0.  1.
</event>
<event>
 7    1  0.5736319E-006  0.8545482E+02  0.7818608E-02  0.1478113E+00
          2   -1    0    0  502    0  0.00000000000E+00  0.00000000000E+00  0.89406709204E+03  0.89406709204E+03  0.00000000000E+00 0. -1.
          1   -1    0    0  501    0 -0.00000000000E+00 -0.00000000000E+00 -0.98410731056E+03  0.98410731056E+03  0.00000000000E+00 0. -1.
         25    2    1    2    0    0  0.33740585754E+02 -0.70514572718E+02  0.47750084148E+02  0.15496882650E+03  0.12499813822E+03 0.  0.
          2    1    1    2  501    0 -0.56076715609E+02  0.64739944591E+02 -0.92835835680E+03  0.93230096917E+03  0.00000000000E+00 0. -1.
          1    1    1    2  502    0  0.22336129855E+02  0.57746281278E+01  0.79056805414E+03  0.79090460693E+03  0.00000000000E+00 0. -1.
         22    1    3    3    0    0  0.95167835316E+01  0.34919784145E+02 -0.12337692998E+01  0.36214398797E+02  0.00000000000E+00 0. -1.
         22    1    3    3    0    0  0.24223802222E+02 -0.10543435686E+03  0.48983853448E+02  0.11875442771E+03  0.00000000000E+00 0. -1.
</event>
<event>
 7    1  0.5736319E-006  0.1037948E+03  0.7818608E-02  0.1455366E+00
          2   -1    0    0  502    0  0.00000000000E+00  0.00000000000E+00  0.25657918881E+03  0.25657918881E+03  0.00000000000E+00 0. -1.
          1   -1    0    0  501    0 -0.00000000000E+00 -0.00000000000E+00 -0.17839543553E+03  0.17839543553E+03  0.00000000000E+00 0. -1.
         25    2    1    2    0    0  0.68313462301E+02 -0.57559801280E+02  0.77410966784E+02  0.17205408591E+03  0.12502116159E+03 0.  0.
          2    1    1    2  501    0  0.12645016447E+02 -0.18455624632E+02 -0.10631698576E+03  0.10864533116E+03  0.00000000000E+00 0. -1.
          1    1    1    2  502    0 -0.80958478749E+02  0.76015425912E+02  0.10708977226E+03  0.15427520727E+03  0.00000000000E+00 0. -1.
         22    1    3    3    0    0  0.67939765575E+02 -0.27109744798E+02  0.10698697951E+03  0.12960310102E+03  0.00000000000E+00 0. -1.
         22    1    3    3    0    0  0.37369672682E+00 -0.30450056482E+02 -0.29576012731E+02  0.42450984889E+02  0.00000000000E+00 0. -1.
</event>
<event>
 7    1  0.5736319E-006  0.3998601E+02  0.7818608E-02  0.1539545E+00
          2   -1    0    0  502    0  0.00000000000E+00  0.00000000000E+00  0.35770487638E+03  0.35770487638E+03  0.00000000000E+00 0. -1.
          1   -1    0    0  501    0 -0.00000000000E+00 -0.00000000000E+00 -0.10358870633E+03  0.10358870633E+03  0.00000000000E+00 0. -1.
         25    2    1    2    0    0  0.52092923065E+02 -0.41081793729E+02 -0.26347395352E+01  0.14153637439E+03  0.12499686801E+03 0.  0.
          2    1    1    2  501    0 -0.14388719208E+02  0.29125060181E+02 -0.21339743153E+02  0.38867583007E+02  0.00000000000E+00 0. -1.
          1    1    1    2  502    0 -0.37704203856E+02  0.11956733547E+02  0.27809065275E+03  0.28088962532E+03  0.00000000000E+00 0. -1.
         22    1    3    3    0    0  0.53571957238E+02 -0.17053129742E+02 -0.58236874648E+02  0.80946262452E+02  0.00000000000E+00 0.  1.
         22    1    3    3    0    0 -0.14790341734E+01 -0.24028663987E+02  0.55602135112E+02  0.60590111934E+02  0.00000000000E+00 0.  1.
</event>
<event>
 7    1  0.5736319E-006  0.5783654E+02  0.7818608E-02  0.1426026E+00
          2   -1    0    0  502    0  0.00000000000E+00  0.00000000000E+00  0.43921525430E+02  0.43921525430E+02  0.00000000000E+00 0. -1.
          1   -1    0    0  501    0 -0.00000000000E+00 -0.00000000000E+00 -0.20776121374E+04  0.20776121374E+04  0.00000000000E+00 0. -1.
         25    2    1    2    0    0 -0.26962926949E+02 -0.42065027448E+01 -0.13780303201E+03  0.18804135552E+03  0.12500072664E+03 0.  0.
          2    1    1    2  501    0  0.38161329682E+02 -0.44505099078E+02 -0.18801889025E+04  0.18811026819E+04  0.00000000000E+00 0. -1.
          1    1    1    2  502    0 -0.11198402734E+02  0.48711601822E+02 -0.15698677510E+02  0.52389625418E+02  0.00000000000E+00 0. -1.
         22    1    3    3    0    0 -0.27077717227E+02 -0.61871222584E+02 -0.93410259953E+02  0.11526806851E+03  0.00000000000E+00 0. -1.
         22    1    3    3    0    0  0.11479027850E+00  0.57664719840E+02 -0.44392772061E+02  0.72773287010E+02  0.00000000000E+00 0. -1.
</event>
<event>
 7    1  0.5736319E-006  0.6895594E+02  0.7818608E-02  0.1418384E+00
          2   -1    0    0  502    0  0.00000000000E+00  0.00000000000E+00  0.21708628133E+04  0.21708628133E+04  0.00000000000E+00 0. -1.
          1   -1    0    0  501    0 -0.00000000000E+00 -0.00000000000E+00 -0.15149623018E+04  0.15149623018E+04  0.00000000000E+00 0. -1.
         25    2    1    2    0    0 -0.93717840239E+02 -0.89213253349E+01  0.40518783346E+03  0.43435399274E+03  0.12499434785E+03 0.  0.
          2    1    1    2  501    0  0.35538232445E+02 -0.26701508981E+02 -0.14993852901E+04  0.15000440609E+04  0.00000000000E+00 0. -1.
          1    1    1    2  502    0  0.58179607794E+02  0.35622834316E+02  0.17500979682E+04  0.17514270614E+04  0.00000000000E+00 0. -1.
         22    1    3    3    0    0 -0.25787055055E+02 -0.25679105036E+02  0.32863582540E+03  0.33064466483E+03  0.00000000000E+00 0.  1.
         22    1    3    3    0    0 -0.67930785184E+02  0.16757779701E+02  0.76552008067E+02  0.10370932791E+03  0.00000000000E+00 0.  1.
</event>
<event>
 7    1  0.5736319E-006  0.8122392E+02  0.7818608E-02  0.1381877E+00
          2   -1    0    0  502    0  0.00000000000E+00  0.00000000000E+00  0.18485234359E+04  0.18485234359E+04  0.00000000000E+00 0. -1.
          1   -1    0    0  501    0 -0.00000000000E+00 -0.00000000000E+00 -0.47259072184E+03  0.47259072184E+03  0.00000000000E+00 0. -1.
         25    2    1    2    0    0 -0.91578871630E+02  0.27774854991E+02 -0.33868767921E+03  0.37348557139E+03  0.12499598267E+03 0.  0.
          2    1    1    2  501    0  0.73771335831E+02  0.19359123046E+02 -0.10363523701E+03  0.12867497032E+03  0.00000000000E+00 0. -1.
          1    1    1    2  502    0  0.17807535799E+02 -0.47133978038E+02  0.18182556303E+04  0.18189536160E+04  0.00000000000E+00 0. -1.
         22    1    3    3    0    0 -0.11641856421E+03  0.44091821075E+01 -0.30046774454E+03  0.32226322858E+03  0.00000000000E+00 0.  1.
         22    1    3    3    0    0  0.24839692582E+02  0.23365672884E+02 -0.38219934669E+02  0.51222342810E+02  0.00000000000E+00 0.  1.
</event>
<event>
 7    1  0.9297144E-006  0.4849490E+02  0.7818608E-02  0.1493972E+00
          2   -1    0    0  502    0  0.00000000000E+00  0.00000000000E+00  0.18464599817E+04  0.18464599817E+04  0.00000000000E+00 0. -1.
          1   -1    0    0  501    0 -0.00000000000E+00 -0.00000000000E+00 -0.89698524944E+03  0.89698524944E+03  0.00000000000E+00 0. -1.
         25    2    1    2    0    0  0.32756660949E+02  0.37313669075E+02 -0.21996642106E+03  0.25782423919E+03  0.12499121243E+03 0.  0.
          2    1    1    2  501    0 -0.48840001372E+02 -0.46828696582E+01 -0.65699404123E+03  0.65882353116E+03  0.00000000000E+00 0. -1.
          1    1    1    2  502    0  0.16083340423E+02 -0.32630799417E+02  0.18264351946E+04  0.18267974608E+04  0.00000000000E+00 0. -1.
         22    1    3    3    0    0 -0.10036861644E+02  0.75736411611E+02 -0.11350238871E+03  0.13681935126E+03  0.00000000000E+00 0. -1.
         22    1    3    3    0    0  0.42793522593E+02 -0.38422742536E+02 -0.10646403235E+03  0.12100488793E+03  0.00000000000E+00 0. -1.
</event>
<event>
 7    1  0.5736319E-006  0.9917540E+02  0.7818608E-02  0.1378482E+00
          2   -1    0    0  502    0  0.00000000000E+00  0.00000000000E+00  0.52460242541E+03  0.52460242541E+03  0.00000000000E+00 0. -1.
          1   -1    0    0  501    0 -0.00000000000E+00 -0.00000000000E+00 -0.20617919581E+03  0.20617919581E+03  0.00000000000E+00 0. -1.
         25    2    1    2    0    0  0.58370825789E+02  0.20031775035E+02  0.19163675281E+03  0.23697705796E+03  0.12500022263E+03 0.  0.
          2    1    1    2  501    0 -0.88834586016E+02 -0.49557063044E+02 -0.16777496247E+03  0.19620378233E+03  0.00000000000E+00 0. -1.
          1    1    1    2  502    0  0.30463760227E+02  0.29525288009E+02  0.29456143925E+03  0.29760078094E+03  0.00000000000E+00 0. -1.
         22    1    3    3    0    0  0.96936869614E+02  0.22617943005E+02  0.15132346756E+03  0.18112735815E+03  0.00000000000E+00 0.  1.
         22    1    3    3    0    0 -0.38566043824E+02 -0.25861679704E+01  0.40313285250E+02  0.55849699808E+02  0.00000000000E+00 0.  1.
</event>
<event>
 7    1  0.5736319E-006  0.6614202E+02  0.7818608E-02  0.1384335E+00
          2   -1    0    0  502    0  0.00000000000E+00  0.00000000000E+00  0.14000389303E+04  0.14000389303E+04  0.00000000000E+00 0. -1.
          1   -1    0    0  501    0 -0.00000000000E+00 -0.00000000000E+00 -0.18905725212E+02  0.18905725212E+02  0.00000000000E+00 0. -1.
         25    2    1    2    0    0 -0.97142568264E+02  0.40331780421E+02  0.67936847195E+03  0.69873448099E+03  0.12500009270E+03 0.  0.
          2    1    1    2  501    0  0.36157009806E+02 -0.48697175802E+02  0.11311034407E+03  0.12834599419E+03  0.00000000000E+00 0. -1.
          1    1    1    2  502    0  0.60985558458E+02  0.83653953811E+01  0.58865438904E+03  0.59186418030E+03  0.00000000000E+00 0. -1.
         22    1    3    3    0    0  0.21181573261E+02  0.18921969421E+02  0.28577040617E+03  0.28717838536E+03  0.00000000000E+00 0. -1.
         22    1    3    3    0    0 -0.11832414152E+03  0.21409811000E+02  0.39359806577E+03  0.41155609564E+03  0.00000000000E+00 0. -1.
</event>
<event>
 7    1  0.5736319E-006  0.1171233E+03  0.7818608E-02  0.1340868E+00
          2   -1    0    0  502    0  0.00000000000E+00  0.00000000000E+00  0.21067690052E+04  0.21067690052E+04  0.00000000000E+00 0. -1.
          1   -1    0    0  501    0 -0.00000000000E+00 -0.00000000000E+00 -0.16540522312E+03  0.16540522312E+03  0.00000000000E+00 0. -1.
         25    2    1    2    0    0  0.11392181047E+03 -0.36920869684E+01  0.11869114731E+04  0.11989060681E+04  0.12500041886E+03 0.  0.
          2    1    1    2  501    0 -0.10828171286E+03 -0.45271708817E+02 -0.13703203051E+03  0.18042237761E+03  0.00000000000E+00 0. -1.
          1    1    1    2  502    0 -0.56400976068E+01  0.48963795786E+02  0.89148433942E+03  0.89284578255E+03  0.00000000000E+00 0. -1.
         22    1    3    3    0    0 -0.78865654477E+00  0.43743025670E+02  0.24874588713E+03  0.25256403275E+03  0.00000000000E+00 0.  1.
         22    1    3    3    0    0  0.11471046701E+03 -0.47435112638E+02  0.93816558599E+03  0.94634203536E+03  0.00000000000E+00 0.  1.
</event>
<event>
 7    1  0.5736319E-006  0.1540322E+03  0.7818608E-02  0.1280442E+00
          2   -1    0    0  502    0  0.00000000000E+00  0.00000000000E+00  0.71341916600E+03  0.71341916600E+03  0.00000000000E+00 0. -1.
          1   -1    0    0  501    0 -0.00000000000E+00 -0.00000000000E+00 -0.19992743517E+03  0.19992743517E+03  0.00000000000E+00 0. -1.
         25    2    1    2    0    0 -0.54357392368E+02  0.86047733635E+02  0.19105472323E+03  0.24997184956E+03  0.12500031894E+03 0.  0.
          2    1    1    2  501    0  0.10711070123E+03 -0.12373311505E+03 -0.12833017120E+03  0.20796927398E+03  0.00000000000E+00 0. -1.
          1    1    1    2  502    0 -0.52753308864E+02  0.37685381417E+02  0.45076717881E+03  0.45540547764E+03  0.00000000000E+00 0. -1.
         22    1    3    3    0    0 -0.47913944038E+02  0.21789854728E+02  0.48181565014E+01  0.52856016066E+02  0.00000000000E+00 0.  1.
         22    1    3    3    0    0 -0.64434483302E+01  0.64257878908E+02  0.18623656672E+03  0.19711583349E+03  0.00000000000E+00 0.  1.
</event>
<event>
 7    1  0.5736319E-006  0.1065809E+03  0.7818608E-02  0.1294635E+00
          2   -1    0    0  502    0  0.00000000000E+00  0.00000000000E+00  0.25022920876E+04  0.25022920876E+04  0.00000000000E+00 0. -1.
          1   -1    0    0  501    0 -0.00000000000E+00 -0.00000000000E+00 -0.11217761713E+03  0.11217761713E+03  0.00000000000E+00 0. -1.
         25    2    1    2    0    0  0.26901262951E+02  0.69550478408E+02  0.12016623753E+04  0.12104456416E+04  0.12500096024E+03 0.  0.
          2    1    1    2  501    0  0.51018836086E+02 -0.95062978234E+02 -0.79127965943E+02  0.13379509132E+03  0.00000000000E+00 0. -1.
          1    1    1    2  502    0 -0.77920099037E+02  0.25512499827E+02  0.12675800611E+04  0.12702289718E+04  0.00000000000E+00 0. -1.
         22    1    3    3    0    0 -0.45237405931E+02  0.55636559916E+02  0.63726882538E+03  0.64129042212E+03  0.00000000000E+00 0. -1.
         22    1    3    3    0    0  0.72138668882E+02  0.13913918492E+02  0.56439354993E+03  0.56915521949E+03  0.00000000000E+00 0. -1.
</event>
<event>
 7    1  0.5736319E-006  0.6763013E+02  0.7818608E-02  0.1381264E+00
          2   -1    0    0  502    0  0.00000000000E+00  0.00000000000E+00  0.69076093540E+03  0.69076093540E+03  0.00000000000E+00 0. -1.
          1   -1    0    0  501    0 -0.00000000000E+00 -0.00000000000E+00 -0.14368253468E+04  0.14368253468E+04  0.00000000000E+00 0. -1.
         25    2    1    2    0    0  0.59394364689E+02  0.11274496613E+03 -0.97155124691E+02  0.20323128424E+03  0.12499887478E+03 0.  0.
          2    1    1    2  501    0 -0.32239216231E+02 -0.51567622584E+02 -0.12841542421E+04  0.12855935222E+04  0.00000000000E+00 0. -1.
          1    1    1    2  502    0 -0.27155148458E+02 -0.61177343548E+02  0.63524495545E+03  0.63876147573E+03  0.00000000000E+00 0. -1.
         22    1    3    3    0    0 -0.72888251780E+01  0.61016769632E+02  0.14627658841E+02  0.63167567248E+02  0.00000000000E+00 0. -1.
         22    1    3    3    0    0  0.66683189867E+02  0.51728196500E+02 -0.11178278353E+03  0.14006371699E+03  0.00000000000E+00 0. -1.
</event>
<event>
 7    1  0.5736319E-006  0.6585612E+02  0.7818608E-02  0.1452364E+00
          2   -1    0    0  502    0  0.00000000000E+00  0.00000000000E+00  0.15628207672E+04  0.15628207672E+04  0.00000000000E+00 0. -1.
          1   -1    0    0  501    0 -0.00000000000E+00 -0.00000000000E+00 -0.17243878860E+03  0.17243878860E+03  0.00000000000E+00 0. -1.
         25    2    1    2    0    0 -0.77448404786E+02 -0.20810611189E+02  0.42451534737E+02  0.15445993883E+03  0.12499761181E+03 0.  0.
          2    1    1    2  501    0  0.28057505728E+02 -0.22627138307E+02 -0.11288715574E+03  0.11850198710E+03  0.00000000000E+00 0. -1.
          1    1    1    2  502    0  0.49390899058E+02  0.43437749496E+02  0.14608175996E+04  0.14622976298E+04  0.00000000000E+00 0. -1.
         22    1    3    3    0    0 -0.35683359229E+02  0.52888918365E+02  0.18174810435E+02  0.66339004711E+02  0.00000000000E+00 0. -1.
         22    1    3    3    0    0 -0.41765045556E+02 -0.73699529554E+02  0.24276724302E+02  0.88120934117E+02  0.00000000000E+00 0. -1.
</event>
<event>
 7    1  0.5736319E-006  0.8482026E+02  0.7818608E-02  0.1355420E+00
          2   -1    0    0  502    0  0.00000000000E+00  0.00000000000E+00  0.19947786731E+03  0.19947786731E+03  0.00000000000E+00 0. -1.
          1   -1    0    0  501    0 -0.00000000000E+00 -0.00000000000E+00 -0.15348410410E+04  0.15348410410E+04  0.00000000000E+00 0. -1.
         25    2    1    2    0    0 -0.62089974431E+01 -0.47695025269E+02  0.20369381753E-01  0.13393374495E+03  0.12499952214E+03 0.  0.
          2    1    1    2  501    0 -0.49614249849E+02  0.69936937742E+02 -0.14597478259E+04  0.14622641568E+04  0.00000000000E+00 0. -1.
          1    1    1    2  502    0  0.55823247292E+02 -0.22241912473E+02  0.12436428283E+03  0.13812100656E+03  0.00000000000E+00 0. -1.
         22    1    3    3    0    0 -0.13866037845E+02 -0.88494660045E+02  0.12834121296E+02  0.90489151457E+02  0.00000000000E+00 0. -1.
         22    1    3    3    0    0  0.76570404015E+01  0.40799634776E+02 -0.12813751914E+02  0.43444593492E+02  0.00000000000E+00 0. -1.
</event>
<event>
 7    1  0.5736319E-006  0.2630911E+02  0.7818608E-02  0.1655624E+00
          2   -1    0    0  502    0  0.00000000000E+00  0.00000000000E+00  0.11652548725E+04  0.11652548725E+04  0.00000000000E+00 0. -1.
          1   -1    0    0  501    0 -0.00000000000E+00 -0.00000000000E+00 -0.98712870908E+02  0.98712870908E+02  0.00000000000E+00 0. -1.
         25    2    1    2    0    0  0.40580701030E+02  0.30461737011E+02 -0.22001228872E+02  0.13666745112E+03  0.12497690749E+03 0.  0.
          2    1    1    2  501    0 -0.19566187417E+02 -0.14713016842E+02 -0.11427173727E+02  0.27016455245E+02  0.00000000000E+00 0. -1.
          1    1    1    2  502    0 -0.21014513613E+02 -0.15748720169E+02  0.10999704042E+04  0.11002838371E+04  0.00000000000E+00 0. -1.
         22    1    3    3    0    0 -0.27850760133E+01  0.40351470545E+02  0.42271213639E+02  0.58505156406E+02  0.00000000000E+00 0.  1.
         22    1    3    3    0    0  0.43365777043E+02 -0.98897335340E+01 -0.64272442511E+02  0.78162294710E+02  0.00000000000E+00 0.  1.
</event>
<event>
 7    1  0.5736319E-006  0.7451618E+02  0.7818608E-02  0.1409692E+00
          2   -1    0    0  502    0  0.00000000000E+00  0.00000000000E+00  0.86939668837E+03  0.86939668837E+03  0.00000000000E+00 0. -1.
          1   -1    0    0  501    0 -0.00000000000E+00 -0.00000000000E+00 -0.13959876142E+04  0.13959876142E+04  0.00000000000E+00 0. -1.
         25    2    1    2    0    0  0.26804276361E+02  0.72244240786E+02  0.93152269866E+02  0.17389914453E+03  0.12500347007E+03 0.  0.
          2    1    1    2  501    0  0.17198449214E+02 -0.72585737914E+02 -0.13539287228E+04  0.13559821025E+04  0.00000000000E+00 0. -1.
          1    1    1    2  502    0 -0.44002725575E+02  0.34149712778E+00  0.73418552708E+03  0.73550305551E+03  0.00000000000E+00 0. -1.
         22    1    3    3    0    0 -0.44493252901E+02  0.26453732221E+02  0.68096102964E+02  0.85536709903E+02  0.00000000000E+00 0. -1.
         22    1    3    3    0    0  0.71297529262E+02  0.45790508565E+02  0.25056166902E+02  0.88362434627E+02  0.00000000000E+00 0. -1.
</event>
<event>
 7    1  0.5736319E-006  0.8992398E+02  0.7818608E-02  0.1351147E+00
          2   -1    0    0  502    0  0.00000000000E+00  0.00000000000E+00  0.85957546590E+03  0.85957546590E+03  0.00000000000E+00 0. -1.
          1   -1    0    0  501    0 -0.00000000000E+00 -0.00000000000E+00 -0.20904123855E+03  0.20904123855E+03  0.00000000000E+00 0. -1.
         25    2    1    2    0    0  0.10312744535E+03 -0.98611058813E+02  0.45904202218E+03  0.49669234363E+03  0.12499718072E+03 0.  0.
          2    1    1    2  501    0 -0.50035884445E+02  0.73398512804E+02 -0.17739021036E+03  0.19838905753E+03  0.00000000000E+00 0. -1.
          1    1    1    2  502    0 -0.53091560903E+02  0.25212546009E+02  0.36888241553E+03  0.37353530329E+03  0.00000000000E+00 0. -1.
         22    1    3    3    0    0  0.93447042403E+02 -0.31343649606E+02  0.37940737952E+03  0.39200093589E+03  0.00000000000E+00 0.  1.
         22    1    3    3    0    0  0.96804029454E+01 -0.67267409207E+02  0.79634642657E+02  0.10469140774E+03  0.00000000000E+00 0.  1.
</event>
<event>
 7    1  0.5736319E-006  0.8009677E+02  0.7818608E-02  0.1346192E+00
          2   -1    0    0  502    0  0.00000000000E+00  0.00000000000E+00  0.10583695905E+03  0.10583695905E+03  0.00000000000E+00 0. -1.
          1   -1    0    0  501    0 -0.00000000000E+00 -0.00000000000E+00 -0.39819215663E+03  0.39819215663E+03  0.00000000000E+00 0. -1.
         25    2    1    2    0    0  0.38484964142E+02  0.89113003601E+02 -0.70776569862E+01  0.15841198602E+03  0.12498817628E+03 0.  0.
          2    1    1    2  501    0  0.34570620498E+02 -0.59530018171E+02 -0.24992751918E+03  0.25923486592E+03  0.00000000000E+00 0. -1.
          1    1    1    2  502    0 -0.73055584641E+02 -0.29582985430E+02 -0.35350021411E+02  0.86382263735E+02  0.00000000000E+00 0. -1.
         22    1    3    3    0    0  0.43172701239E+01  0.36979961216E+02 -0.63972759259E+02  0.74018040234E+02  0.00000000000E+00 0.  1.
         22    1    3    3    0    0  0.34167694019E+02  0.52133042385E+02  0.56895102273E+02  0.84393945787E+02  0.00000000000E+00 0.  1.
</event>
<event>
 7    1  0.5736319E-006  0.1305919E+03  0.7818608E-02  0.1255731E+00
          2   -1    0    0  502    0  0.00000000000E+00  0.00000000000E+00  0.23179293135E+04  0.23179293135E+04  0.00000000000E+00 0. -1.
          1   -1    0    0  501    0 -0.00000000000E+00 -0.00000000000E+00 -0.44829882086E+03  0.44829882086E+03  0.00000000000E+00 0. -1.
         25    2    1    2    0    0 -0.19284896520E+03 -0.25018860872E+02  0.48471202712E+03  0.53701234474E+03  0.12497936786E+03 0.  0.
          2    1    1    2  501    0  0.10783904161E+03  0.72110579338E+02 -0.41083730624E+03  0.43083231859E+03  0.00000000000E+00 0. -1.
          1    1    1    2  502    0  0.85009923598E+02 -0.47091718467E+02  0.17957557718E+04  0.17983834710E+04  0.00000000000E+00 0. -1.
         22    1    3    3    0    0 -0.84253926581E+02  0.86203595336E+01  0.35302014919E+03  0.36303754692E+03  0.00000000000E+00 0.  1.
         22    1    3    3    0    0 -0.10859503862E+03 -0.33639220405E+02  0.13169187793E+03  0.17397479782E+03  0.00000000000E+00 0.  1.
</event>
<event>
 7    1  0.5736319E-006  0.3402229E+02  0.7818608E-02  0.1623104E+00
          2   -1    0    0  502    0  0.00000000000E+00  0.00000000000E+00  0.23449104591E+04  0.23449104591E+04  0.00000000000E+00 0. -1.
          1   -1    0    0  501    0 -0.00000000000E+00 -0.00000000000E+00 -0.16977069845E+02  0.16977069845E+02  0.00000000000E+00 0. -1.
         25    2    1    2    0    0  0.84278868572E+01 -0.80914662884E+01  0.11216145284E+04  0.11286185013E+04  0.12499628003E+03 0.  0.
          2    1    1    2  501    0 -0.23612718974E+02  0.25103451575E+02  0.88483461292E+01  0.35581413794E+02  0.00000000000E+00 0. -1.
          1    1    1    2  502    0  0.15184832117E+02 -0.17011985287E+02  0.11974705147E+04  0.11976876138E+04  0.00000000000E+00 0. -1.
         22    1    3    3    0    0 -0.39721700358E+02 -0.45981130045E+02  0.42612330623E+03  0.43043367656E+03  0.00000000000E+00 0. -1.
         22    1    3    3    0    0  0.48149587215E+02  0.37889663756E+02  0.69549122219E+03  0.69818482475E+03  0.00000000000E+00 0. -1.
</event>
<event>
 7    1  0.5736319E-006  0.8815509E+02  0.7818608E-02  0.1460595E+00
          2   -1    0    0  502    0  0.00000000000E+00  0.00000000000E+00  0.37512033621E+03  0.37512033621E+03  0.00000000000E+00 0. -1.
          1   -1    0    0  501    0 -0.00000000000E+00 -0.00000000000E+00 -0.19783212064E+04  0.19783212064E+04  0.00000000000E+00 0. -1.
         25    2    1    2    0    0  0.97546634400E+02 -0.29068542081E+02 -0.58956202625E+03  0.61120327974E+03  0.12500296133E+03 0.  0.
          2    1    1    2  501    0 -0.20923366942E+02 -0.14323752178E+02 -0.13724985587E+04  0.13727327674E+04  0.00000000000E+00 0. -1.
          1    1    1    2  502    0 -0.76623267458E+02  0.43392294259E+02  0.35885971474E+03  0.36950549546E+03  0.00000000000E+00 0. -1.
         22    1    3    3    0    0  0.71454358941E+02 -0.26693031032E+02 -0.12876386542E+03  0.14966087115E+03  0.00000000000E+00 0.  1.
         22    1    3    3    0    0  0.26092275459E+02 -0.23755110486E+01 -0.46079816084E+03  0.46154240858E+03  0.00000000000E+00 0.  1.
</event>
<event>
 7    1  0.5736319E-006  0.1074448E+03  0.7818608E-02  0.1388013E+00
          2   -1    0    0  502    0  0.00000000000E+00  0.00000000000E+00  0.22000090103E+04  0.22000090103E+04  0.00000000000E+00 0. -1.
          1   -1    0    0  501    0 -0.00000000000E+00 -0.00000000000E+00 -0.20361695367E+03  0.20361695367E+03  0.00000000000E+00 0. -1.
         25    2    1    2    0    0 -0.12081372351E+03 -0.10153408975E+02  0.43869952571E+02  0.17958091208E+03  0.12500273494E+03 0.  0.
          2    1    1    2  501    0  0.10343432199E+03 -0.21651837148E+02 -0.11501407283E+03  0.15619122243E+03  0.00000000000E+00 0. -1.
          1    1    1    2  502    0  0.17379401520E+02  0.31805246123E+02  0.20675361768E+04  0.20678538294E+04  0.00000000000E+00 0. -1.
         22    1    3    3    0    0 -0.99861654306E+02  0.45734519528E+02  0.47754278123E+02  0.11976839047E+03  0.00000000000E+00 0. -1.
         22    1    3    3    0    0 -0.20952069200E+02 -0.55887928503E+02 -0.38843255513E+01  0.59812521608E+02  0.00000000000E+00 0. -1.
</event>
<event>
 7    1  0.5736319E-006  0.5365431E+02  0.7818608E-02  0.1456622E+00
          2   -1    0    0  502    0  0.00000000000E+00  0.00000000000E+00  0.49722293011E+03  0.49722293011E+03  0.00000000000E+00 0. -1.
          1   -1    0    0  501    0 -0.00000000000E+00 -0.00000000000E+00 -0.52699119590E+03  0.52699119590E+03  0.00000000000E+00 0. -1.
         25    2    1    2    0    0  0.69714811798E+01 -0.55907584901E+02 -0.19749860201E+03  0.24042556315E+03  0.12499797608E+03 0.  0.
          2    1    1    2  501    0  0.34024529404E+02  0.43323736376E+02 -0.30458698493E+03  0.30952842539E+03  0.00000000000E+00 0. -1.
          1    1    1    2  502    0 -0.40996010584E+02  0.12583848525E+02  0.47231732115E+03  0.47426013746E+03  0.00000000000E+00 0. -1.
         22    1    3    3    0    0 -0.53824457457E+02 -0.33030050353E+02 -0.54702118510E+02  0.83548657777E+02  0.00000000000E+00 0.  1.
         22    1    3    3    0    0  0.60795938637E+02 -0.22877534548E+02 -0.14279648350E+03  0.15687690538E+03  0.00000000000E+00 0.  1.
</event>
<event>
 7    1  0.5736319E-006  0.1335509E+03  0.7818608E-02  0.1282658E+00
          2   -1    0    0  502    0  0.00000000000E+00  0.00000000000E+00  0.19518122552E+04  0.19518122552E+04  0.00000000000E+00 0. -1.
          1   -1    0    0  501    0 -0.00000000000E+00 -0.00000000000E+00 -0.95716774700E+02  0.95716774700E+02  0.00000000000E+00 0. -1.
         25    2    1    2    0    0  0.54485478489E+02  0.72374783662E+02  0.12364736369E+04  0.12460739466E+04  0.12500579611E+03 0.  0.
          2    1    1    2  501    0 -0.16323233061E+02 -0.13486000593E+03 -0.36976740864E+02  0.14078689037E+03  0.00000000000E+00 0. -1.
          1    1    1    2  502    0 -0.38162245429E+02  0.62485222265E+02  0.65659858447E+03  0.66066819290E+03  0.00000000000E+00 0. -1.
         22    1    3    3    0    0  0.88622440441E+02  0.65129460800E+02  0.71237493035E+03  0.72081469533E+03  0.00000000000E+00 0.  1.
         22    1    3    3    0    0 -0.34136961952E+02  0.72453228620E+01  0.52409870652E+03  0.52525925128E+03  0.00000000000E+00 0.  1.
</event>
<event>
 7    1  0.5736319E-006  0.1322263E+03  0.7818608E-02  0.1387021E+00
          2   -1    0    0  502    0  0.00000000000E+00  0.00000000000E+00  0.21369177121E+04  0.21369177121E+04  0.00000000000E+00 0. -1.
          1   -1    0    0  501    0 -0.00000000000E+00 -0.00000000000E+00 -0.54525148203E+02  0.54525148203E+02  0.00000000000E+00 0. -1.
         25    2    1    2    0    0 -0.34853502282E+02  0.12930889541E+03  0.86980301220E+03  0.88888624613E+03  0.12500368589E+03 0.  0.
          2    1    1    2  501    0  0.61877012315E+02 -0.11701708012E+03  0.52998225695E+02  0.14258532049E+03  0.00000000000E+00 0. -1.
          1    1    1    2  502    0 -0.27023510033E+02 -0.12291815292E+02  0.11595913260E+04  0.11599712937E+04  0.00000000000E+00 0. -1.
         22    1    3    3    0    0 -0.66984897591E+02  0.71434086436E+02  0.69686552479E+03  0.70371255840E+03  0.00000000000E+00 0. -1.
         22    1    3    3    0    0  0.32131395309E+02  0.57874808972E+02  0.17293748741E+03  0.18517368773E+03  0.00000000000E+00 0. -1.
</event>
<event>
 7    1  0.5736319E-006  0.7050917E+02  0.7818608E-02  0.1368436E+00
          2   -1    0    0  502    0  0.00000000000E+00  0.00000000000E+00  0.38683095197E+03  0.38683095197E+03  0.00000000000E+00 0. -1.
          1   -1    0    0  501    0 -0.00000000000E+00 -0.00000000000E+00 -0.13748504344E+04  0.13748504344E+04  0.00000000000E+00 0. -1.
         25    2    1    2    0    0 -0.13006007586E+03  0.24808509540E+02 -0.12741860897E+02  0.18253055297E+03  0.12499584901E+03 0.  0.
          2    1    1    2  501    0  0.65242009651E+02 -0.24904946000E+02 -0.12727672732E+04  0.12746816496E+04  0.00000000000E+00 0. -1.
          1    1    1    2  502    0  0.64818066211E+02  0.96436459789E-01  0.29748965168E+03  0.30446918377E+03  0.00000000000E+00 0. -1.
         22    1    3    3    0    0 -0.24513724638E+02  0.64185470505E+02 -0.12737746854E+02  0.69878090375E+02  0.00000000000E+00 0.  1.
         22    1    3    3    0    0 -0.10554635122E+03 -0.39376960965E+02 -0.41140434335E-02  0.11265246259E+03  0.00000000000E+00 0.  1.
</event>
<event>
 7    1  0.5736319E-006  0.4910083E+02  0.7818608E-02  0.1510174E+00
          2   -1    0    0  502    0  0.00000000000E+00  0.00000000000E+00  0.25211544460E+02  0.25211544460E+02  0.00000000000E+00 0. -1.
          1   -1    0    0  501    0 -0.00000000000E+00 -0.00000000000E+00 -0.70157916956E+03  0.70157916956E+03  0.00000000000E+00 0. -1.
         25    2    1    2    0    0  0.28566776810E+02  0.24396687201E+02 -0.27321268123E+03  0.30279892273E+03  0.12502303524E+03 0.  0.
          2    1    1    2  501    0 -0.96621222353E+01 -0.50407464214E+02 -0.38215634106E+03  0.38558752322E+03  0.00000000000E+00 0. -1.
          1    1    1    2  502    0 -0.18904654575E+02  0.26010777014E+02 -0.20998602814E+02  0.38404268065E+02  0.00000000000E+00 0. -1.
         22    1    3    3    0    0 -0.25429098996E+02 -0.30841804733E+02 -0.37718126643E+02  0.54959194612E+02  0.00000000000E+00 0. -1.
         22    1    3    3    0    0  0.53995875806E+02  0.55238491934E+02 -0.23549455459E+03  0.24783972812E+03  0.00000000000E+00 0. -1.
</event>
<event>
 7    1  0.5736319E-006  0.5588535E+02  0.7818608E-02  0.1432236E+00
          2   -1    0    0  502    0  0.00000000000E+00  0.00000000000E+00  0.63585214235E+02  0.63585214235E+02  0.00000000000E+00 0. -1.
          1   -1    0    0  501    0 -0.00000000000E+00 -0.00000000000E+00 -0.17587225791E+04  0.17587225791E+04  0.00000000000E+00 0. -1.
         25    2    1    2    0    0  0.18588805621E+02 -0.29272232521E+02 -0.14236768619E+03  0.19260381916E+03  0.12500106317E+03 0.  0.
          2    1    1    2  501    0  0.26041243241E+02  0.50323005725E+02 -0.15746898045E+04  0.15757088981E+04  0.00000000000E+00 0. -1.
          1    1    1    2  502    0 -0.44630048862E+02 -0.21050773204E+02  0.21920125871E+02  0.53995075998E+02  0.00000000000E+00 0. -1.
         22    1    3    3    0    0 -0.48910096741E+02 -0.13270103387E+02 -0.25581985937E+02  0.56769104375E+02  0.00000000000E+00 0.  1.
         22    1    3    3    0    0  0.67498902362E+02 -0.16002129133E+02 -0.11678570026E+03  0.13583471479E+03  0.00000000000E+00 0.  1.
</event>
<event>
 7    1  0.5736319E-006  0.8897088E+02  0.7818608E-02  0.1344500E+00
          2   -1    0    0  502    0  0.00000000000E+00  0.00000000000E+00  0.47860136546E+03  0.47860136546E+03  0.00000000000E+00 0. -1.
          1   -1    0    0  501    0 -0.00000000000E+00 -0.00000000000E+00 -0.47644351057E+03  0.47644351057E+03  0.00000000000E+00 0. -1.
         25    2    1    2    0    0  0.16149395295E+02  0.14781568004E+03  0.81230221752E+01  0.19442539393E+03  0.12499988831E+03 0.  0.
          2    1    1    2  501    0 -0.47375412863E+01 -0.85978080169E+02 -0.37576835305E+03  0.38550814482E+03  0.00000000000E+00 0. -1.
          1    1    1    2  502    0 -0.11411854009E+02 -0.61837599875E+02  0.36980318576E+03  0.37511133730E+03  0.00000000000E+00 0. -1.
         22    1    3    3    0    0  0.84491499335E+01  0.16656649441E+03  0.24234296236E+02  0.16853215215E+03  0.00000000000E+00 0.  1.
         22    1    3    3    0    0  0.77002453617E+01 -0.18750814363E+02 -0.16111274061E+02  0.25893241777E+02  0.00000000000E+00 0.  1.
</event>
<event>
 7    1  0.5736319E-006  0.5231854E+02  0.7818608E-02  0.1451844E+00
          2   -1    0    0  502    0  0.00000000000E+00  0.00000000000E+00  0.79006813907E+03  0.79006813907E+03  0.00000000000E+00 0. -1.
          1   -1    0    0  501    0 -0.00000000000E+00 -0.00000000000E+00 -0.16662828154E+03  0.16662828154E+03  0.00000000000E+00 0. -1.
         25    2    1    2    0    0 -0.66261259985E+02  0.56366904920E+01  0.70528995057E+03  0.71936238195E+03  0.12500398126E+03 0.  0.
          2    1    1    2  501    0  0.35659316631E+02  0.28332660539E+02 -0.14916334248E+03  0.15596162751E+03  0.00000000000E+00 0. -1.
          1    1    1    2  502    0  0.30601943354E+02 -0.33969351031E+02  0.67313249440E+02  0.81372411152E+02  0.00000000000E+00 0. -1.
         22    1    3    3    0    0  0.15355541958E+02  0.42266755888E+02  0.14021528524E+03  0.14725011897E+03  0.00000000000E+00 0.  1.
         22    1    3    3    0    0 -0.81616801943E+02 -0.36630065396E+02  0.56507466533E+03  0.57211226298E+03  0.00000000000E+00 0.  1.
</event>
<event>
 7    1  0.5736319E-006  0.7958249E+02  0.7818608E-02  0.1341551E+00
          2   -1    0    0  502    0  0.00000000000E+00  0.00000000000E+00  0.27812971226E+04  0.27812971226E+04  0.00000000000E+00 0. -1.
          1   -1    0    0  501    0 -0.00000000000E+00 -0.00000000000E+00 -0.16344351416E+02  0.16344351416E+02  0.00000000000E+00 0. -1.
         25    2    1    2    0    0  0.13538572068E+03 -0.28760164496E+02  0.12606916342E+04  0.12744114380E+04  0.12499870551E+03 0.  0.
          2    1    1    2  501    0 -0.72650845142E+02 -0.67963909802E+01  0.14757683169E+03  0.16463066993E+03  0.00000000000E+00 0. -1.
          1    1    1    2  502    0 -0.62734875539E+02  0.35556555476E+02  0.13566843053E+04  0.13585993661E+04  0.00000000000E+00 0. -1.
         22    1    3    3    0    0  0.15428731626E+03 -0.21814864650E+02  0.12079055772E+04  0.12179147538E+04  0.00000000000E+00 0.  1.
         22    1    3    3    0    0 -0.18901595576E+02 -0.69452998466E+01  0.52786056996E+02  0.56496684137E+02  0.00000000000E+00 0.  1.
</event>
<event>
 7    1  0.5736319E-006  0.1613309E+03  0.7818608E-02  0.1306476E+00
          2   -1    0    0  502    0  0.00000000000E+00  0.00000000000E+00  0.20855571981E+03  0.20855571981E+03  0.00000000000E+00 0. -1.
          1   -1    0    0  501    0 -0.00000000000E+00 -0.00000000000E+00 -0.70017430073E+03  0.70017430073E+03  0.00000000000E+00 0. -1.
         25    2    1    2    0    0  0.87054029076E+02 -0.11671496038E+03  0.22933363450E+02  0.19326775701E+03  0.12500280312E+03 0.  0.
          2    1    1    2  501    0 -0.13151304838E+03  0.97160393568E+02 -0.59742965827E+03  0.61940134046E+03  0.00000000000E+00 0. -1.
          1    1    1    2  502    0  0.44459019300E+02  0.19554566811E+02  0.82877713901E+02  0.96060923074E+02  0.00000000000E+00 0. -1.
         22    1    3    3    0    0  0.98541631983E+02 -0.67350613057E+02 -0.26722226348E+02  0.12231367746E+03  0.00000000000E+00 0.  1.
         22    1    3    3    0    0 -0.11487602907E+02 -0.49364347322E+02  0.49655589798E+02  0.70954079553E+02  0.00000000000E+00 0.  1.
</event>
<event>
 7    1  0.5736319E-006  0.6998008E+02  0.7818608E-02  0.1458374E+00
          2   -1    0    0  502    0  0.00000000000E+00  0.00000000000E+00  0.38209251000E+03  0.38209251000E+03  0.00000000000E+00 0. -1.
          1   -1    0    0  501    0 -0.00000000000E+00 -0.00000000000E+00 -0.22890839763E+04  0.22890839763E+04  0.00000000000E+00 0. -1.
         25    2    1    2    0    0 -0.94891669178E+02 -0.79118003086E+01 -0.10702265401E+04  0.10817008853E+04  0.12499973074E+03 0.  0.
          2    1    1    2  501    0  0.63865646358E+02  0.17459997298E+02 -0.12115146761E+04  0.12133224974E+04  0.00000000000E+00 0. -1.
          1    1    1    2  502    0  0.31026022820E+02 -0.95481969899E+01  0.37474974998E+03  0.37615310350E+03  0.00000000000E+00 0. -1.
         22    1    3    3    0    0 -0.46196610064E+02  0.45778553931E+02 -0.77430374118E+03  0.77703029953E+03  0.00000000000E+00 0. -1.
         22    1    3    3    0    0 -0.48695059114E+02 -0.53690354239E+02 -0.29592279895E+03  0.30467058581E+03  0.00000000000E+00 0. -1.
</event>
<event>
 7    1  0.5736319E-006  0.8286951E+02  0.7818608E-02  0.1331359E+00
          2   -1    0    0  502    0  0.00000000000E+00  0.00000000000E+00  0.19850764855E+04  0.19850764855E+04  0.00000000000E+00 0. -1.
          1   -1    0    0  501    0 -0.00000000000E+00 -0.00000000000E+00 -0.15101216535E+03  0.15101216535E+03  0.00000000000E+00 0. -1.
         25    2    1    2    0    0 -0.14182943451E+03  0.33213628409E+02  0.26554963130E+03  0.32765853382E+03  0.12499909797E+03 0.  0.
          2    1    1    2  501    0  0.66987123282E+02 -0.44432745913E+02 -0.10553990743E+03  0.13266580440E+03  0.00000000000E+00 0. -1.
          1    1    1    2  502    0  0.74842311230E+02  0.11219117504E+02  0.16740545963E+04  0.16757643126E+04  0.00000000000E+00 0. -1.
         22    1    3    3    0    0 -0.83155420576E+02  0.80499039615E+02  0.17567463803E+03  0.21037228381E+03  0.00000000000E+00 0.  1.
         22    1    3    3    0    0 -0.58674013936E+02 -0.47285411205E+02  0.89874993278E+02  0.11728625001E+03  0.00000000000E+00 0.  1.
</event>
<event>
 7    1  0.5736319E-006  0.6247610E+02  0.7818608E-02  0.1396174E+00
          2   -1    0    0  502    0  0.00000000000E+00  0.00000000000E+00  0.12368856262E+03  0.12368856262E+03  0.00000000000E+00 0. -1.
          1   -1    0    0  501    0 -0.00000000000E+00 -0.00000000000E+00 -0.10176550613E+04  0.10176550613E+04  0.00000000000E+00 0. -1.
         25    2    1    2    0    0  0.30167397346E+02 -0.28031703329E+02 -0.29377050379E+02  0.13484487734E+03  0.12499712637E+03 0.  0.
          2    1    1    2  501    0  0.30219624023E+02  0.54681229144E+02 -0.91889980743E+03  0.92102123678E+03  0.00000000000E+00 0. -1.
          1    1    1    2  502    0 -0.60387021369E+02 -0.26649525815E+02  0.54310359126E+02  0.85477509816E+02  0.00000000000E+00 0. -1.
         22    1    3    3    0    0  0.84412963553E+01  0.49199627335E+02 -0.21083439502E+02  0.54188285038E+02  0.00000000000E+00 0. -1.
         22    1    3    3    0    0  0.21726100990E+02 -0.77231330664E+02 -0.82936108770E+01  0.80656592302E+02  0.00000000000E+00 0. -1.
</event>
<event>
 7    1  0.5736319E-006  0.9394339E+02  0.7818608E-02  0.1315637E+00
          2   -1    0    0  502    0  0.00000000000E+00  0.00000000000E+00  0.35517474989E+03  0.35517474989E+03  0.00000000000E+00 0. -1.
          1   -1    0    0  501    0 -0.00000000000E+00 -0.00000000000E+00 -0.54833155753E+03  0.54833155753E+03  0.00000000000E+00 0. -1.
         25    2    1    2    0    0  0.13157271265E+03 -0.12129613278E+02  0.16788003728E+02  0.18266065297E+03  0.12499828335E+03 0.  0.
          2    1    1    2  501    0 -0.71430732590E+02  0.59838052842E+02 -0.45479522739E+03  0.46424308393E+03  0.00000000000E+00 0. -1.
          1    1    1    2  502    0 -0.60141980063E+02 -0.47708439564E+02  0.24485041602E+03  0.25660257052E+03  0.00000000000E+00 0. -1.
         22    1    3    3    0    0  0.14900876545E+03 -0.24982283042E+01  0.37757499463E+02  0.15373835595E+03  0.00000000000E+00 0.  1.
         22    1    3    3    0    0 -0.17436052793E+02 -0.96313849734E+01 -0.20969495734E+02  0.28922297019E+02  0.00000000000E+00 0.  1.
</event>
<event>
 7    1  0.5736319E-006  0.3977541E+02  0.7818608E-02  0.1550165E+00
          2   -1    0    0  502    0  0.00000000000E+00  0.00000000000E+00  0.33975511538E+03  0.33975511538E+03  0.00000000000E+00 0. -1.
          1   -1    0    0  501    0 -0.00000000000E+00 -0.00000000000E+00 -0.32871648561E+03  0.32871648561E+03  0.00000000000E+00 0. -1.
         25    2    1    2    0    0 -0.45142759524E+02 -0.37267342943E+02  0.64539036910E+02  0.15236988776E+03  0.12499828728E+03 0.  0.
          2    1    1    2  501    0  0.30479570730E+02  0.78677403882E+00 -0.28230343461E+03  0.28394515745E+03  0.00000000000E+00 0. -1.
          1    1    1    2  502    0  0.14663188794E+02  0.36480568904E+02  0.22880302748E+03  0.23215655579E+03  0.00000000000E+00 0. -1.
         22    1    3    3    0    0 -0.52753623278E+02 -0.75301181974E+02  0.66597780821E+02  0.11352742922E+03  0.00000000000E+00 0.  1.
         22    1    3    3    0    0  0.76108637538E+01  0.38033839031E+02 -0.20587439109E+01  0.38842458534E+02  0.00000000000E+00 0.  1.
</event>
<event>
 7    1  0.5736319E-006  0.3886905E+02  0.7818608E-02  0.1534645E+00
          2   -1    0    0  502    0  0.00000000000E+00  0.00000000000E+00  0.18743256010E+04  0.18743256010E+04  0.00000000000E+00 0. -1.
          1   -1    0    0  501    0 -0.00000000000E+00 -0.00000000000E+00 -0.69971723956E+01  0.69971723956E+01  0.00000000000E+00 0. -1.
         25    2    1    2    0    0  0.21785238505E+02 -0.31376573881E+00  0.11604271557E+04  0.11673436577E+04  0.12500134614E+03 0.  0.
          2    1    1    2  501    0 -0.87208716214E+01  0.37878089313E+02  0.12944234946E+03  0.13515222931E+03  0.00000000000E+00 0. -1.
          1    1    1    2  502    0 -0.13064366884E+02 -0.37564323574E+02  0.57745892349E+03  0.57882688639E+03  0.00000000000E+00 0. -1.
         22    1    3    3    0    0 -0.19313953838E+01  0.55579875744E+02  0.79169849539E+03  0.79364939392E+03  0.00000000000E+00 0.  1.
         22    1    3    3    0    0  0.23716633889E+02 -0.55893641482E+02  0.36872866028E+03  0.37369426380E+03  0.00000000000E+00 0.  1.
</event>
<event>
 7    1  0.5736319E-006  0.2910518E+02  0.7818608E-02  0.1670564E+00
          2   -1    0    0  502    0  0.00000000000E+00  0.00000000000E+00  0.16195248552E+04  0.16195248552E+04  0.00000000000E+00 0. -1.
          1   -1    0    0  501    0 -0.00000000000E+00 -0.00000000000E+00 -0.53768492892E+03  0.53768492892E+03  0.00000000000E+00 0. -1.
         25    2    1    2    0    0 -0.63613767865E+01  0.42699605094E+02 -0.22040412738E+03  0.25703530686E+03  0.12500178485E+03 0.  0.
          2    1    1    2  501    0  0.14139078159E+02 -0.14658821741E+02 -0.29848596191E+03  0.29917998603E+03  0.00000000000E+00 0. -1.
          1    1    1    2  502    0 -0.77777013726E+01 -0.28040783352E+02  0.16007300156E+04  0.16009944912E+04  0.00000000000E+00 0. -1.
         22    1    3    3    0    0 -0.52492923639E+02 -0.17343528833E+02 -0.75957365115E+02  0.93945869200E+02  0.00000000000E+00 0. -1.
         22    1    3    3    0    0  0.46131546853E+02  0.60043133927E+02 -0.14444676227E+03  0.16308943766E+03  0.00000000000E+00 0. -1.
</event>
<event>
 7    1  0.5736319E-006  0.3577534E+02  0.7818608E-02  0.1626547E+00
          2   -1    0    0  502    0  0.00000000000E+00  0.00000000000E+00  0.35138292504E+03  0.35138292504E+03  0.00000000000E+00 0. -1.
          1   -1    0    0  501    0 -0.00000000000E+00 -0.00000000000E+00 -0.54063247295E+03  0.54063247295E+03  0.00000000000E+00 0. -1.
         25    2    1    2    0    0  0.78955789498E+01 -0.13860061030E+02 -0.56849988725E+02  0.13824476062E+03  0.12500100464E+03 0.  0.
          2    1    1    2  501    0 -0.25798311717E+02  0.25317101334E+02 -0.44198293251E+03  0.44345847735E+03  0.00000000000E+00 0. -1.
          1    1    1    2  502    0  0.17902732767E+02 -0.11457040304E+02  0.30958337333E+03  0.31031216002E+03  0.00000000000E+00 0. -1.
         22    1    3    3    0    0  0.16195825330E+01  0.30460116906E+02  0.28578680891E+02  0.41799315437E+02  0.00000000000E+00 0.  1.
         22    1    3    3    0    0  0.62759964168E+01 -0.44320177936E+02 -0.85428669616E+02  0.96445445178E+02  0.00000000000E+00 0.  1.
</event>
<event>
 7    1  0.5736319E-006  0.6984417E+02  0.7818608E-02  0.1371894E+00
          2   -1    0    0  502    0  0.00000000000E+00  0.00000000000E+00  0.75207364365E+02  0.75207364365E+02  0.00000000000E+00 0. -1.
          1   -1    0    0  501    0 -0.00000000000E+00 -0.00000000000E+00 -0.20407700698E+04  0.20407700698E+04  0.00000000000E+00 0. -1.
         25    2    1    2    0    0  0.11104849117E+03  0.16046405337E+02 -0.30732534300E+03  0.35023463153E+03  0.12500470455E+03 0.  0.
          2    1    1    2  501    0 -0.53618558513E+02 -0.43348121980E+02 -0.16922327735E+04  0.16936368469E+04  0.00000000000E+00 0. -1.
          1    1    1    2  502    0 -0.57429932655E+02  0.27301716643E+02  0.33995410977E+02  0.72105955814E+02  0.00000000000E+00 0. -1.
         22    1    3    3    0    0  0.67522476117E+02  0.64594037443E+02 -0.23478891060E+03  0.25270042935E+03  0.00000000000E+00 0. -1.
         22    1    3    3    0    0  0.43526015050E+02 -0.48547632106E+02 -0.72536432396E+02  0.97534202176E+02  0.00000000000E+00 0. -1.
</event>
<event>
 7    1  0.5736319E-006  0.1759418E+03  0.7818608E-02  0.1378593E+00
          2   -1    0    0  502    0  0.00000000000E+00  0.00000000000E+00  0.11921489133E+03  0.11921489133E+03  0.00000000000E+00 0. -1.
          1   -1    0    0  501    0 -0.00000000000E+00 -0.00000000000E+00 -0.13752126297E+04  0.13752126297E+04  0.00000000000E+00 0. -1.
         25    2    1    2    0    0 -0.17763315385E+03 -0.71598897174E+02 -0.71405012715E+03  0.74978154064E+03  0.12499934070E+03 0.  0.
          2    1    1    2  501    0  0.22483655815E+02 -0.80816431494E+01 -0.56782064345E+03  0.56832306909E+03  0.00000000000E+00 0. -1.
          1    1    1    2  502    0  0.15514949804E+03  0.79680540323E+02  0.25873032245E+02  0.17632291129E+03  0.00000000000E+00 0. -1.
         22    1    3    3    0    0 -0.55404939672E+02 -0.20633817635E+02 -0.67161337076E+02  0.89476851577E+02  0.00000000000E+00 0.  1.
         22    1    3    3    0    0 -0.12222821418E+03 -0.50965079538E+02 -0.64688879007E+03  0.66030468906E+03  0.00000000000E+00 0.  1.
</event>
<event>
 7    1  0.5736319E-006  0.9816232E+02  0.7818608E-02  0.1364308E+00
          2   -1    0    0  502    0  0.00000000000E+00  0.00000000000E+00  0.10678026642E+04  0.10678026642E+04  0.00000000000E+00 0. -1.
          1   -1    0    0  501    0 -0.00000000000E+00 -0.00000000000E+00 -0.11645379639E+04  0.11645379639E+04  0.00000000000E+00 0. -1.
         25    2    1    2    0    0 -0.69940949180E+02 -0.29099360632E+02  0.11557733728E+03  0.18633823909E+03  0.12500123717E+03 0.  0.
          2    1    1    2  501    0  0.98102553125E+02 -0.10000604532E+02 -0.11263687337E+04  0.11306770747E+04  0.00000000000E+00 0. -1.
          1    1    1    2  502    0 -0.28161603944E+02  0.39099965164E+02  0.91405609666E+03  0.91532531433E+03  0.00000000000E+00 0. -1.
         22    1    3    3    0    0 -0.96929468164E+02 -0.76359832458E+01  0.11662603631E+03  0.15183959426E+03  0.00000000000E+00 0. -1.
         22    1    3    3    0    0  0.26988518984E+02 -0.21463377386E+02 -0.10486990281E+01  0.34498644834E+02  0.00000000000E+00 0. -1.
</event>
<event>
 7    1  0.6187610E-006  0.8013682E+02  0.7818608E-02  0.1408441E+00
          2   -1    0    0  502    0  0.00000000000E+00  0.00000000000E+00  0.12797667666E+04  0.12797667666E+04  0.00000000000E+00 0. -1.
          1   -1    0    0  501    0 -0.00000000000E+00 -0.00000000000E+00 -0.73026614379E+03  0.73026614379E+03  0.00000000000E+00 0. -1.
         25    2    1    2    0    0 -0.75052820971E+02 -0.84112988266E+02 -0.12858600145E+03  0.21181704507E+03  0.12499672029E+03 0.  0.
          2    1    1    2  501    0  0.64536431793E+02  0.44154000714E+02 -0.55698805847E+03  0.56245019699E+03  0.00000000000E+00 0. -1.
          1    1    1    2  502    0  0.10516389177E+02  0.39958987552E+02  0.12350746827E+04  0.12357656683E+04  0.00000000000E+00 0. -1.
         22    1    3    3    0    0 -0.58527379365E+02 -0.11737437164E+03 -0.10167837748E+03  0.16595387823E+03  0.00000000000E+00 0.  1.
         22    1    3    3    0    0 -0.16525441606E+02  0.33261383378E+02 -0.26907623969E+02  0.45863166835E+02  0.00000000000E+00 0.  1.
</event>
<event>
 7    1  0.5736319E-006  0.8016668E+02  0.7818608E-02  0.1371670E+00
          2   -1    0    0  502    0  0.00000000000E+00  0.00000000000E+00  0.66747095662E+03  0.66747095662E+03  0.00000000000E+00 0. -1.
          1   -1    0    0  501    0 -0.00000000000E+00 -0.00000000000E+00 -0.33352260892E+03  0.33352260892E+03  0.00000000000E+00 0. -1.
         25    2    1    2    0    0  0.76874935244E+02 -0.21956677975E+02  0.52612998021E+02  0.15743624483E+03  0.12500476890E+03 0.  0.
          2    1    1    2  501    0 -0.45136195873E+02  0.67490871922E+02 -0.27383543646E+03  0.28561887233E+03  0.00000000000E+00 0. -1.
          1    1    1    2  502    0 -0.31738739372E+02 -0.45534193947E+02  0.55517078614E+03  0.55793844838E+03  0.00000000000E+00 0. -1.
         22    1    3    3    0    0  0.30003642903E+02  0.52461786728E+02  0.21561962423E+02  0.64166781731E+02  0.00000000000E+00 0.  1.
         22    1    3    3    0    0  0.46871292341E+02 -0.74418464703E+02  0.31051035598E+02  0.93269463096E+02  0.00000000000E+00 0.  1.
</event>
<event>
 7    1  0.5736319E-006  0.4021292E+02  0.7818608E-02  0.1535363E+00
          2   -1    0    0  502    0  0.00000000000E+00  0.00000000000E+00  0.14328855439E+03  0.14328855439E+03  0.00000000000E+00 0. -1.
          1   -1    0    0  501    0 -0.00000000000E+00 -0.00000000000E+00 -0.79757213883E+03  0.79757213883E+03  0.00000000000E+00 0. -1.
         25    2    1    2    0    0  0.23915566794E+02  0.29790203407E+01 -0.39079311947E+03  0.41100458308E+03  0.12499870477E+03 0.  0.
          2    1    1    2  501    0 -0.31479558350E+02  0.29344237561E+02 -0.39341289143E+03  0.39575971247E+03  0.00000000000E+00 0. -1.
          1    1    1    2  502    0  0.75639915555E+01 -0.32323257902E+02  0.12992242646E+03  0.13409639766E+03  0.00000000000E+00 0. -1.
         22    1    3    3    0    0  0.39244334544E+02 -0.31580213436E+02 -0.61264597215E+02  0.79314428362E+02  0.00000000000E+00 0.  1.
         22    1    3    3    0    0 -0.15328767750E+02  0.34559233777E+02 -0.32952852226E+03  0.33169015472E+03  0.00000000000E+00 0.  1.
</event>
<event>
 7    1  0.5736319E-006  0.2238388E+03  0.7818608E-02  0.1338852E+00
          2   -1    0    0  502    0  0.00000000000E+00  0.00000000000E+00  0.16081701066E+03  0.16081701066E+03  0.00000000000E+00 0. -1.
          1   -1    0    0  501    0 -0.00000000000E+00 -0.00000000000E+00 -0.22875401142E+04  0.22875401142E+04  0.00000000000E+00 0. -1.
         25    2    1    2    0    0 -0.85501231871E+02  0.22557401985E+03 -0.89613601139E+03  0.93641825462E+03  0.12500119037E+03 0.  0.
          2    1    1    2  501    0  0.68903592491E+02 -0.20524506489E+03 -0.13614059773E+04  0.13785135025E+04  0.00000000000E+00 0. -1.
          1    1    1    2  502    0  0.16597639380E+02 -0.20328954951E+02  0.13081888513E+03  0.13342536771E+03  0.00000000000E+00 0. -1.
         22    1    3    3    0    0 -0.11763504647E+03  0.17119193490E+03 -0.71646674064E+03  0.74596868110E+03  0.00000000000E+00 0. -1.
         22    1    3    3    0    0  0.32133814597E+02  0.54382084944E+02 -0.17966927075E+03  0.19044957352E+03  0.00000000000E+00 0. -1.
</event>
<event>
 7    1  0.5736319E-006  0.1007034E+03  0.7818608E-02  0.1350095E+00
          2   -1    0    0  502    0  0.00000000000E+00  0.00000000000E+00  0.50947895667E+03  0.50947895667E+03  0.00000000000E+00 0. -1.
          1   -1    0    0  501    0 -0.00000000000E+00 -0.00000000000E+00 -0.37894777632E+03  0.37894777632E+03  0.00000000000E+00 0. -1.
         25    2    1    2    0    0  0.42933456845E+02 -0.32600099625E+02  0.14941252725E+03  0.20215915296E+03  0.12505267536E+03 0.  0.
          2    1    1    2  501    0 -0.61968749383E+02  0.82016132828E+02 -0.34288641481E+03  0.35796349731E+03  0.00000000000E+00 0. -1.
          1    1    1    2  502    0  0.19035292539E+02 -0.49416033203E+02  0.32400506791E+03  0.32830408272E+03  0.00000000000E+00 0. -1.
         22    1    3    3    0    0  0.65165433389E+01 -0.40973697614E+02 -0.63547648244E+01  0.41972518023E+02  0.00000000000E+00 0.  1.
         22    1    3    3    0    0  0.36416913506E+02  0.83735979885E+01  0.15576729207E+03  0.16018663494E+03  0.00000000000E+00 0.  1.
</event>
<event>
 7    1  0.5736319E-006  0.6075863E+02  0.7818608E-02  0.1461949E+00
          2   -1    0    0  502    0  0.00000000000E+00  0.00000000000E+00  0.14220873799E+04  0.14220873799E+04  0.00000000000E+00 0. -1.
          1   -1    0    0  501    0 -0.00000000000E+00 -0.00000000000E+00 -0.14053068746E+03  0.14053068746E+03  0.00000000000E+00 0. -1.
         25    2    1    2    0    0  0.61121067047E+02  0.41162592637E+02  0.53917401624E+03  0.55835838234E+03  0.12500127788E+03 0.  0.
          2    1    1    2  501    0 -0.27144451043E+02 -0.54307291627E+02 -0.12349698219E+03  0.13761398097E+03  0.00000000000E+00 0. -1.
          1    1    1    2  502    0 -0.33976616004E+02  0.13144698990E+02  0.86587965834E+03  0.86664570401E+03  0.00000000000E+00 0. -1.
         22    1    3    3    0    0 -0.10277460506E+02  0.67856362213E+02  0.27183876837E+03  0.28036837924E+03  0.00000000000E+00 0.  1.
         22    1    3    3    0    0  0.71398527553E+02 -0.26693769576E+02  0.26733524787E+03  0.27799000310E+03  0.00000000000E+00 0.  1.
</event>
<event>
 7    1  0.5736319E-006  0.3448527E+02  0.7818608E-02  0.1569971E+00
          2   -1    0    0  502    0  0.00000000000E+00  0.00000000000E+00  0.36568605439E+03  0.36568605439E+03  0.00000000000E+00 0. -1.
          1   -1    0    0  501    0 -0.00000000000E+00 -0.00000000000E+00 -0.10733705276E+04  0.10733705276E+04  0.00000000000E+00 0. -1.
         25    2    1    2    0    0 -0.45856245341E+02  0.22625651809E+02 -0.15870495627E+02  0.13598130995E+03  0.12499731465E+03 0.  0.
          2    1    1    2  501    0  0.29996230840E+02  0.78969329781E+01 -0.99623466649E+03  0.99671743545E+03  0.00000000000E+00 0. -1.
          1    1    1    2  502    0  0.15860014500E+02 -0.30522584787E+02  0.30442068887E+03  0.30635783662E+03  0.00000000000E+00 0. -1.
         22    1    3    3    0    0 -0.76758315892E+02 -0.21908718147E+02 -0.12294480576E+01  0.79833216971E+02  0.00000000000E+00 0.  1.
         22    1    3    3    0    0  0.30902070552E+02  0.44534369956E+02 -0.14641047570E+02  0.56148092983E+02  0.00000000000E+00 0.  1.
</event>
<event>
 7    1  0.5736319E-006  0.4732303E+02  0.7818608E-02  0.1535325E+00
          2   -1    0    0  502    0  0.00000000000E+00  0.00000000000E+00  0.27074920798E+03  0.27074920798E+03  0.00000000000E+00 0. -1.
          1   -1    0    0  501    0 -0.00000000000E+00 -0.00000000000E+00 -0.46275910745E+03  0.46275910745E+03  0.00000000000E+00 0. -1.
         25    2    1    2    0    0 -0.64466278899E+02  0.39153493831E+01  0.33022827114E+02  0.14452226582E+03  0.12499978853E+03 0.  0.
          2    1    1    2  501    0  0.20468604744E+02 -0.19420942329E+02 -0.40351893284E+03  0.40450422240E+03  0.00000000000E+00 0. -1.
          1    1    1    2  502    0  0.43997674154E+02  0.15505592946E+02  0.17848620625E+03  0.18448182720E+03  0.00000000000E+00 0. -1.
         22    1    3    3    0    0  0.27184482793E+02 -0.13885400633E+02 -0.20627791785E+02  0.36841637442E+02  0.00000000000E+00 0. -1.
         22    1    3    3    0    0 -0.91650761692E+02  0.17800750016E+02  0.53650618899E+02  0.10768062838E+03  0.00000000000E+00 0. -1.
</event>
<event>
 7    1  0.5736319E-006  0.9149757E+02  0.7818608E-02  0.1474273E+00
          2   -1    0    0  502    0  0.00000000000E+00  0.00000000000E+00  0.55677465966E+03  0.55677465966E+03  0.00000000000E+00 0. -1.
          1   -1    0    0  501    0 -0.00000000000E+00 -0.00000000000E+00 -0.86319924581E+03  0.86319924581E+03  0.00000000000E+00 0. -1.
         25    2    1    2    0    0 -0.10347086535E+03  0.44445566316E+02 -0.14119772115E+03  0.21964370310E+03  0.12499972604E+03 0.  0.
          2    1    1    2  501    0  0.18171255747E+02 -0.12652882089E+02 -0.67859367290E+03  0.67895483124E+03  0.00000000000E+00 0. -1.
          1    1    1    2  502    0  0.85299609602E+02 -0.31792684226E+02  0.51336680790E+03  0.52137537114E+03  0.00000000000E+00 0. -1.
         22    1    3    3    0    0 -0.75881272860E+02  0.14845639460E+02 -0.15794176549E+03  0.17585210225E+03  0.00000000000E+00 0. -1.
         22    1    3    3    0    0 -0.27589592489E+02  0.29599926856E+02  0.16744044335E+02  0.43791600842E+02  0.00000000000E+00 0. -1.
</event>
<event>
 7    1  0.5736319E-006  0.1134919E+03  0.7818608E-02  0.1379742E+00
          2   -1    0    0  502    0  0.00000000000E+00  0.00000000000E+00  0.47777141107E+03  0.47777141107E+03  0.00000000000E+00 0. -1.
          1   -1    0    0  501    0 -0.00000000000E+00 -0.00000000000E+00 -0.85438585253E+02  0.85438585253E+02  0.00000000000E+00 0. -1.
         25    2    1    2    0    0 -0.62682168083E+02 -0.10870010804E+03  0.96432899788E+02  0.20166588484E+03  0.12500022905E+03 0.  0.
          2    1    1    2  501    0  0.77350998409E+02  0.75066927419E+02  0.61113053156E+02  0.12390732752E+03  0.00000000000E+00 0. -1.
          1    1    1    2  502    0 -0.14668830326E+02  0.33633180618E+02  0.23478687287E+03  0.23763678397E+03  0.00000000000E+00 0. -1.
         22    1    3    3    0    0 -0.40370893028E+02  0.51784296817E+01 -0.12424440884E+02  0.42555750130E+02  0.00000000000E+00 0. -1.
         22    1    3    3    0    0 -0.22311275055E+02 -0.11387853772E+03  0.10885734067E+03  0.15911013470E+03  0.00000000000E+00 0. -1.
</event>
<event>
 7    1  0.5736319E-006  0.1717568E+03  0.7818608E-02  0.1275345E+00
          2   -1    0    0  502    0  0.00000000000E+00  0.00000000000E+00  0.30380684781E+03  0.30380684781E+03  0.00000000000E+00 0. -1.
          1   -1    0    0  501    0 -0.00000000000E+00 -0.00000000000E+00 -0.16240527751E+04  0.16240527751E+04  0.00000000000E+00 0. -1.
         25    2    1    2    0    0  0.14740638340E+01  0.14865525481E+03 -0.49281780748E+03  0.52971220601E+03  0.12500028871E+03 0.  0.
          2    1    1    2  501    0  0.59490118444E+02  0.13669266443E+02 -0.10855106170E+04  0.10872254700E+04  0.00000000000E+00 0. -1.
          1    1    1    2  502    0 -0.60964182278E+02 -0.16232452125E+03  0.25808249717E+03  0.31092194690E+03  0.00000000000E+00 0. -1.
         22    1    3    3    0    0  0.27403488466E+02  0.15820072380E+03 -0.36199787655E+03  0.39600616512E+03  0.00000000000E+00 0.  1.
         22    1    3    3    0    0 -0.25929424632E+02 -0.95454689884E+01 -0.13081993094E+03  0.13370604089E+03  0.00000000000E+00 0.  1.
</event>
<event>
 7    1  0.5736319E-006  0.5118759E+02  0.7818608E-02  0.1458337E+00
          2   -1    0    0  502    0  0.00000000000E+00  0.00000000000E+00  0.43696903346E+03  0.43696903346E+03  0.00000000000E+00 0. -1.
          1   -1    0    0  501    0 -0.00000000000E+00 -0.00000000000E+00 -0.71310530728E+03  0.71310530728E+03  0.00000000000E+00 0. -1.
         25    2    1    2    0    0 -0.22634925883E+01 -0.69978720688E+01 -0.19115935728E+03  0.22852037894E+03  0.12500228040E+03 0.  0.
          2    1    1    2  501    0 -0.24351573583E+02 -0.37116473944E+02 -0.50069319307E+03  0.50265724441E+03  0.00000000000E+00 0. -1.
          1    1    1    2  502    0  0.26615066171E+02  0.44114346013E+02  0.41571627652E+03  0.41889671739E+03  0.00000000000E+00 0. -1.
         22    1    3    3    0    0 -0.53856067849E+02  0.26455703292E+02 -0.66815333047E+02  0.89803502220E+02  0.00000000000E+00 0. -1.
         22    1    3    3    0    0  0.51592575261E+02 -0.33453575360E+02 -0.12434402423E+03  0.13871687672E+03  0.00000000000E+00 0. -1.
</event>
<event>
 7    1  0.5736319E-006  0.1184325E+03  0.7818608E-02  0.1426123E+00
          2   -1    0    0  502    0  0.00000000000E+00  0.00000000000E+00  0.59081785135E+03  0.59081785135E+03  0.00000000000E+00 0. -1.
          1   -1    0    0  501    0 -0.00000000000E+00 -0.00000000000E+00 -0.78430976663E+03  0.78430976663E+03  0.00000000000E+00 0. -1.
         25    2    1    2    0    0 -0.12853281942E+03  0.29270575082E+01 -0.39987586671E+03  0.43823981924E+03  0.12499670818E+03 0.  0.
          2    1    1    2  501    0  0.12635102581E+02  0.20862886986E+02 -0.35871134007E+03  0.35953961029E+03  0.00000000000E+00 0. -1.
          1    1    1    2  502    0  0.11589771684E+03 -0.23789944495E+02  0.56509529150E+03  0.57734818845E+03  0.00000000000E+00 0. -1.
         22    1    3    3    0    0 -0.96262848806E+02  0.15592555353E+02 -0.11292969138E+03  0.14920716818E+03  0.00000000000E+00 0.  1.
         22    1    3    3    0    0 -0.32269970616E+02 -0.12665497845E+02 -0.28694617533E+03  0.28903265106E+03  0.00000000000E+00 0.  1.
</event>
<event>
 7    1  0.5736319E-006  0.5688178E+02  0.7818608E-02  0.1470178E+00
          2   -1    0    0  502    0  0.00000000000E+00  0.00000000000E+00  0.16525227853E+04  0.16525227853E+04  0.00000000000E+00 0. -1.
          1   -1    0    0  501    0 -0.00000000000E+00 -0.00000000000E+00 -0.22854104453E+03  0.22854104453E+03  0.00000000000E+00 0. -1.
         25    2    1    2    0    0  0.10403662905E+02 -0.21341027660E+02 -0.97200053203E+02  0.16012472446E+03  0.12501360477E+03 0.  0.
          2    1    1    2  501    0 -0.86072632868E+01 -0.35649989501E+02 -0.95992582618E+02  0.10275982995E+03  0.00000000000E+00 0. -1.
          1    1    1    2  502    0 -0.17963996184E+01  0.56991017161E+02  0.16171743766E+04  0.16181792754E+04  0.00000000000E+00 0. -1.
         22    1    3    3    0    0  0.31669382959E+02 -0.11261311221E+02 -0.12163866539E+03  0.12619719436E+03  0.00000000000E+00 0.  1.
         22    1    3    3    0    0 -0.21265720053E+02 -0.10079716438E+02  0.24438612185E+02  0.33927530096E+02  0.00000000000E+00 0.  1.
</event>
<event>
 7    1  0.5736319E-006  0.2630061E+03  0.7818608E-02  0.1299928E+00
          2   -1    0    0  502    0  0.00000000000E+00  0.00000000000E+00  0.22623533778E+03  0.22623533778E+03  0.00000000000E+00 0. -1.
          1   -1    0    0  501    0 -0.00000000000E+00 -0.00000000000E+00 -0.16462015818E+04  0.16462015818E+04  0.00000000000E+00 0. -1.
         25    2    1    2    0    0 -0.23350681054E+03  0.10530710302E+03 -0.72606732376E+03  0.78000847899E+03  0.12499780857E+03 0.  0.
          2    1    1    2  501    0  0.23138640728E+03 -0.13687303390E+03 -0.87150433859E+03  0.91202725237E+03  0.00000000000E+00 0. -1.
          1    1    1    2  502    0  0.21204032581E+01  0.31565930880E+02  0.17760541831E+03  0.18040118823E+03  0.00000000000E+00 0. -1.
         22    1    3    3    0    0 -0.23996287991E+03  0.92773071829E+02 -0.72013659328E+03  0.76471284779E+03  0.00000000000E+00 0.  1.
         22    1    3    3    0    0  0.64560693748E+01  0.12534031195E+02 -0.59307304783E+01  0.15295631199E+02  0.00000000000E+00 0.  1.
</event>
<event>
 7    1  0.5736319E-006  0.1357183E+03  0.7818608E-02  0.1312782E+00
          2   -1    0    0  502    0  0.00000000000E+00  0.00000000000E+00  0.11792035483E+03  0.11792035483E+03  0.00000000000E+00 0. -1.
          1   -1    0    0  501    0 -0.00000000000E+00 -0.00000000000E+00 -0.16936238440E+04  0.16936238440E+04  0.00000000000E+00 0. -1.
         25    2    1    2    0    0 -0.11436224747E+03  0.14628087340E+03 -0.30232133308E+03  0.37616676252E+03  0.12500570874E+03 0.  0.
          2    1    1    2  501    0  0.77586956841E+02 -0.10602787674E+03 -0.13416170532E+04  0.13480348527E+04  0.00000000000E+00 0. -1.
          1    1    1    2  502    0  0.36775290629E+02 -0.40252996654E+02  0.68234897104E+02  0.87342583676E+02  0.00000000000E+00 0. -1.
         22    1    3    3    0    0 -0.34558492055E+02  0.60007722557E+02 -0.22518157343E+03  0.23558853357E+03  0.00000000000E+00 0. -1.
         22    1    3    3    0    0 -0.79803755415E+02  0.86273150841E+02 -0.77139759659E+02  0.14057822895E+03  0.00000000000E+00 0. -1.
</event>
<event>
 7    1  0.5736319E-006  0.1586865E+03  0.7818608E-02  0.1375791E+00
          2   -1    0    0  502    0  0.00000000000E+00  0.00000000000E+00  0.19214026640E+03  0.19214026640E+03  0.00000000000E+00 0. -1.
          1   -1    0    0  501    0 -0.00000000000E+00 -0.00000000000E+00 -0.22456863701E+03  0.22456863701E+03  0.00000000000E+00 0. -1.
         25    2    1    2    0    0 -0.12920742709E+03  0.74282516939E+02 -0.22457996955E+02  0.19580272032E+03  0.12498756786E+03 0.  0.
          2    1    1    2  501    0 -0.12256191996E+01  0.27077006872E+02 -0.44542130396E+02  0.52140846021E+02  0.00000000000E+00 0. -1.
          1    1    1    2  502    0  0.13043304629E+03 -0.10135952381E+03  0.34571756741E+02  0.16876533706E+03  0.00000000000E+00 0. -1.
         22    1    3    3    0    0 -0.14983320978E+03  0.74889033784E+02 -0.31387364183E+01  0.16753569709E+03  0.00000000000E+00 0.  1.
         22    1    3    3    0    0  0.20625782692E+02 -0.60651684485E+00 -0.19319260536E+02  0.28267023225E+02  0.00000000000E+00 0.  1.
</event>
<event>
 7    1  0.5736319E-006  0.7820616E+02  0.7818608E-02  0.1343493E+00
          2   -1    0    0  502    0  0.00000000000E+00  0.00000000000E+00  0.24565835122E+03  0.24565835122E+03  0.00000000000E+00 0. -1.
          1   -1    0    0  501    0 -0.00000000000E+00 -0.00000000000E+00 -0.43805743893E+03  0.43805743893E+03  0.00000000000E+00 0. -1.
         25    2    1    2    0    0  0.50524034692E+02  0.10297020845E+03 -0.17426671136E+02  0.17053966045E+03  0.12499818004E+03 0.  0.
          2    1    1    2  501    0  0.18700221713E+02 -0.69694494231E+02 -0.33126364018E+03  0.33903188659E+03  0.00000000000E+00 0. -1.
          1    1    1    2  502    0 -0.69224256404E+02 -0.33275714214E+02  0.15629122361E+03  0.17414424311E+03  0.00000000000E+00 0. -1.
         22    1    3    3    0    0  0.47890320632E+02  0.11715730777E+03  0.22081229844E+02  0.12847917452E+03  0.00000000000E+00 0. -1.
         22    1    3    3    0    0  0.26337140596E+01 -0.14187099327E+02 -0.39507900980E+02  0.42060485932E+02  0.00000000000E+00 0. -1.
</event>
<event>
 7    1  0.5736319E-006  0.2051464E+03  0.7818608E-02  0.1334724E+00
          2   -1    0    0  502    0  0.00000000000E+00  0.00000000000E+00  0.99457685206E+03  0.99457685206E+03  0.00000000000E+00 0. -1.
          1   -1    0    0  501    0 -0.00000000000E+00 -0.00000000000E+00 -0.27827348273E+03  0.27827348273E+03  0.00000000000E+00 0. -1.
         25    2    1    2    0    0 -0.19216979869E+03 -0.15340196718E+02  0.69700863494E+03  0.73390093781E+03  0.12499998470E+03 0.  0.
          2    1    1    2  501    0  0.20564797163E+03 -0.11106409613E+02 -0.21794646552E+03  0.29985847062E+03  0.00000000000E+00 0. -1.
          1    1    1    2  502    0 -0.13478172942E+02  0.26446606332E+02  0.23724119991E+03  0.23909092636E+03  0.00000000000E+00 0. -1.
         22    1    3    3    0    0  0.16473876221E+02 -0.11313433569E+02  0.84037795926E+02  0.86381326228E+02  0.00000000000E+00 0. -1.
         22    1    3    3    0    0 -0.20864367491E+03 -0.40267631492E+01  0.61297083901E+03  0.64751961158E+03  0.00000000000E+00 0. -1.
</event>
<event>
 7    1  0.5736319E-006  0.5062090E+02  0.7818608E-02  0.1489754E+00
          2   -1    0    0  502    0  0.00000000000E+00  0.00000000000E+00  0.11011053410E+04  0.11011053410E+04  0.00000000000E+00 0. -1.
          1   -1    0    0  501    0 -0.00000000000E+00 -0.00000000000E+00 -0.45108177797E+03  0.45108177797E+03  0.00000000000E+00 0. -1.
         25    2    1    2    0    0  0.50498248633E+02 -0.15274172700E+02  0.60962375310E+03  0.62453680215E+03  0.12498689306E+03 0.  0.
          2    1    1    2  501    0 -0.27300869530E+02  0.42657166597E+02 -0.44151039268E+03  0.44440566849E+03  0.00000000000E+00 0. -1.
          1    1    1    2  502    0 -0.23197379103E+02 -0.27382993897E+02  0.48191020265E+03  0.48324464836E+03  0.00000000000E+00 0. -1.
         22    1    3    3    0    0  0.28677652080E+02  0.42354008072E+02  0.45833156180E+03  0.46117685357E+03  0.00000000000E+00 0. -1.
         22    1    3    3    0    0  0.21820596554E+02 -0.57628180772E+02  0.15129219130E+03  0.16335994859E+03  0.00000000000E+00 0. -1.
</event>
<event>
 7    1  0.5736319E-006  0.8141667E+02  0.7818608E-02  0.1381525E+00
          2   -1    0    0  502    0  0.00000000000E+00  0.00000000000E+00  0.36110181542E+03  0.36110181542E+03  0.00000000000E+00 0. -1.
          1   -1    0    0  501    0 -0.00000000000E+00 -0.00000000000E+00 -0.10637732935E+03  0.10637732935E+03  0.00000000000E+00 0. -1.
         25    2    1    2    0    0 -0.44476846376E+02 -0.34362641796E+02  0.23358511956E+02  0.13903721740E+03  0.12500698672E+03 0.  0.
          2    1    1    2  501    0  0.94808267078E+02  0.31534200963E+02  0.88715103454E+01  0.10030811050E+03  0.00000000000E+00 0. -1.
          1    1    1    2  502    0 -0.50331420703E+02  0.28284408325E+01  0.22249446378E+03  0.22813381687E+03  0.00000000000E+00 0. -1.
         22    1    3    3    0    0 -0.95101002196E+01 -0.46596217186E+02 -0.42301349050E+02  0.63647887582E+02  0.00000000000E+00 0. -1.
         22    1    3    3    0    0 -0.34966746156E+02  0.12233575390E+02  0.65659861006E+02  0.75389329821E+02  0.00000000000E+00 0. -1.
</event>
<event>
 7    1  0.5736319E-006  0.5142403E+02  0.7818608E-02  0.1529890E+00
          2   -1    0    0  502    0  0.00000000000E+00  0.00000000000E+00  0.59356473574E+03  0.59356473574E+03  0.00000000000E+00 0. -1.
          1   -1    0    0  501    0 -0.00000000000E+00 -0.00000000000E+00 -0.11498105491E+04  0.11498105491E+04  0.00000000000E+00 0. -1.
         25    2    1    2    0    0 -0.34591005564E+02 -0.30435414516E+02 -0.59293591487E+02  0.14582513302E+03  0.12500554911E+03 0.  0.
          2    1    1    2  501    0  0.15361633005E+02  0.49260573764E+02 -0.10462860111E+04  0.10475576360E+04  0.00000000000E+00 0. -1.
          1    1    1    2  502    0  0.19229372558E+02 -0.18825159248E+02  0.54933378922E+03  0.54999251574E+03  0.00000000000E+00 0. -1.
         22    1    3    3    0    0 -0.17999874690E+02  0.42892490549E+02  0.51543841335E+01  0.46800949885E+02  0.00000000000E+00 0. -1.
         22    1    3    3    0    0 -0.16591130874E+02 -0.73327905065E+02 -0.64447975621E+02  0.99024183140E+02  0.00000000000E+00 0. -1.
</event>
<event>
 7    1  0.5736319E-006  0.7485887E+02  0.7818608E-02  0.1465065E+00
          2   -1    0    0  502    0  0.00000000000E+00  0.00000000000E+00  0.48534202680E+03  0.48534202680E+03  0.00000000000E+00 0. -1.
          1   -1    0    0  501    0 -0.00000000000E+00 -0.00000000000E+00 -0.92450733983E+03  0.92450733983E+03  0.00000000000E+00 0. -1.
         25    2    1    2    0    0  0.63677063620E+02 -0.55114448247E+02  0.43293272032E+01  0.15078619337E+03  0.12500144879E+03 0.  0.
          2    1    1    2  501    0 -0.36583854777E+02  0.65201852096E+02 -0.84912189215E+03  0.85240697304E+03  0.00000000000E+00 0. -1.
          1    1    1    2  502    0 -0.27093208844E+02 -0.10087403849E+02  0.40562725192E+03  0.40665620022E+03  0.00000000000E+00 0. -1.
         22    1    3    3    0    0  0.22681275730E+02 -0.87125278215E+02  0.27082199452E+02  0.94014360073E+02  0.00000000000E+00 0.  1.
         22    1    3    3    0    0  0.40995787890E+02  0.32010829968E+02 -0.22752872249E+02  0.56771833294E+02  0.00000000000E+00 0.  1.
</event>
<event>
 7    1  0.5736319E-006  0.6205059E+02  0.7818608E-02  0.1438564E+00
          2   -1    0    0  502    0  0.00000000000E+00  0.00000000000E+00  0.92907882363E+03  0.92907882363E+03  0.00000000000E+00 0. -1.
          1   -1    0    0  501    0 -0.00000000000E+00 -0.00000000000E+00 -0.13970988710E+03  0.13970988710E+03  0.00000000000E+00 0. -1.
         25    2    1    2    0    0 -0.19193808515E+02 -0.21581658776E+02 -0.31118818424E+01  0.12833727839E+03  0.12500641157E+03 0.  0.
          2    1    1    2  501    0  0.44614221315E+02  0.55487397828E+02 -0.56204015851E+02  0.90709268871E+02  0.00000000000E+00 0. -1.
          1    1    1    2  502    0 -0.25420412800E+02 -0.33905739052E+02  0.84868483423E+03  0.84974216347E+03  0.00000000000E+00 0. -1.
         22    1    3    3    0    0 -0.44298956603E+02  0.41265021204E+02  0.83682793957E+00  0.60546674657E+02  0.00000000000E+00 0.  1.
         22    1    3    3    0    0  0.25105148088E+02 -0.62846679980E+02 -0.39487097819E+01  0.67790603729E+02  0.00000000000E+00 0.  1.
</event>
<event>
 7    1  0.5736319E-006  0.4813555E+02  0.7818608E-02  0.1511045E+00
          2   -1    0    0  502    0  0.00000000000E+00  0.00000000000E+00  0.56665523533E+03  0.56665523533E+03  0.00000000000E+00 0. -1.
          1   -1    0    0  501    0 -0.00000000000E+00 -0.00000000000E+00 -0.46679936489E+03  0.46679936489E+03  0.00000000000E+00 0. -1.
         25    2    1    2    0    0 -0.42354957118E+02  0.19143086633E+02  0.67784082446E+01  0.13354723207E+03  0.12501406408E+03 0.  0.
          2    1    1    2  501    0  0.21513066726E+02  0.24503046839E+02 -0.40157462082E+03  0.40289624897E+03  0.00000000000E+00 0. -1.
          1    1    1    2  502    0  0.20841890392E+02 -0.43646133471E+02  0.49465208301E+03  0.49701111918E+03  0.00000000000E+00 0. -1.
         22    1    3    3    0    0  0.93545614030E+01  0.50407588772E+02 -0.33212561462E+02  0.61086062761E+02  0.00000000000E+00 0. -1.
         22    1    3    3    0    0 -0.51709518521E+02 -0.31264502139E+02  0.39990969706E+02  0.72461169310E+02  0.00000000000E+00 0. -1.
</event>
<event>
 7    1  0.5736319E-006  0.5053044E+02  0.7818608E-02  0.1477940E+00
          2   -1    0    0  502    0  0.00000000000E+00  0.00000000000E+00  0.31695618816E+04  0.31695618816E+04  0.00000000000E+00 0. -1.
          1   -1    0    0  501    0 -0.00000000000E+00 -0.00000000000E+00 -0.37252312784E+02  0.37252312784E+02  0.00000000000E+00 0. -1.
         25    2    1    2    0    0  0.45057786650E+02  0.57867910293E+02  0.15707006191E+03  0.21371516471E+03  0.12499707237E+03 0.  0.
          2    1    1    2  501    0 -0.38257102845E+02 -0.78972683766E+01  0.35068224289E+02  0.52495267603E+02  0.00000000000E+00 0. -1.
          1    1    1    2  502    0 -0.68006838051E+01 -0.49970641916E+02  0.29401712826E+04  0.29406037620E+04  0.00000000000E+00 0. -1.
         22    1    3    3    0    0  0.43231945620E+02 -0.30924155352E+02  0.80433919993E+02  0.96410165396E+02  0.00000000000E+00 0. -1.
         22    1    3    3    0    0  0.18258410298E+01  0.88792065644E+02  0.76636141915E+02  0.11730499932E+03  0.00000000000E+00 0. -1.
</event>
<event>
 7    1  0.5736319E-006  0.2031517E+03  0.7818608E-02  0.1215790E+00
          2   -1    0    0  502    0  0.00000000000E+00  0.00000000000E+00  0.47906750912E+03  0.47906750912E+03  0.00000000000E+00 0. -1.
          1   -1    0    0  501    0 -0.00000000000E+00 -0.00000000000E+00 -0.88860748774E+03  0.88860748774E+03  0.00000000000E+00 0. -1.
         25    2    1    2    0    0 -0.12760911942E+03  0.69416045457E+02 -0.10994942562E+03  0.22094514035E+03  0.12500081650E+03 0.  0.
          2    1    1    2  501    0 -0.11580388409E+02  0.93280245895E+02 -0.69272383640E+03  0.69907197283E+03  0.00000000000E+00 0. -1.
          1    1    1    2  502    0  0.13918950783E+03 -0.16269629135E+03  0.39313328340E+03  0.44765788368E+03  0.00000000000E+00 0. -1.
         22    1    3    3    0    0 -0.46390530814E+02  0.31649510759E+02 -0.11833402211E+03  0.13098363894E+03  0.00000000000E+00 0.  1.
         22    1    3    3    0    0 -0.81218588606E+02  0.37766534698E+02  0.83845964932E+01  0.89961501414E+02  0.00000000000E+00 0.  1.
</event>
<event>
 7    1  0.5736319E-006  0.1759088E+03  0.7818608E-02  0.1278749E+00
          2   -1    0    0  502    0  0.00000000000E+00  0.00000000000E+00  0.17865060947E+04  0.17865060947E+04  0.00000000000E+00 0. -1.
          1   -1    0    0  501    0 -0.00000000000E+00 -0.00000000000E+00 -0.10171508271E+04  0.10171508271E+04  0.00000000000E+00 0. -1.
         25    2    1    2    0    0  0.10925219669E+03 -0.85654116547E+02 -0.14553726020E+03  0.23680841739E+03  0.12499784909E+03 0.  0.
          2    1    1    2  501    0 -0.52537972820E+01 -0.57451693531E+02 -0.82046832509E+03  0.82249411667E+03  0.00000000000E+00 0. -1.
          1    1    1    2  502    0 -0.10399839941E+03  0.14310581008E+03  0.17353608530E+04  0.17443543877E+04  0.00000000000E+00 0. -1.
         22    1    3    3    0    0  0.18834965129E+02 -0.93914107871E+02 -0.68841269821E+02  0.11795650045E+03  0.00000000000E+00 0. -1.
         22    1    3    3    0    0  0.90417231559E+02  0.82599913241E+01 -0.76695990380E+02  0.11885191694E+03  0.00000000000E+00 0. -1.
</event>
<event>
 7    1  0.5736319E-006  0.6016100E+02  0.7818608E-02  0.1436272E+00
          2   -1    0    0  502    0  0.00000000000E+00  0.00000000000E+00  0.39115505942E+03  0.39115505942E+03  0.00000000000E+00 0. -1.
          1   -1    0    0  501    0 -0.00000000000E+00 -0.00000000000E+00 -0.21693752187E+03  0.21693752187E+03  0.00000000000E+00 0. -1.
         25    2    1    2    0    0 -0.53591546831E+01  0.25746050901E+02  0.17777989252E+03  0.21891141842E+03  0.12499975702E+03 0.  0.
          2    1    1    2  501    0 -0.29222054296E+02 -0.53698597436E+02 -0.18891958020E+03  0.19856504125E+03  0.00000000000E+00 0. -1.
          1    1    1    2  502    0  0.34581208980E+02  0.27952546535E+02  0.18535722523E+03  0.19061612161E+03  0.00000000000E+00 0. -1.
         22    1    3    3    0    0  0.12770574151E+02 -0.44638082973E+02  0.33159100142E+02  0.57054114118E+02  0.00000000000E+00 0.  1.
         22    1    3    3    0    0 -0.18129728834E+02  0.70384133874E+02  0.14462079238E+03  0.16185730430E+03  0.00000000000E+00 0.  1.
</event>
<event>
 7    1  0.5736319E-006  0.6389407E+02  0.7818608E-02  0.1441969E+00
          2   -1    0    0  502    0  0.00000000000E+00  0.00000000000E+00  0.39768752962E+02  0.39768752962E+02  0.00000000000E+00 0. -1.
          1   -1    0    0  501    0 -0.00000000000E+00 -0.00000000000E+00 -0.65646388049E+03  0.65646388049E+03  0.00000000000E+00 0. -1.
         25    2    1    2    0    0 -0.44603154472E+02 -0.66968043267E+02 -0.37234713060E+03  0.40092134501E+03  0.12498551519E+03 0.  0.
          2    1    1    2  501    0  0.48778803926E+01  0.61349856550E+02 -0.24752871121E+03  0.25506481821E+03  0.00000000000E+00 0. -1.
          1    1    1    2  502    0  0.39725274080E+02  0.56181867175E+01  0.31807142856E+01  0.40246470231E+02  0.00000000000E+00 0. -1.
         22    1    3    3    0    0 -0.16469103350E+02 -0.94045514117E+02 -0.17123997510E+03  0.19605845853E+03  0.00000000000E+00 0. -1.
         22    1    3    3    0    0 -0.28134051122E+02  0.27077470850E+02 -0.20110715551E+03  0.20486288648E+03  0.00000000000E+00 0. -1.
</event>
<event>
 7    1  0.5736319E-006  0.7741776E+02  0.7818608E-02  0.1337163E+00
          2   -1    0    0  502    0  0.00000000000E+00  0.00000000000E+00  0.72933247621E+03  0.72933247621E+03  0.00000000000E+00 0. -1.
          1   -1    0    0  501    0 -0.00000000000E+00 -0.00000000000E+00 -0.80403996200E+02  0.80403996200E+02  0.00000000000E+00 0. -1.
         25    2    1    2    0    0  0.25343584216E+02  0.10238359854E+02  0.14549468540E+03  0.19375965958E+03  0.12500792346E+03 0.  0.
          2    1    1    2  501    0 -0.79481918332E+02  0.44517987114E+02 -0.14590307811E+02  0.92261062211E+02  0.00000000000E+00 0. -1.
          1    1    1    2  502    0  0.54138334116E+02 -0.54756346967E+02  0.51802410242E+03  0.52371575061E+03  0.00000000000E+00 0. -1.
         22    1    3    3    0    0  0.33106302256E+02 -0.19316437825E+02  0.15661860623E+03  0.16124062713E+03  0.00000000000E+00 0.  1.
         22    1    3    3    0    0 -0.77627180407E+01  0.29554797679E+02 -0.11123920830E+02  0.32519032455E+02  0.00000000000E+00 0.  1.
</event>
<event>
 7    1  0.5736319E-006  0.9458223E+02  0.7818608E-02  0.1363424E+00
          2   -1    0    0  502    0  0.00000000000E+00  0.00000000000E+00  0.21559383079E+03  0.21559383079E+03  0.00000000000E+00 0. -1.
          1   -1    0    0  501    0 -0.00000000000E+00 -0.00000000000E+00 -0.79482514870E+03  0.79482514870E+03  0.00000000000E+00 0. -1.
         25    2    1    2    0    0  0.11496958972E+03 -0.38366683459E+02 -0.14309098679E+03  0.22537395212E+03  0.12501351460E+03 0.  0.
          2    1    1    2  501    0 -0.44745468994E+02 -0.23152618321E+02 -0.59696457650E+03  0.59908672688E+03  0.00000000000E+00 0. -1.
          1    1    1    2  502    0 -0.70224120729E+02  0.61519301780E+02  0.16082424538E+03  0.18595830050E+03  0.00000000000E+00 0. -1.
         22    1    3    3    0    0  0.94259811758E+02 -0.81277196808E+02 -0.87412156623E+02  0.15209135399E+03  0.00000000000E+00 0. -1.
         22    1    3    3    0    0  0.20709777965E+02  0.42910513349E+02 -0.55678830164E+02  0.73282598123E+02  0.00000000000E+00 0. -1.
</event>
<event>
 7    1  0.5736319E-006  0.7800127E+02  0.7818608E-02  0.1411053E+00
          2   -1    0    0  502    0  0.00000000000E+00  0.00000000000E+00  0.10417883972E+03  0.10417883972E+03  0.00000000000E+00 0. -1.
          1   -1    0    0  501    0 -0.00000000000E+00 -0.00000000000E+00 -0.97934845053E+03  0.97934845053E+03  0.00000000000E+00 0. -1.
         25    2    1    2    0    0  0.57037359983E+02 -0.23467362292E+02 -0.42385930849E+03  0.44619059038E+03  0.12500140808E+03 0.  0.
          2    1    1    2  501    0 -0.54197965638E+02  0.64964333798E+02 -0.53618465680E+03  0.54281835851E+03  0.00000000000E+00 0. -1.
          1    1    1    2  502    0 -0.28393943448E+01 -0.41496971506E+02  0.84874354479E+02  0.94518341356E+02  0.00000000000E+00 0. -1.
         22    1    3    3    0    0 -0.37919798910E+02 -0.99737855530E+01 -0.78310353505E+02  0.87577959634E+02  0.00000000000E+00 0.  1.
         22    1    3    3    0    0  0.94957158893E+02 -0.13493576739E+02 -0.34554895498E+03  0.35861263074E+03  0.00000000000E+00 0.  1.
</event>
<event>
 7    1  0.5736319E-006  0.1450291E+03  0.7818608E-02  0.1373407E+00
          2   -1    0    0  502    0  0.00000000000E+00  0.00000000000E+00  0.17597502784E+04  0.17597502784E+04  0.00000000000E+00 0. -1.
          1   -1    0    0  501    0 -0.00000000000E+00 -0.00000000000E+00 -0.17890412497E+03  0.17890412497E+03  0.00000000000E+00 0. -1.
         25    2    1    2    0    0 -0.80789049610E+02 -0.12622280765E+03  0.47838530179E+02  0.20092242865E+03  0.12498891813E+03 0.  0.
          2    1    1    2  501    0  0.28842878022E+02 -0.90990725613E+01 -0.96839299557E+02  0.10145222853E+03  0.00000000000E+00 0. -1.
          1    1    1    2  502    0  0.51946171588E+02  0.13532188021E+03  0.16298469228E+04  0.16362797462E+04  0.00000000000E+00 0. -1.
         22    1    3    3    0    0 -0.44526896016E+02 -0.10972059687E+03 -0.22077390872E+02  0.12045192001E+03  0.00000000000E+00 0. -1.
         22    1    3    3    0    0 -0.36262153594E+02 -0.16502210786E+02  0.69915921051E+02  0.80470508638E+02  0.00000000000E+00 0. -1.
</event>
<event>
 7    1  0.5736319E-006  0.8032784E+02  0.7818608E-02  0.1393209E+00
          2   -1    0    0  502    0  0.00000000000E+00  0.00000000000E+00  0.35812239000E+03  0.35812239000E+03  0.00000000000E+00 0. -1.
          1   -1    0    0  501    0 -0.00000000000E+00 -0.00000000000E+00 -0.53564153561E+03  0.53564153561E+03  0.00000000000E+00 0. -1.
         25    2    1    2    0    0  0.82543339383E+02 -0.60396306635E+02 -0.10119433766E+03  0.19059484082E+03  0.12499993057E+03 0.  0.
          2    1    1    2  501    0 -0.38823354254E+01  0.46336071934E+02 -0.38322552991E+03  0.38603615228E+03  0.00000000000E+00 0. -1.
          1    1    1    2  502    0 -0.78661003958E+02  0.14060234701E+02  0.30690072196E+03  0.31713293251E+03  0.00000000000E+00 0. -1.
         22    1    3    3    0    0 -0.26043486144E+02 -0.23037952006E+02  0.38249644478E+01  0.34980576842E+02  0.00000000000E+00 0.  1.
         22    1    3    3    0    0  0.10858682553E+03 -0.37358354629E+02 -0.10501930211E+03  0.15561426398E+03  0.00000000000E+00 0.  1.
</event>
<event>
 7    1  0.5736319E-006  0.6602650E+02  0.7818608E-02  0.1523900E+00
          2   -1    0    0  502    0  0.00000000000E+00  0.00000000000E+00  0.56103027716E+02  0.56103027716E+02  0.00000000000E+00 0. -1.
          1   -1    0    0  501    0 -0.00000000000E+00 -0.00000000000E+00 -0.11084988616E+04  0.11084988616E+04  0.00000000000E+00 0. -1.
         25    2    1    2    0    0  0.25446856259E+02  0.53261915357E+02 -0.29933502489E+03  0.32971634272E+03  0.12500814138E+03 0.  0.
          2    1    1    2  501    0 -0.17403128521E+02  0.13140765367E+02 -0.76637501608E+03  0.76668521172E+03  0.00000000000E+00 0. -1.
          1    1    1    2  502    0 -0.80437277385E+01 -0.66402680723E+02  0.13314207107E+02  0.68200334853E+02  0.00000000000E+00 0. -1.
         22    1    3    3    0    0  0.17706147755E+01  0.89404897781E+02 -0.24149806295E+03  0.25752220338E+03  0.00000000000E+00 0. -1.
         22    1    3    3    0    0  0.23676241484E+02 -0.36142982424E+02 -0.57836961939E+02  0.72194139344E+02  0.00000000000E+00 0. -1.
</event>
<event>
 7    1  0.5736319E-006  0.1244936E+03  0.7818608E-02  0.1382580E+00
          2   -1    0    0  502    0  0.00000000000E+00  0.00000000000E+00  0.49099633187E+03  0.49099633187E+03  0.00000000000E+00 0. -1.
          1   -1    0    0  501    0 -0.00000000000E+00 -0.00000000000E+00 -0.40928736594E+03  0.40928736594E+03  0.00000000000E+00 0. -1.
         25    2    1    2    0    0 -0.11145510167E+03  0.60452037095E+02 -0.18667943182E+03  0.25797623788E+03  0.12500336224E+03 0.  0.
          2    1    1    2  501    0  0.20926873571E+02  0.25108635617E+02 -0.17691561735E+03  0.17990973648E+03  0.00000000000E+00 0. -1.
          1    1    1    2  502    0  0.90528228100E+02 -0.85560672712E+02  0.44530401509E+03  0.46239772345E+03  0.00000000000E+00 0. -1.
         22    1    3    3    0    0 -0.36647768542E+02  0.72195625827E+02 -0.15699388637E+03  0.17664186277E+03  0.00000000000E+00 0. -1.
         22    1    3    3    0    0 -0.74807333128E+02 -0.11743588732E+02 -0.29685545451E+02  0.81334375112E+02  0.00000000000E+00 0. -1.
</event>
<event>
 7    1  0.5736319E-006  0.7692086E+02  0.7818608E-02  0.1426288E+00
          2   -1    0    0  502    0  0.00000000000E+00  0.00000000000E+00  0.14320867146E+03  0.14320867146E+03  0.00000000000E+00 0. -1.
          1   -1    0    0  501    0 -0.00000000000E+00 -0.00000000000E+00 -0.93670209824E+03  0.93670209824E+03  0.00000000000E+00 0. -1.
         25    2    1    2    0    0 -0.28400478126E+02  0.65296941369E+02  0.71702356656E+02  0.16073704035E+03  0.12499956192E+03 0.  0.
          2    1    1    2  501    0 -0.37433634253E+02 -0.23344458394E+01 -0.81363382986E+03  0.81449784266E+03  0.00000000000E+00 0. -1.
          1    1    1    2  502    0  0.65834112379E+02 -0.62962495530E+02 -0.51561953573E+02  0.10467588668E+03  0.00000000000E+00 0. -1.
         22    1    3    3    0    0 -0.66724094802E+02  0.86294301034E+00  0.19980111943E+02  0.69656689349E+02  0.00000000000E+00 0. -1.
         22    1    3    3    0    0  0.38323616676E+02  0.64433998359E+02  0.51722244713E+02  0.91080350998E+02  0.00000000000E+00 0. -1.
</event>
<event>
 7    1  0.5736319E-006  0.1440412E+03  0.7818608E-02  0.1359217E+00
          2   -1    0    0  502    0  0.00000000000E+00  0.00000000000E+00  0.18020866795E+03  0.18020866795E+03  0.00000000000E+00 0. -1.
          1   -1    0    0  501    0 -0.00000000000E+00 -0.00000000000E+00 -0.12657443201E+04  0.12657443201E+04  0.00000000000E+00 0. -1.
         25    2    1    2    0    0  0.16177805952E+03 -0.51466264680E+02 -0.17783796576E+03  0.27581988842E+03  0.12501740615E+03 0.  0.
          2    1    1    2  501    0 -0.33860170140E+02 -0.52804055952E+01 -0.10012282408E+04  0.10018145457E+04  0.00000000000E+00 0. -1.
          1    1    1    2  502    0 -0.12791788938E+03  0.56746670275E+02  0.93530554357E+02  0.16831855397E+03  0.00000000000E+00 0. -1.
         22    1    3    3    0    0  0.17530625065E+03 -0.24546337880E+02 -0.13136275849E+03  0.22043361481E+03  0.00000000000E+00 0.  1.
         22    1    3    3    0    0 -0.13528191126E+02 -0.26919926799E+02 -0.46475207270E+02  0.55386273614E+02  0.00000000000E+00 0.  1.
</event>
<event>
 7    1  0.5736319E-006  0.9218943E+02  0.7818608E-02  0.1374503E+00
          2   -1    0    0  502    0  0.00000000000E+00  0.00000000000E+00  0.17055910547E+04  0.17055910547E+04  0.00000000000E+00 0. -1.
          1   -1    0    0  501    0 -0.00000000000E+00 -0.00000000000E+00 -0.24534232717E+03  0.24534232717E+03  0.00000000000E+00 0. -1.
         25    2    1    2    0    0 -0.79279754516E+02  0.91715923112E+02  0.13246401001E+04  0.13360365025E+04  0.12500020526E+03 0.  0.
          2    1    1    2  501    0  0.32459699375E+02 -0.86131207422E+02 -0.22923231552E+03  0.24702160119E+03  0.00000000000E+00 0. -1.
          1    1    1    2  502    0  0.46820055141E+02 -0.55847156904E+01  0.36484094302E+03  0.36787527821E+03  0.00000000000E+00 0. -1.
         22    1    3    3    0    0  0.72449144625E+01  0.65686635914E+02  0.28886670112E+03  0.29632953605E+03  0.00000000000E+00 0.  1.
         22    1    3    3    0    0 -0.86524668979E+02  0.26029287198E+02  0.10357733989E+04  0.10397069665E+04  0.00000000000E+00 0.  1.
</event>
<event>
 7    1  0.5736319E-006  0.3572238E+02  0.7818608E-02  0.1551058E+00
          2   -1    0    0  502    0  0.00000000000E+00  0.00000000000E+00  0.37962359018E+03  0.37962359018E+03  0.00000000000E+00 0. -1.
          1   -1    0    0  501    0 -0.00000000000E+00 -0.00000000000E+00 -0.52463372774E+03  0.52463372774E+03  0.00000000000E+00 0. -1.
         25    2    1    2    0    0  0.18878077350E+02  0.16200562525E+02  0.29411273265E+03  0.32053691418E+03  0.12499109492E+03 0.  0.
          2    1    1    2  501    0  0.25751171851E+02 -0.21823950086E+02 -0.50380514888E+03  0.50493468458E+03  0.00000000000E+00 0. -1.
          1    1    1    2  502    0 -0.44629249202E+02  0.56233875608E+01  0.64682278670E+02  0.78785719175E+02  0.00000000000E+00 0. -1.
         22    1    3    3    0    0  0.15563334501E+02  0.49874423406E+02  0.27834649328E+03  0.28320742542E+03  0.00000000000E+00 0.  1.
         22    1    3    3    0    0  0.33147428494E+01 -0.33673860881E+02  0.15766239371E+02  0.37329488755E+02  0.00000000000E+00 0.  1.
</event>
<event>
 7    1  0.5736319E-006  0.1446087E+03  0.7818608E-02  0.1390125E+00
          2   -1    0    0  502    0  0.00000000000E+00  0.00000000000E+00  0.17677445077E+04  0.17677445077E+04  0.00000000000E+00 0. -1.
          1   -1    0    0  501    0 -0.00000000000E+00 -0.00000000000E+00 -0.22805408082E+03  0.22805408082E+03  0.00000000000E+00 0. -1.
         25    2    1    2    0    0  0.70792149402E+02  0.13356645404E+03  0.33436114463E+02  0.19898267128E+03  0.12499841463E+03 0.  0.
          2    1    1    2  501    0 -0.87650511298E+02 -0.11315214100E+03 -0.10989359870E+03  0.18045116286E+03  0.00000000000E+00 0. -1.
          1    1    1    2  502    0  0.16858361896E+02 -0.20414313037E+02  0.16161479112E+04  0.16163647544E+04  0.00000000000E+00 0. -1.
         22    1    3    3    0    0  0.86955441354E+02  0.14635219651E+03  0.14259660439E+02  0.17083194116E+03  0.00000000000E+00 0. -1.
         22    1    3    3    0    0 -0.16163291953E+02 -0.12785742478E+02  0.19176454024E+02  0.28150730122E+02  0.00000000000E+00 0. -1.
</event>
<event>
 7    1  0.5736319E-006  0.7215354E+02  0.7818608E-02  0.1403371E+00
          2   -1    0    0  502    0  0.00000000000E+00  0.00000000000E+00  0.16302877935E+04  0.16302877935E+04  0.00000000000E+00 0. -1.
          1   -1    0    0  501    0 -0.00000000000E+00 -0.00000000000E+00 -0.20976772780E+02  0.20976772780E+02  0.00000000000E+00 0. -1.
         25    2    1    2    0    0 -0.28078399149E+02 -0.46708674670E+02  0.96650851917E+03  0.97608106237E+03  0.12500170359E+03 0.  0.
          2    1    1    2  501    0 -0.47562322443E+02  0.42810712896E+01  0.30266335225E+02  0.56538068021E+02  0.00000000000E+00 0. -1.
          1    1    1    2  502    0  0.75640721593E+02  0.42427603380E+02  0.61253616636E+03  0.61864543592E+03  0.00000000000E+00 0. -1.
         22    1    3    3    0    0  0.20522410469E+02 -0.41119258360E+02  0.82640873672E+03  0.82768554588E+03  0.00000000000E+00 0.  1.
         22    1    3    3    0    0 -0.48600809618E+02 -0.55894163091E+01  0.14009978245E+03  0.14839551648E+03  0.00000000000E+00 0.  1.
</event>
<event>
 7    1  0.5736319E-006  0.8785696E+02  0.7818608E-02  0.1454410E+00
          2   -1    0    0  502    0  0.00000000000E+00  0.00000000000E+00  0.35143628837E+04  0.35143628837E+04  0.00000000000E+00 0. -1.
          1   -1    0    0  501    0 -0.00000000000E+00 -0.00000000000E+00 -0.50515906218E+03  0.50515906218E+03  0.00000000000E+00 0. -1.
         25    2    1    2    0    0  0.64859731996E+02 -0.90302408197E+02  0.22184761051E+04  0.22247721305E+04  0.12495396805E+03 0.  0.
          2    1    1    2  501    0 -0.41619148395E+02  0.77329730002E+02 -0.49803201757E+03  0.50571526691E+03  0.00000000000E+00 0. -1.
          1    1    1    2  502    0 -0.23240583601E+02  0.12972678195E+02  0.12887597340E+04  0.12890345485E+04  0.00000000000E+00 0. -1.
         22    1    3    3    0    0  0.28890850351E+02 -0.33803961988E+02  0.18317112632E+04  0.18322509492E+04  0.00000000000E+00 0.  1.
         22    1    3    3    0    0  0.35968881645E+02 -0.56498446208E+02  0.38676484191E+03  0.39252118135E+03  0.00000000000E+00 0.  1.
</event>
<event>
 7    1  0.5736319E-006  0.1020861E+03  0.7818608E-02  0.1451870E+00
          2   -1    0    0  502    0  0.00000000000E+00  0.00000000000E+00  0.76413265103E+03  0.76413265103E+03  0.00000000000E+00 0. -1.
          1   -1    0    0  501    0 -0.00000000000E+00 -0.00000000000E+00 -0.25330716273E+03  0.25330716273E+03  0.00000000000E+00 0. -1.
         25    2    1    2    0    0  0.70587681743E+02 -0.75535092384E+02  0.36639841120E+02  0.16630017346E+03  0.12500039496E+03 0.  0.
          2    1    1    2  501    0 -0.84830072650E+02  0.57048087093E+02 -0.17438974767E+03  0.20214452641E+03  0.00000000000E+00 0. -1.
          1    1    1    2  502    0  0.14242390907E+02  0.18487005290E+02  0.64857539485E+03  0.64899511390E+03  0.00000000000E+00 0. -1.
         22    1    3    3    0    0  0.82083515542E+02 -0.11541936179E+02  0.54094483728E+02  0.98980467691E+02  0.00000000000E+00 0. -1.
         22    1    3    3    0    0 -0.11495833799E+02 -0.63993156205E+02 -0.17454642608E+02  0.67319705766E+02  0.00000000000E+00 0. -1.
</event>
<event>
 7    1  0.5736319E-006  0.8310763E+02  0.7818608E-02  0.1332912E+00
          2   -1    0    0  502    0  0.00000000000E+00  0.00000000000E+00  0.15775631798E+04  0.15775631798E+04  0.00000000000E+00 0. -1.
          1   -1    0    0  501    0 -0.00000000000E+00 -0.00000000000E+00 -0.49568502356E+03  0.49568502356E+03  0.00000000000E+00 0. -1.
         25    2    1    2    0    0  0.71833644318E+02 -0.93585097117E+02  0.23420369682E+02  0.17346914423E+03  0.12499914970E+03 0.  0.
          2    1    1    2  501    0 -0.80322169294E+02  0.19629508179E+02 -0.41564910593E+03  0.42379375613E+03  0.00000000000E+00 0. -1.
          1    1    1    2  502    0  0.84885249758E+01  0.73955588939E+02  0.14741068925E+04  0.14759853030E+04  0.00000000000E+00 0. -1.
         22    1    3    3    0    0 -0.32036771620E+02 -0.21594930368E+02 -0.14898730376E+02  0.41408548878E+02  0.00000000000E+00 0.  1.
         22    1    3    3    0    0  0.10387041594E+03 -0.71990166750E+02  0.38319100058E+02  0.13206059535E+03  0.00000000000E+00 0.  1.
</event>
<event>
 7    1  0.5736319E-006  0.1028485E+03  0.7818608E-02  0.1392694E+00
          2   -1    0    0  502    0  0.00000000000E+00  0.00000000000E+00  0.13464647749E+04  0.13464647749E+04  0.00000000000E+00 0. -1.
          1   -1    0    0  501    0 -0.00000000000E+00 -0.00000000000E+00 -0.93531522315E+02  0.93531522315E+02  0.00000000000E+00 0. -1.
         25    2    1    2    0    0  0.13290478011E+03 -0.33370325418E+01  0.31393825564E+03  0.36312073989E+03  0.12499850806E+03 0.  0.
          2    1    1    2  501    0 -0.99175257243E+02 -0.10524257784E+02 -0.32349007949E+02  0.10484726971E+03  0.00000000000E+00 0. -1.
          1    1    1    2  502    0 -0.33729522871E+02  0.13861290326E+02  0.97134400485E+03  0.97202828757E+03  0.00000000000E+00 0. -1.
         22    1    3    3    0    0 -0.20455933369E+02 -0.10589047099E+02  0.80404687836E+02  0.83639027699E+02  0.00000000000E+00 0. -1.
         22    1    3    3    0    0  0.15336071348E+03  0.72520145571E+01  0.23353356781E+03  0.27948171219E+03  0.00000000000E+00 0. -1.
</event>
<event>
 7    1  0.5736319E-006  0.1131098E+03  0.7818608E-02  0.1274426E+00
          2   -1    0    0  502    0  0.00000000000E+00  0.00000000000E+00  0.31101794769E+04  0.31101794769E+04  0.00000000000E+00 0. -1.
          1   -1    0    0  501    0 -0.00000000000E+00 -0.00000000000E+00 -0.22756329482E+04  0.22756329482E+04  0.00000000000E+00 0. -1.
         25    2    1    2    0    0  0.19231225543E+03 -0.44842099191E+02 -0.62671943468E+03  0.66887833548E+03  0.12500464161E+03 0.  0.
          2    1    1    2  501    0 -0.10592009443E+03  0.90554727878E+01 -0.16253896381E+04  0.16288623465E+04  0.00000000000E+00 0. -1.
          1    1    1    2  502    0 -0.86392160999E+02  0.35786626403E+02  0.30866556016E+04  0.30880717432E+04  0.00000000000E+00 0. -1.
         22    1    3    3    0    0  0.88854140996E+02  0.24746728845E+02 -0.39624960416E+03  0.40684297678E+03  0.00000000000E+00 0. -1.
         22    1    3    3    0    0  0.10345811443E+03 -0.69588828036E+02 -0.23046983053E+03  0.26203535870E+03  0.00000000000E+00 0. -1.
</event>
<event>
 7    1  0.5736319E-006  0.7480413E+02  0.7818608E-02  0.1430867E+00
          2   -1    0    0  502    0  0.00000000000E+00  0.00000000000E+00  0.53452760098E+03  0.53452760098E+03  0.00000000000E+00 0. -1.
          1   -1    0    0  501    0 -0.00000000000E+00 -0.00000000000E+00 -0.29132184197E+03  0.29132184197E+03  0.00000000000E+00 0. -1.
         25    2    1    2    0    0  0.65493407469E+02  0.59843279825E+02  0.14094460401E+02  0.15391912357E+03  0.12498735226E+03 0.  0.
          2    1    1    2  501    0 -0.36221330795E+02  0.86909796823E+01 -0.21672784383E+03  0.21990560753E+03  0.00000000000E+00 0. -1.
          1    1    1    2  502    0 -0.29272076675E+02 -0.68534259507E+02  0.44583914244E+03  0.45202471186E+03  0.00000000000E+00 0. -1.
         22    1    3    3    0    0  0.46295425840E+02 -0.29765225709E+02 -0.16244517584E+02  0.57385707862E+02  0.00000000000E+00 0.  1.
         22    1    3    3    0    0  0.19197981629E+02  0.89608505535E+02  0.30338977984E+02  0.96533415706E+02  0.00000000000E+00 0.  1.
</event>
<event>
 7    1  0.5736319E-006  0.5613669E+02  0.7818608E-02  0.1547117E+00
          2   -1    0    0  502    0  0.00000000000E+00  0.00000000000E+00  0.15385374240E+03  0.15385374240E+03  0.00000000000E+00 0. -1.
          1   -1    0    0  501    0 -0.00000000000E+00 -0.00000000000E+00 -0.71476924429E+03  0.71476924429E+03  0.00000000000E+00 0. -1.
         25    2    1    2    0    0 -0.10909581846E+02 -0.37129779630E+02 -0.79621448500E+02  0.15317056210E+03  0.12499602602E+03 0.  0.
          2    1    1    2  501    0  0.10224322260E+01  0.56817839524E+02 -0.59597313593E+03  0.59867628232E+03  0.00000000000E+00 0. -1.
          1    1    1    2  502    0  0.98871496200E+01 -0.19688059894E+02  0.11467908255E+03  0.11677614227E+03  0.00000000000E+00 0. -1.
         22    1    3    3    0    0 -0.56122860945E+02  0.58201662210E+01 -0.70258060919E+02  0.90110182442E+02  0.00000000000E+00 0. -1.
         22    1    3    3    0    0  0.45213279099E+02 -0.42949945851E+02 -0.93633875811E+01  0.63060379658E+02  0.00000000000E+00 0. -1.
</event>
<event>
 7    1  0.5736319E-006  0.1509388E+03  0.7818608E-02  0.1201258E+00
          2   -1    0    0  502    0  0.00000000000E+00  0.00000000000E+00  0.36967135286E+04  0.36967135286E+04  0.00000000000E+00 0. -1.
          1   -1    0    0  501    0 -0.00000000000E+00 -0.00000000000E+00 -0.74822296110E+03  0.74822296110E+03  0.00000000000E+00 0. -1.
         25    2    1    2    0    0  0.99735133323E+02  0.16054405998E+03  0.76396862191E+03  0.79686501023E+03  0.12499718898E+03 0.  0.
          2    1    1    2  501    0 -0.14969977250E+03 -0.21441168726E+02 -0.72206375422E+03  0.73773017477E+03  0.00000000000E+00 0. -1.
          1    1    1    2  502    0  0.49964639176E+02 -0.13910289126E+03  0.29065856998E+04  0.29103413047E+04  0.00000000000E+00 0. -1.
         22    1    3    3    0    0 -0.19435395255E+02  0.29916408145E+02  0.26709625145E+03  0.26946824229E+03  0.00000000000E+00 0.  1.
         22    1    3    3    0    0  0.11917052858E+03  0.13062765184E+03  0.49687237047E+03  0.52739676794E+03  0.00000000000E+00 0.  1.
</event>
<event>
 7    1  0.5736319E-006  0.9207878E+02  0.7818608E-02  0.1441767E+00
          2   -1    0    0  502    0  0.00000000000E+00  0.00000000000E+00  0.13089096441E+03  0.13089096441E+03  0.00000000000E+00 0. -1.
          1   -1    0    0  501    0 -0.00000000000E+00 -0.00000000000E+00 -0.55234563751E+03  0.55234563751E+03  0.00000000000E+00 0. -1.
         25    2    1    2    0    0  0.66736048436E+02 -0.96395489848E+02 -0.16559987070E+03  0.23831688663E+03  0.12500332258E+03 0.  0.
          2    1    1    2  501    0 -0.17243215026E+02  0.21910661692E+02 -0.32851353222E+03  0.32969462599E+03  0.00000000000E+00 0. -1.
          1    1    1    2  502    0 -0.49492833411E+02  0.74484828156E+02  0.72658729810E+02  0.11522508929E+03  0.00000000000E+00 0. -1.
         22    1    3    3    0    0  0.40574072573E+02 -0.56022561378E+02 -0.17599291375E+03  0.18909862094E+03  0.00000000000E+00 0.  1.
         22    1    3    3    0    0  0.26161975863E+02 -0.40372928471E+02  0.10393043056E+02  0.49218265698E+02  0.00000000000E+00 0.  1.
</event>
<event>
 7    1  0.5736319E-006  0.9724708E+02  0.7818608E-02  0.1329420E+00
          2   -1    0    0  502    0  0.00000000000E+00  0.00000000000E+00  0.10965320672E+04  0.10965320672E+04  0.00000000000E+00 0. -1.
          1   -1    0    0  501    0 -0.00000000000E+00 -0.00000000000E+00 -0.39628621361E+03  0.39628621361E+03  0.00000000000E+00 0. -1.
         25    2    1    2    0    0 -0.26437391753E+01  0.34663890480E+02  0.10811525049E+03  0.16888704557E+03  0.12500140844E+03 0.  0.
          2    1    1    2  501    0  0.68721667677E+01 -0.10012587027E+03 -0.35786597099E+03  0.37167253028E+03  0.00000000000E+00 0. -1.
          1    1    1    2  502    0 -0.42284275923E+01  0.65461979793E+02  0.94999657414E+03  0.95225870501E+03  0.00000000000E+00 0. -1.
         22    1    3    3    0    0  0.43933754731E+01  0.81595448323E+02  0.60602876459E+02  0.10173410230E+03  0.00000000000E+00 0.  1.
         22    1    3    3    0    0 -0.70371146484E+01 -0.46931557843E+02  0.47512374030E+02  0.67152943272E+02  0.00000000000E+00 0.  1.
</event>
<event>
 7    1  0.5736319E-006  0.5503955E+02  0.7818608E-02  0.1511825E+00
          2   -1    0    0  502    0  0.00000000000E+00  0.00000000000E+00  0.53155365234E+03  0.53155365234E+03  0.00000000000E+00 0. -1.
          1   -1    0    0  501    0 -0.00000000000E+00 -0.00000000000E+00 -0.36901146195E+03  0.36901146195E+03  0.00000000000E+00 0. -1.
         25    2    1    2    0    0 -0.24229219047E+02  0.17159330105E+02  0.13090335141E+03  0.18341486421E+03  0.12499530927E+03 0.  0.
          2    1    1    2  501    0  0.33937908338E+02 -0.43812796064E+02 -0.33997143259E+03  0.34445887665E+03  0.00000000000E+00 0. -1.
          1    1    1    2  502    0 -0.97086892904E+01  0.26653465959E+02  0.37161027158E+03  0.37269137344E+03  0.00000000000E+00 0. -1.
         22    1    3    3    0    0 -0.29286119823E+01  0.70569852124E+02  0.78766619613E+02  0.10579631923E+03  0.00000000000E+00 0.  1.
         22    1    3    3    0    0 -0.21300607065E+02 -0.53410522019E+02  0.52136731793E+02  0.77618544986E+02  0.00000000000E+00 0.  1.
</event>
<event>
 7    1  0.5736319E-006  0.3903197E+02  0.7818608E-02  0.1602907E+00
          2   -1    0    0  502    0  0.00000000000E+00  0.00000000000E+00  0.92101685313E+03  0.92101685313E+03  0.00000000000E+00 0. -1.
          1   -1    0    0  501    0 -0.00000000000E+00 -0.00000000000E+00 -0.46418525065E+03  0.46418525065E+03  0.00000000000E+00 0. -1.
         25    2    1    2    0    0  0.18199640064E+02  0.43932287643E+02 -0.45734139618E+02  0.14134007686E+03  0.12499653196E+03 0.  0.
          2    1    1    2  501    0  0.36033753473E+01 -0.38797251526E+02 -0.36947990422E+03  0.37152874810E+03  0.00000000000E+00 0. -1.
          1    1    1    2  502    0 -0.21803015411E+02 -0.51350361173E+01  0.87204564632E+03  0.87233327882E+03  0.00000000000E+00 0. -1.
         22    1    3    3    0    0  0.49189465228E+01 -0.43970137588E+02 -0.90050832300E+01  0.45151528860E+02  0.00000000000E+00 0.  1.
         22    1    3    3    0    0  0.13280693541E+02  0.87902425231E+02 -0.36729056388E+02  0.96188547996E+02  0.00000000000E+00 0.  1.
</event>
<event>
 7    1  0.5736319E-006  0.5446892E+02  0.7818608E-02  0.1494950E+00
          2   -1    0    0  502    0  0.00000000000E+00  0.00000000000E+00  0.13915589695E+04  0.13915589695E+04  0.00000000000E+00 0. -1.
          1   -1    0    0  501    0 -0.00000000000E+00 -0.00000000000E+00 -0.89948690536E+03  0.89948690536E+03  0.00000000000E+00 0. -1.
         25    2    1    2    0    0 -0.79432565911E+02  0.29328318312E+02  0.13243792300E+03  0.20083655412E+03  0.12500334092E+03 0.  0.
          2    1    1    2  501    0  0.26682901995E+02 -0.17971692478E+02 -0.86439399574E+03  0.86499245018E+03  0.00000000000E+00 0. -1.
          1    1    1    2  502    0  0.52749663915E+02 -0.11356625834E+02  0.12240281369E+04  0.12252168706E+04  0.00000000000E+00 0. -1.
         22    1    3    3    0    0  0.31370661878E+02  0.24149688419E+02  0.28064855980E+02  0.48527950900E+02  0.00000000000E+00 0.  1.
         22    1    3    3    0    0 -0.11080322779E+03  0.51786298929E+01  0.10437306702E+03  0.15230860322E+03  0.00000000000E+00 0.  1.
</event>
<event>
 7    1  0.5736319E-006  0.5017950E+02  0.7818608E-02  0.1478389E+00
          2   -1    0    0  502    0  0.00000000000E+00  0.00000000000E+00  0.38919848149E+02  0.38919848149E+02  0.00000000000E+00 0. -1.
          1   -1    0    0  501    0 -0.00000000000E+00 -0.00000000000E+00 -0.21700962897E+04  0.21700962897E+04  0.00000000000E+00 0. -1.
         25    2    1    2    0    0 -0.50185256647E+01  0.76297754208E+02 -0.22833606482E+03  0.27130907657E+03  0.12499889454E+03 0.  0.
          2    1    1    2  501    0  0.22518310422E+02 -0.32101671553E+02 -0.18872845539E+04  0.18876918654E+04  0.00000000000E+00 0. -1.
          1    1    1    2  502    0 -0.17499784757E+02 -0.44196082655E+02 -0.15555822862E+02  0.50015195826E+02  0.00000000000E+00 0. -1.
         22    1    3    3    0    0 -0.36436347124E+02  0.19248854982E+02 -0.85625160802E+01  0.42088507831E+02  0.00000000000E+00 0.  1.
         22    1    3    3    0    0  0.31417821459E+02  0.57048899226E+02 -0.21977354874E+03  0.22922056874E+03  0.00000000000E+00 0.  1.
</event>
<event>
 7    1  0.5736319E-006  0.7945304E+02  0.7818608E-02  0.1407811E+00
          2   -1    0    0  502    0  0.00000000000E+00  0.00000000000E+00  0.10107056143E+04  0.10107056143E+04  0.00000000000E+00 0. -1.
          1   -1    0    0  501    0 -0.00000000000E+00 -0.00000000000E+00 -0.73522530871E+03  0.73522530871E+03  0.00000000000E+00 0. -1.
         25    2    1    2    0    0  0.41585243889E+02 -0.11373649563E+03  0.37271024286E+03  0.41134256901E+03  0.12499784399E+03 0.  0.
          2    1    1    2  501    0 -0.27394434642E+02  0.74332713019E+02 -0.71300410929E+03  0.71739157170E+03  0.00000000000E+00 0. -1.
          1    1    1    2  502    0 -0.14190809247E+02  0.39403782616E+02  0.61577417203E+03  0.61719678231E+03  0.00000000000E+00 0. -1.
         22    1    3    3    0    0  0.27820254809E+02 -0.11140092905E+03  0.15352690094E+03  0.19171500433E+03  0.00000000000E+00 0.  1.
         22    1    3    3    0    0  0.13764989080E+02 -0.23355665811E+01  0.21918334192E+03  0.21962756469E+03  0.00000000000E+00 0.  1.
</event>
<event>
 7    1  0.5736319E-006  0.1035799E+03  0.7818608E-02  0.1393885E+00
          2   -1    0    0  502    0  0.00000000000E+00  0.00000000000E+00  0.80783370271E+03  0.80783370271E+03  0.00000000000E+00 0. -1.
          1   -1    0    0  501    0 -0.00000000000E+00 -0.00000000000E+00 -0.70620859984E+03  0.70620859984E+03  0.00000000000E+00 0. -1.
         25    2    1    2    0    0 -0.75940077058E+02  0.76791831935E+02 -0.14246781162E+03  0.21814227772E+03  0.12500038090E+03 0.  0.
          2    1    1    2  501    0  0.31648443370E+02  0.16874439039E+02 -0.52179973405E+03  0.52303091028E+03  0.00000000000E+00 0. -1.
          1    1    1    2  502    0  0.44291633688E+02 -0.93666270973E+02  0.76589264854E+03  0.77286911454E+03  0.00000000000E+00 0. -1.
         22    1    3    3    0    0 -0.46757762606E+01  0.83774145820E+02 -0.39533656618E+02  0.92751713715E+02  0.00000000000E+00 0. -1.
         22    1    3    3    0    0 -0.71264300797E+02 -0.69823138851E+01 -0.10293415501E+03  0.12539056401E+03  0.00000000000E+00 0. -1.
</event>
<event>
 7    1  0.5736319E-006  0.1344438E+03  0.7818608E-02  0.1286710E+00
          2   -1    0    0  502    0  0.00000000000E+00  0.00000000000E+00  0.23025987340E+04  0.23025987340E+04  0.00000000000E+00 0. -1.
          1   -1    0    0  501    0 -0.00000000000E+00 -0.00000000000E+00 -0.10075552511E+04  0.10075552511E+04  0.00000000000E+00 0. -1.
         25    2    1    2    0    0 -0.15378924659E+03 -0.12860863547E+03  0.51114824955E+02  0.24173159218E+03  0.12502049369E+03 0.  0.
          2    1    1    2  501    0  0.62210053625E+02  0.32093395825E+02 -0.90884722646E+03  0.91153900513E+03  0.00000000000E+00 0. -1.
          1    1    1    2  502    0  0.91579192964E+02  0.96515239649E+02  0.21527758844E+04  0.21568833878E+04  0.00000000000E+00 0. -1.
         22    1    3    3    0    0 -0.67957417446E+02 -0.13380246805E+03  0.37337407052E+02  0.15464602487E+03  0.00000000000E+00 0. -1.
         22    1    3    3    0    0 -0.85831829142E+02  0.51938325712E+01  0.13777417903E+02  0.87085567316E+02  0.00000000000E+00 0. -1.
</event>
<event>
 7    1  0.5736319E-006  0.4858512E+02  0.7818608E-02  0.1481010E+00
          2   -1    0    0  502    0  0.00000000000E+00  0.00000000000E+00  0.74613750142E+03  0.74613750142E+03  0.00000000000E+00 0. -1.
          1   -1    0    0  501    0 -0.00000000000E+00 -0.00000000000E+00 -0.15961960988E+04  0.15961960988E+04  0.00000000000E+00 0. -1.
         25    2    1    2    0    0  0.46252244883E+02  0.31120007386E+02  0.79239022070E+02  0.15815147753E+03  0.12500136884E+03 0.  0.
          2    1    1    2  501    0 -0.36124715825E+02  0.16598838146E+02 -0.15555373570E+04  0.15560453032E+04  0.00000000000E+00 0. -1.
          1    1    1    2  502    0 -0.10127529058E+02 -0.47718845532E+02  0.62623973758E+03  0.62813681948E+03  0.00000000000E+00 0. -1.
         22    1    3    3    0    0 -0.39986294926E+02  0.11669038542E+02  0.36093027680E+01  0.41810253633E+02  0.00000000000E+00 0. -1.
         22    1    3    3    0    0  0.86238539809E+02  0.19450968844E+02  0.75629719302E+02  0.11634122390E+03  0.00000000000E+00 0. -1.
</event>
<event>
 7    1  0.5736319E-006  0.6122672E+02  0.7818608E-02  0.1433781E+00
          2   -1    0    0  502    0  0.00000000000E+00  0.00000000000E+00  0.19656811050E+03  0.19656811050E+03  0.00000000000E+00 0. -1.
          1   -1    0    0  501    0 -0.00000000000E+00 -0.00000000000E+00 -0.87965900145E+03  0.87965900145E+03  0.00000000000E+00 0. -1.
         25    2    1    2    0    0  0.74567429870E+02 -0.72700951650E+02 -0.69729972238E+03  0.71602866175E+03  0.12499764654E+03 0.  0.
          2    1    1    2  501    0 -0.25639396667E+02  0.36393909412E+02 -0.16500808038E+03  0.17090805100E+03  0.00000000000E+00 0. -1.
          1    1    1    2  502    0 -0.48928033203E+02  0.36307042239E+02  0.17921691182E+03  0.18929039920E+03  0.00000000000E+00 0. -1.
         22    1    3    3    0    0  0.31438886347E+02 -0.44606291579E+02 -0.81512060232E+02  0.98093530808E+02  0.00000000000E+00 0. -1.
         22    1    3    3    0    0  0.43128543523E+02 -0.28094660071E+02 -0.61578766215E+03  0.61793513094E+03  0.00000000000E+00 0. -1.
</event>
<event>
 7    1  0.5736319E-006  0.1459798E+03  0.7818608E-02  0.1382627E+00
          2   -1    0    0  502    0  0.00000000000E+00  0.00000000000E+00  0.11534232277E+04  0.11534232277E+04  0.00000000000E+00 0. -1.
          1   -1    0    0  501    0 -0.00000000000E+00 -0.00000000000E+00 -0.12717287317E+03  0.12717287317E+03  0.00000000000E+00 0. -1.
         25    2    1    2    0    0  0.34967225167E+02  0.14719597165E+03  0.17129645226E+03  0.26048058758E+03  0.12497320130E+03 0.  0.
          2    1    1    2  501    0 -0.27807712858E+02 -0.17804321123E+01 -0.74389492632E+02  0.79436990420E+02  0.00000000000E+00 0. -1.
          1    1    1    2  502    0 -0.71595123085E+01 -0.14541553954E+03  0.92934339494E+03  0.94067852292E+03  0.00000000000E+00 0. -1.
         22    1    3    3    0    0 -0.27192608500E+02 -0.71120758958E+01  0.13468844460E+02  0.31167761416E+02  0.00000000000E+00 0.  1.
         22    1    3    3    0    0  0.62159833667E+02  0.15430804755E+03  0.15782760780E+03  0.22931282617E+03  0.00000000000E+00 0.  1.
</event>
<event>
 7    1  0.5736319E-006  0.1249112E+03  0.7818608E-02  0.1312108E+00
          2   -1    0    0  502    0  0.00000000000E+00  0.00000000000E+00  0.88226998579E+02  0.88226998579E+02  0.00000000000E+00 0. -1.
          1   -1    0    0  501    0 -0.00000000000E+00 -0.00000000000E+00 -0.72007170945E+03  0.72007170945E+03  0.00000000000E+00 0. -1.
         25    2    1    2    0    0 -0.44933620161E+02  0.81641175849E+02 -0.30255333260E+03  0.34036503930E+03  0.12500211635E+03 0.  0.
          2    1    1    2  501    0  0.52315799213E+02 -0.14078424854E+03 -0.36758905738E+03  0.39708797840E+03  0.00000000000E+00 0. -1.
          1    1    1    2  502    0 -0.73821790525E+01  0.59143072689E+02  0.38297679105E+02  0.70845690338E+02  0.00000000000E+00 0. -1.
         22    1    3    3    0    0 -0.57689532083E+02  0.35023342080E+02 -0.52014464509E+02  0.85206931177E+02  0.00000000000E+00 0. -1.
         22    1    3    3    0    0  0.12755911922E+02  0.46617833769E+02 -0.25053886809E+03  0.25515810812E+03  0.00000000000E+00 0. -1.
</event>
<event>
 7    1  0.5736319E-006  0.5066222E+02  0.7818608E-02  0.1475011E+00
          2   -1    0    0  502    0  0.00000000000E+00  0.00000000000E+00  0.11687126325E+04  0.11687126325E+04  0.00000000000E+00 0. -1.
          1   -1    0    0  501    0 -0.00000000000E+00 -0.00000000000E+00 -0.53639231525E+03  0.53639231525E+03  0.00000000000E+00 0. -1.
         25    2    1    2    0    0  0.14878309296E+02  0.65145926550E+02  0.53453912654E+03  0.55301268013E+03  0.12500236298E+03 0.  0.
          2    1    1    2  501    0 -0.38385060944E+02 -0.33053465472E+02 -0.52530289236E+03  0.52773958844E+03  0.00000000000E+00 0. -1.
          1    1    1    2  502    0  0.23506751648E+02 -0.32092461078E+02  0.62308408309E+03  0.62435267920E+03  0.00000000000E+00 0. -1.
         22    1    3    3    0    0  0.50034320659E+02  0.16326355327E+02  0.88747363938E+02  0.10317983198E+03  0.00000000000E+00 0.  1.
         22    1    3    3    0    0 -0.35156011363E+02  0.48819571223E+02  0.44579176260E+03  0.44983284815E+03  0.00000000000E+00 0.  1.
</event>
<event>
 7    1  0.5736319E-006  0.5977111E+02  0.7818608E-02  0.1499659E+00
          2   -1    0    0  502    0  0.00000000000E+00  0.00000000000E+00  0.71880577796E+02  0.71880577796E+02  0.00000000000E+00 0. -1.
          1   -1    0    0  501    0 -0.00000000000E+00 -0.00000000000E+00 -0.45455199995E+03  0.45455199995E+03  0.00000000000E+00 0. -1.
         25    2    1    2    0    0  0.66184195007E+02 -0.28529385134E+02 -0.12756406900E+03  0.19259027185E+03  0.12499659046E+03 0.  0.
          2    1    1    2  501    0 -0.59070230420E+02  0.10554627358E+01 -0.28591500107E+03  0.29195512320E+03  0.00000000000E+00 0. -1.
          1    1    1    2  502    0 -0.71139645866E+01  0.27473922399E+02  0.30807647919E+02  0.41887182698E+02  0.00000000000E+00 0. -1.
         22    1    3    3    0    0  0.62976956470E+02  0.40461013009E+02 -0.59480943992E+02  0.95609483411E+02  0.00000000000E+00 0.  1.
         22    1    3    3    0    0  0.32072385368E+01 -0.68990398144E+02 -0.68083125008E+02  0.96980788437E+02  0.00000000000E+00 0.  1.
</event>
<event>
 7    1  0.5736319E-006  0.5409050E+02  0.7818608E-02  0.1557610E+00
          2   -1    0    0  502    0  0.00000000000E+00  0.00000000000E+00  0.32265860083E+02  0.32265860083E+02  0.00000000000E+00 0. -1.
          1   -1    0    0  501    0 -0.00000000000E+00 -0.00000000000E+00 -0.79999721158E+03  0.79999721158E+03  0.00000000000E+00 0. -1.
         25    2    1    2    0    0 -0.10163499958E+02 -0.69505610370E+02 -0.35085266877E+03  0.37902143818E+03  0.12500131524E+03 0.  0.
          2    1    1    2  501    0  0.12878243561E+02  0.17064987692E+02 -0.39624659288E+03  0.39682291433E+03  0.00000000000E+00 0. -1.
          1    1    1    2  502    0 -0.27147436034E+01  0.52440622678E+02 -0.20632089836E+02  0.56418719151E+02  0.00000000000E+00 0. -1.
         22    1    3    3    0    0 -0.34272357842E+02 -0.87762833336E+02 -0.15914675706E+03  0.18494485586E+03  0.00000000000E+00 0. -1.
         22    1    3    3    0    0  0.24108857884E+02  0.18257222966E+02 -0.19170591172E+03  0.19407658232E+03  0.00000000000E+00 0. -1.
</event>
<event>
 7    1  0.5736319E-006  0.1086015E+03  0.7818608E-02  0.1345210E+00
          2   -1    0    0  502    0  0.00000000000E+00  0.00000000000E+00  0.19750458736E+04  0.19750458736E+04  0.00000000000E+00 0. -1.
          1   -1    0    0  501    0 -0.00000000000E+00 -0.00000000000E+00 -0.22797601153E+03  0.22797601153E+03  0.00000000000E+00 0. -1.
         25    2    1    2    0    0  0.47343057221E+02 -0.50004735753E+02  0.57212149720E+03  0.58965151924E+03  0.12499627164E+03 0.  0.
          2    1    1    2  501    0 -0.98510849145E+02  0.48138135807E+02 -0.20499629776E+03  0.23247612697E+03  0.00000000000E+00 0. -1.
          1    1    1    2  502    0  0.51167791924E+02  0.18665999460E+01  0.13799446627E+04  0.13808942389E+04  0.00000000000E+00 0. -1.
         22    1    3    3    0    0 -0.21034531105E+02 -0.18411748421E+02  0.40927518636E+03  0.41022874369E+03  0.00000000000E+00 0.  1.
         22    1    3    3    0    0  0.68377588326E+02 -0.31592987332E+02  0.16284631084E+03  0.17942277555E+03  0.00000000000E+00 0.  1.
</event>
<event>
 7    1  0.5736319E-006  0.4260789E+02  0.7818608E-02  0.1570250E+00
          2   -1    0    0  502    0  0.00000000000E+00  0.00000000000E+00  0.12546056999E+03  0.12546056999E+03  0.00000000000E+00 0. -1.
          1   -1    0    0  501    0 -0.00000000000E+00 -0.00000000000E+00 -0.36655306850E+03  0.36655306850E+03  0.00000000000E+00 0. -1.
         25    2    1    2    0    0  0.13222307216E+02 -0.55566739409E+02  0.31403422042E+01  0.13746829628E+03  0.12500071519E+03 0.  0.
          2    1    1    2  501    0 -0.20234446534E+02  0.14786385636E+02 -0.29101329611E+03  0.29209041158E+03  0.00000000000E+00 0. -1.
          1    1    1    2  502    0  0.70121393182E+01  0.40780353773E+02  0.46780455396E+02  0.62454930620E+02  0.00000000000E+00 0. -1.
         22    1    3    3    0    0  0.26602669737E+02  0.35275554914E+01  0.52734054899E+02  0.59169470430E+02  0.00000000000E+00 0.  1.
         22    1    3    3    0    0 -0.13380362521E+02 -0.59094294900E+02 -0.49593712695E+02  0.78298825852E+02  0.00000000000E+00 0.  1.
</event>
<event>
 7    1  0.5736319E-006  0.7424166E+02  0.7818608E-02  0.1419010E+00
          2   -1    0    0  502    0  0.00000000000E+00  0.00000000000E+00  0.10911726927E+03  0.10911726927E+03  0.00000000000E+00 0. -1.
          1   -1    0    0  501    0 -0.00000000000E+00 -0.00000000000E+00 -0.39563474564E+04  0.39563474564E+04  0.00000000000E+00 0. -1.
         25    2    1    2    0    0 -0.55707309915E+02 -0.18740640736E+02 -0.10708842703E+04  0.10797555965E+04  0.12499804747E+03 0.  0.
          2    1    1    2  501    0 -0.16399662577E+02  0.37673488134E+02 -0.28675883917E+04  0.28678827425E+04  0.00000000000E+00 0. -1.
          1    1    1    2  502    0  0.72106972493E+02 -0.18932847398E+02  0.91242474801E+02  0.11782638669E+03  0.00000000000E+00 0. -1.
         22    1    3    3    0    0 -0.61067302317E+02 -0.14598497442E+02 -0.21844912633E+03  0.22729353782E+03  0.00000000000E+00 0. -1.
         22    1    3    3    0    0  0.53599924016E+01 -0.41421432939E+01 -0.85243514397E+03  0.85246205871E+03  0.00000000000E+00 0. -1.
</event>
<event>
 7    1  0.5736319E-006  0.1037807E+03  0.7818608E-02  0.1333566E+00
          2   -1    0    0  502    0  0.00000000000E+00  0.00000000000E+00  0.11742318415E+04  0.11742318415E+04  0.00000000000E+00 0. -1.
          1   -1    0    0  501    0 -0.00000000000E+00 -0.00000000000E+00 -0.31199890342E+03  0.31199890342E+03  0.00000000000E+00 0. -1.
         25    2    1    2    0    0 -0.40153745036E+02 -0.30640108678E+02  0.13450337016E+03  0.19043909194E+03  0.12499900661E+03 0.  0.
          2    1    1    2  501    0  0.67648349135E+02  0.83149399770E+02 -0.27300940678E+03  0.29329892263E+03  0.00000000000E+00 0. -1.
          1    1    1    2  502    0 -0.27494604098E+02 -0.52509291092E+02  0.10007389747E+04  0.10024927303E+04  0.00000000000E+00 0. -1.
         22    1    3    3    0    0 -0.31824050440E+02  0.42439839752E+02  0.25289383547E+02  0.58766173134E+02  0.00000000000E+00 0. -1.
         22    1    3    3    0    0 -0.83296945963E+01 -0.73079948430E+02  0.10921398661E+03  0.13167291881E+03  0.00000000000E+00 0. -1.
</event>
<event>
 7    1  0.5736319E-006  0.4424203E+02  0.7818608E-02  0.1542942E+00
          2   -1    0    0  502    0  0.00000000000E+00  0.00000000000E+00  0.13774658879E+04  0.13774658879E+04  0.00000000000E+00 0. -1.
          1   -1    0    0  501    0 -0.00000000000E+00 -0.00000000000E+00 -0.44223811295E+03  0.44223811295E+03  0.00000000000E+00 0. -1.
         25    2    1    2    0    0  0.50180360290E+02 -0.45438894797E+02  0.19392183810E+03  0.24044238736E+03  0.12499640247E+03 0.  0.
          2    1    1    2  501    0 -0.40035093252E+02  0.18571107374E+02 -0.41763727981E+03  0.41996260811E+03  0.00000000000E+00 0. -1.
          1    1    1    2  502    0 -0.10145267038E+02  0.26867787423E+02  0.11589432167E+04  0.11592990054E+04  0.00000000000E+00 0. -1.
         22    1    3    3    0    0  0.11994594659E+02 -0.82343157685E+02  0.83339079944E+02  0.11776955534E+03  0.00000000000E+00 0.  1.
         22    1    3    3    0    0  0.38185765631E+02  0.36904262888E+02  0.11058275816E+03  0.12267283203E+03  0.00000000000E+00 0.  1.
</event>
<event>
 7    1  0.5736319E-006  0.1221054E+03  0.7818608E-02  0.1392386E+00
          2   -1    0    0  502    0  0.00000000000E+00  0.00000000000E+00  0.17880565452E+03  0.17880565452E+03  0.00000000000E+00 0. -1.
          1   -1    0    0  501    0 -0.00000000000E+00 -0.00000000000E+00 -0.26815557907E+03  0.26815557907E+03  0.00000000000E+00 0. -1.
         25    2    1    2    0    0  0.12455667859E+03  0.42416717964E+02 -0.11022239545E+02  0.18182532874E+03  0.12500166503E+03 0.  0.
          2    1    1    2  501    0 -0.23156408670E+02  0.20294896246E+02 -0.13116215350E+03  0.13472792059E+03  0.00000000000E+00 0. -1.
          1    1    1    2  502    0 -0.10140026992E+03 -0.62711614210E+02  0.52834468493E+02  0.13040798426E+03  0.00000000000E+00 0. -1.
         22    1    3    3    0    0  0.12291367321E+03  0.75333636651E+02 -0.24478457603E+02  0.14622627247E+03  0.00000000000E+00 0.  1.
         22    1    3    3    0    0  0.16430053779E+01 -0.32916918687E+02  0.13456218058E+02  0.35599056265E+02  0.00000000000E+00 0.  1.
</event>
<event>
 7    1  0.5736319E-006  0.1211641E+03  0.7818608E-02  0.1308373E+00
          2   -1    0    0  502    0  0.00000000000E+00  0.00000000000E+00  0.31890065866E+03  0.31890065866E+03  0.00000000000E+00 0. -1.
          1   -1    0    0  501    0 -0.00000000000E+00 -0.00000000000E+00 -0.90236985154E+03  0.90236985154E+03  0.00000000000E+00 0. -1.
         25    2    1    2    0    0  0.46487328352E+02 -0.81434876916E+02 -0.17244797339E+03  0.23271923981E+03  0.12500892039E+03 0.  0.
          2    1    1    2  501    0  0.60557314933E+02  0.19313872470E+02 -0.68498564567E+03  0.68792844747E+03  0.00000000000E+00 0. -1.
          1    1    1    2  502    0 -0.10704464328E+03  0.62121004446E+02  0.27396442618E+03  0.30062282292E+03  0.00000000000E+00 0. -1.
         22    1    3    3    0    0 -0.89451160744E+01  0.69500743109E+01 -0.11112739858E+03  0.11170325577E+03  0.00000000000E+00 0. -1.
         22    1    3    3    0    0  0.55432444426E+02 -0.88384951227E+02 -0.61320574807E+02  0.12101598404E+03  0.00000000000E+00 0. -1.
</event>
<event>
 7    1  0.5736319E-006  0.1003227E+03  0.7818608E-02  0.1343821E+00
          2   -1    0    0  502    0  0.00000000000E+00  0.00000000000E+00  0.93734197904E+03  0.93734197904E+03  0.00000000000E+00 0. -1.
          1   -1    0    0  501    0 -0.00000000000E+00 -0.00000000000E+00 -0.15807355321E+04  0.15807355321E+04  0.00000000000E+00 0. -1.
         25    2    1    2    0    0  0.80084569329E+02 -0.13407350349E+03  0.61014419911E+03  0.64209874453E+03  0.12500244573E+03 0.  0.
          2    1    1    2  501    0 -0.53682694019E+02  0.84581996500E+02 -0.15606115837E+04  0.15638236668E+04  0.00000000000E+00 0. -1.
          1    1    1    2  502    0 -0.26401875310E+02  0.49491506992E+02  0.30707383154E+03  0.31215509976E+03  0.00000000000E+00 0. -1.
         22    1    3    3    0    0  0.10403044922E+03 -0.58776226755E+02  0.32741383719E+03  0.34853522058E+03  0.00000000000E+00 0. -1.
         22    1    3    3    0    0 -0.23945879891E+02 -0.75297276737E+02  0.28273036192E+03  0.29356352396E+03  0.00000000000E+00 0. -1.
</event>
<event>
 7    1  0.5736319E-006  0.4119236E+03  0.7818608E-02  0.1067595E+00
          2   -1    0    0  502    0  0.00000000000E+00  0.00000000000E+00  0.95207824123E+03  0.95207824123E+03  0.00000000000E+00 0. -1.
          1   -1    0    0  501    0 -0.00000000000E+00 -0.00000000000E+00 -0.11941929263E+04  0.11941929263E+04  0.00000000000E+00 0. -1.
         25    2    1    2    0    0  0.27048599667E+03 -0.54094860939E+03  0.15180061656E+03  0.63596865241E+03  0.12499850908E+03 0.  0.
          2    1    1    2  501    0 -0.15340141242E+02  0.27713158063E+03 -0.86769037368E+03  0.91100154638E+03  0.00000000000E+00 0. -1.
          1    1    1    2  502    0 -0.25514585543E+03  0.26381702876E+03  0.47377507207E+03  0.59930096873E+03  0.00000000000E+00 0. -1.
         22    1    3    3    0    0  0.24958213024E+03 -0.40374791512E+03  0.86054234784E+02  0.48239916047E+03  0.00000000000E+00 0. -1.
         22    1    3    3    0    0  0.20903866434E+02 -0.13720069426E+03  0.65746381776E+02  0.15356949194E+03  0.00000000000E+00 0. -1.
</event>
<event>
 7    1  0.5736319E-006  0.9509987E+02  0.7818608E-02  0.1320819E+00
          2   -1    0    0  502    0  0.00000000000E+00  0.00000000000E+00  0.47592721464E+03  0.47592721464E+03  0.00000000000E+00 0. -1.
          1   -1    0    0  501    0 -0.00000000000E+00 -0.00000000000E+00 -0.19843777849E+03  0.19843777849E+03  0.00000000000E+00 0. -1.
         25    2    1    2    0    0 -0.47940137658E+01  0.14925609664E+03  0.22252361508E+03  0.29570585844E+03  0.12499932196E+03 0.  0.
          2    1    1    2  501    0  0.24628913089E+02 -0.68074771697E+02 -0.14492625910E+03  0.16200116814E+03  0.00000000000E+00 0. -1.
          1    1    1    2  502    0 -0.19834899323E+02 -0.81181324945E+02  0.19989208017E+03  0.21665796655E+03  0.00000000000E+00 0. -1.
         22    1    3    3    0    0  0.49955612162E+02  0.91238103935E+02  0.75830435372E+02  0.12872532666E+03  0.00000000000E+00 0. -1.
         22    1    3    3    0    0 -0.54749625927E+02  0.58017992707E+02  0.14669317971E+03  0.16698053177E+03  0.00000000000E+00 0. -1.
</event>
<event>
 7    1  0.5736319E-006  0.8606588E+02  0.7818608E-02  0.1332786E+00
          2   -1    0    0  502    0  0.00000000000E+00  0.00000000000E+00  0.63818086698E+03  0.63818086698E+03  0.00000000000E+00 0. -1.
          1   -1    0    0  501    0 -0.00000000000E+00 -0.00000000000E+00 -0.29295610481E+03  0.29295610481E+03  0.00000000000E+00 0. -1.
         25    2    1    2    0    0 -0.12943837957E+03  0.18313473828E+02  0.23583795030E+03  0.29721323236E+03  0.12500595688E+03 0.  0.
          2    1    1    2  501    0  0.78793408818E+02  0.32809455931E+02 -0.25167844318E+03  0.26575722085E+03  0.00000000000E+00 0. -1.
          1    1    1    2  502    0  0.50644970754E+02 -0.51122929759E+02  0.36106525504E+03  0.36816651859E+03  0.00000000000E+00 0. -1.
         22    1    3    3    0    0 -0.50670141479E+01 -0.26463238844E+01  0.13662044432E+03  0.13673998490E+03  0.00000000000E+00 0. -1.
         22    1    3    3    0    0 -0.12437136542E+03  0.20959797713E+02  0.99217505975E+02  0.16047324746E+03  0.00000000000E+00 0. -1.
</event>
<event>
 7    1  0.5736319E-006  0.5434265E+02  0.7818608E-02  0.1514444E+00
          2   -1    0    0  502    0  0.00000000000E+00  0.00000000000E+00  0.13935360088E+03  0.13935360088E+03  0.00000000000E+00 0. -1.
          1   -1    0    0  501    0 -0.00000000000E+00 -0.00000000000E+00 -0.11867229697E+04  0.11867229697E+04  0.00000000000E+00 0. -1.
         25    2    1    2    0    0  0.55281966812E+02 -0.24810190885E+01 -0.22999180934E+03  0.26754874982E+03  0.12499539933E+03 0.  0.
          2    1    1    2  501    0 -0.92405073972E+01 -0.26671682583E+02 -0.93157062394E+03  0.93199817222E+03  0.00000000000E+00 0. -1.
          1    1    1    2  502    0 -0.46041459415E+02  0.29152701671E+02  0.11419306445E+03  0.12652964857E+03  0.00000000000E+00 0. -1.
         22    1    3    3    0    0 -0.23544485825E+02  0.32653514594E+02 -0.31530012077E+02  0.51134494127E+02  0.00000000000E+00 0.  1.
         22    1    3    3    0    0  0.78826452637E+02 -0.35134533682E+02 -0.19846179727E+03  0.21641425569E+03  0.00000000000E+00 0.  1.
</event>
<event>
 7    1  0.5736319E-006  0.8415394E+02  0.7818608E-02  0.1479275E+00
          2   -1    0    0  502    0  0.00000000000E+00  0.00000000000E+00  0.99307227061E+03  0.99307227061E+03  0.00000000000E+00 0. -1.
          1   -1    0    0  501    0 -0.00000000000E+00 -0.00000000000E+00 -0.13280983979E+03  0.13280983979E+03  0.00000000000E+00 0. -1.
         25    2    1    2    0    0 -0.76230261282E+02  0.72705292179E+02  0.22927608055E+03  0.28158244996E+03  0.12499617100E+03 0.  0.
          2    1    1    2  501    0  0.56309914882E+02 -0.60744346960E+02 -0.90360106491E+02  0.12257908079E+03  0.00000000000E+00 0. -1.
          1    1    1    2  502    0  0.19920346400E+02 -0.11960945218E+02  0.72134645676E+03  0.72172057965E+03  0.00000000000E+00 0. -1.
         22    1    3    3    0    0 -0.73006506730E+02  0.10290817866E+03  0.21181326024E+03  0.24654593988E+03  0.00000000000E+00 0.  1.
         22    1    3    3    0    0 -0.32237545527E+01 -0.30202886480E+02  0.17462820319E+02  0.35036510081E+02  0.00000000000E+00 0.  1.
</event>
<event>
 7    1  0.5736319E-006  0.7033692E+02  0.7818608E-02  0.1494429E+00
          2   -1    0    0  502    0  0.00000000000E+00  0.00000000000E+00  0.55446225107E+03  0.55446225107E+03  0.00000000000E+00 0. -1.
          1   -1    0    0  501    0 -0.00000000000E+00 -0.00000000000E+00 -0.23036983489E+03  0.23036983489E+03  0.00000000000E+00 0. -1.
         25    2    1    2    0    0 -0.67871224275E+02 -0.19131767064E+02  0.15470712039E+02  0.14434946542E+03  0.12499959057E+03 0.  0.
          2    1    1    2  501    0 -0.23967060346E+01  0.24887766208E+02 -0.16234952091E+03  0.16426354449E+03  0.00000000000E+00 0. -1.
          1    1    1    2  502    0  0.70267930310E+02 -0.57559991432E+01  0.47097122506E+03  0.47621907605E+03  0.00000000000E+00 0. -1.
         22    1    3    3    0    0 -0.39449935171E+02 -0.72632579966E+02  0.44543354493E+01  0.82774574368E+02  0.00000000000E+00 0.  1.
         22    1    3    3    0    0 -0.28421289104E+02  0.53500812902E+02  0.11016376590E+02  0.61574891057E+02  0.00000000000E+00 0.  1.
</event>
<event>
 7    1  0.5736319E-006  0.1273810E+03  0.7818608E-02  0.1301980E+00
          2   -1    0    0  502    0  0.00000000000E+00  0.00000000000E+00  0.25142724684E+03  0.25142724684E+03  0.00000000000E+00 0. -1.
          1   -1    0    0  501    0 -0.00000000000E+00 -0.00000000000E+00 -0.13572484976E+04  0.13572484976E+04  0.00000000000E+00 0. -1.
         25    2    1    2    0    0  0.17226000601E+03  0.69673047463E+02 -0.24761324115E+03  0.33386420092E+03  0.12500057700E+03 0.  0.
          2    1    1    2  501    0 -0.11012703471E+03 -0.53916334626E+02 -0.10579522281E+04  0.10650342022E+04  0.00000000000E+00 0. -1.
          1    1    1    2  502    0 -0.62132971297E+02 -0.15756712837E+02  0.19974421847E+03  0.20977734133E+03  0.00000000000E+00 0. -1.
         22    1    3    3    0    0  0.61797132843E+02 -0.23167296576E+02 -0.29382407571E+02  0.72242197730E+02  0.00000000000E+00 0. -1.
         22    1    3    3    0    0  0.11046287317E+03  0.92840344038E+02 -0.21823083358E+03  0.26162200319E+03  0.00000000000E+00 0. -1.
</event>
<event>
 7    1  0.5736319E-006  0.3351136E+02  0.7818608E-02  0.1587104E+00
          2   -1    0    0  502    0  0.00000000000E+00  0.00000000000E+00  0.73482535664E+03  0.73482535664E+03  0.00000000000E+00 0. -1.
          1   -1    0    0  501    0 -0.00000000000E+00 -0.00000000000E+00 -0.24600827410E+04  0.24600827410E+04  0.00000000000E+00 0. -1.
         25    2    1    2    0    0  0.29092460373E+02 -0.26032929659E+02 -0.60476018188E+02  0.14424676171E+03  0.12500277921E+03 0.  0.
          2    1    1    2  501    0 -0.33447150756E+02 -0.23445713173E+01 -0.23573047071E+04  0.23575431472E+04  0.00000000000E+00 0. -1.
          1    1    1    2  502    0  0.43546903831E+01  0.28377500976E+02  0.69252334089E+03  0.69311818874E+03  0.00000000000E+00 0. -1.
         22    1    3    3    0    0  0.19962516359E+02 -0.26623353662E+02 -0.99108516637E+02  0.10454569857E+03  0.00000000000E+00 0. -1.
         22    1    3    3    0    0  0.91299440141E+01  0.59042400275E+00  0.38632498449E+02  0.39701063142E+02  0.00000000000E+00 0. -1.
</event>
<event>
 7    1  0.5736319E-006  0.8645994E+02  0.7818608E-02  0.1361693E+00
          2   -1    0    0  502    0  0.00000000000E+00  0.00000000000E+00  0.18770272082E+03  0.18770272082E+03  0.00000000000E+00 0. -1.
          1   -1    0    0  501    0 -0.00000000000E+00 -0.00000000000E+00 -0.33637274992E+04  0.33637274992E+04  0.00000000000E+00 0. -1.
         25    2    1    2    0    0 -0.58891198848E+02 -0.91942728502E+02  0.72881974314E+01  0.16613219305E+03  0.12500059648E+03 0.  0.
          2    1    1    2  501    0  0.77074692408E+02  0.39064177054E+02 -0.32759517643E+04  0.32770911614E+04  0.00000000000E+00 0. -1.
          1    1    1    2  502    0 -0.18183493560E+02  0.52878551448E+02  0.92638788448E+02  0.10820686562E+03  0.00000000000E+00 0. -1.
         22    1    3    3    0    0 -0.43657360780E+02 -0.74829343906E+02  0.62188169326E+02  0.10664316323E+03  0.00000000000E+00 0. -1.
         22    1    3    3    0    0 -0.15233838067E+02 -0.17113384596E+02 -0.54899971895E+02  0.59489029818E+02  0.00000000000E+00 0. -1.
</event>
<event>
 7    1  0.5736319E-006  0.4905622E+02  0.7818608E-02  0.1456809E+00
          2   -1    0    0  502    0  0.00000000000E+00  0.00000000000E+00  0.49466757163E+03  0.49466757163E+03  0.00000000000E+00 0. -1.
          1   -1    0    0  501    0 -0.00000000000E+00 -0.00000000000E+00 -0.54702372103E+02  0.54702372103E+02  0.00000000000E+00 0. -1.
         25    2    1    2    0    0 -0.45898955073E+02  0.73481172401E+02  0.29155715304E+03  0.32884207192E+03  0.12500135198E+03 0.  0.
          2    1    1    2  501    0  0.74420862618E+01 -0.46741798478E+02 -0.15699814780E+02  0.49866467260E+02  0.00000000000E+00 0. -1.
          1    1    1    2  502    0  0.38456868811E+02 -0.26739373923E+02  0.16410786126E+03  0.17066140456E+03  0.00000000000E+00 0. -1.
         22    1    3    3    0    0  0.12578049890E+02  0.77166241904E+02  0.23396825010E+03  0.24668599126E+03  0.00000000000E+00 0.  1.
         22    1    3    3    0    0 -0.58477004963E+02 -0.36850695026E+01  0.57588902940E+02  0.82156080655E+02  0.00000000000E+00 0.  1.
</event>
<event>
 7    1  0.5736319E-006  0.1263546E+03  0.7818608E-02  0.1292557E+00
          2   -1    0    0  502    0  0.00000000000E+00  0.00000000000E+00  0.11484166011E+04  0.11484166011E+04  0.00000000000E+00 0. -1.
          1   -1    0    0  501    0 -0.00000000000E+00 -0.00000000000E+00 -0.19971751199E+03  0.19971751199E+03  0.00000000000E+00 0. -1.
         25    2    1    2    0    0  0.51156393636E+02 -0.48460963587E+02  0.10177175993E+03  0.17591990811E+03  0.12499952540E+03 0.  0.
          2    1    1    2  501    0 -0.81293632424E+02  0.11220658493E+03 -0.13163210090E+03  0.19111771859E+03  0.00000000000E+00 0. -1.
          1    1    1    2  502    0  0.30137238787E+02 -0.63745621343E+02  0.97855943004E+03  0.98109648635E+03  0.00000000000E+00 0. -1.
         22    1    3    3    0    0  0.95017886126E+01  0.83114243807E+01  0.10468664291E+03  0.10544504239E+03  0.00000000000E+00 0. -1.
         22    1    3    3    0    0  0.41654605024E+02 -0.56772387968E+02 -0.29148829796E+01  0.70474865718E+02  0.00000000000E+00 0. -1.
</event>
<event>
 7    1  0.5736319E-006  0.1608470E+03  0.7818608E-02  0.1220828E+00
          2   -1    0    0  502    0  0.00000000000E+00  0.00000000000E+00  0.24316607976E+03  0.24316607976E+03  0.00000000000E+00 0. -1.
          1   -1    0    0  501    0 -0.00000000000E+00 -0.00000000000E+00 -0.23333479276E+04  0.23333479276E+04  0.00000000000E+00 0. -1.
         25    2    1    2    0    0 -0.74931645427E+02  0.24692321441E+03 -0.10730146458E+03  0.30614493523E+03  0.12500116705E+03 0.  0.
          2    1    1    2  501    0  0.83047975171E+02 -0.13463035483E+03 -0.21011407988E+04  0.21070868409E+04  0.00000000000E+00 0. -1.
          1    1    1    2  502    0 -0.81163297431E+01 -0.11229285957E+03  0.11826041561E+03  0.16328223118E+03  0.00000000000E+00 0. -1.
         22    1    3    3    0    0  0.10877409723E+02  0.70543941671E+02 -0.81456173837E+02  0.10830454286E+03  0.00000000000E+00 0.  1.
         22    1    3    3    0    0 -0.85809055150E+02  0.17637927274E+03 -0.25845290745E+02  0.19784039236E+03  0.00000000000E+00 0.  1.
</event>
<event>
 7    1  0.5736319E-006  0.5625377E+02  0.7818608E-02  0.1468832E+00
          2   -1    0    0  502    0  0.00000000000E+00  0.00000000000E+00  0.55930172857E+03  0.55930172857E+03  0.00000000000E+00 0. -1.
          1   -1    0    0  501    0 -0.00000000000E+00 -0.00000000000E+00 -0.60249106130E+03  0.60249106130E+03  0.00000000000E+00 0. -1.
         25    2    1    2    0    0 -0.56226191888E+02  0.37546265272E+02  0.29860048635E+02  0.14521496864E+03  0.12499863168E+03 0.  0.
          2    1    1    2  501    0 -0.16030536444E-01 -0.37443236646E+02 -0.54248971928E+03  0.54378037088E+03  0.00000000000E+00 0. -1.
          1    1    1    2  502    0  0.56242222424E+02 -0.10302862623E+00  0.46944033792E+03  0.47279745036E+03  0.00000000000E+00 0. -1.
         22    1    3    3    0    0 -0.12775404599E+02  0.36743375046E+02  0.73793247200E+02  0.83419002061E+02  0.00000000000E+00 0.  1.
         22    1    3    3    0    0 -0.43450787289E+02  0.80289022643E+00 -0.43933198566E+02  0.61795966575E+02  0.00000000000E+00 0.  1.
</event>
<event>
 7    1  0.5736319E-006  0.9354453E+02  0.7818608E-02  0.1418670E+00
          2   -1    0    0  502    0  0.00000000000E+00  0.00000000000E+00  0.82474741276E+03  0.82474741276E+03  0.00000000000E+00 0. -1.
          1   -1    0    0  501    0 -0.00000000000E+00 -0.00000000000E+00 -0.25822057517E+02  0.25822057517E+02  0.00000000000E+00 0. -1.
         25    2    1    2    0    0  0.59868039719E+02 -0.41500365551E+02  0.45525089376E+03  0.47768805373E+03  0.12500415146E+03 0.  0.
          2    1    1    2  501    0 -0.75120334054E+02  0.70419899725E+02  0.19351048195E+03  0.21919930084E+03  0.00000000000E+00 0. -1.
          1    1    1    2  502    0  0.15252294335E+02 -0.28919534174E+02  0.15016397954E+03  0.15368211571E+03  0.00000000000E+00 0. -1.
         22    1    3    3    0    0  0.84547412725E+02 -0.32955061684E+02  0.18376137913E+03  0.20494522573E+03  0.00000000000E+00 0. -1.
         22    1    3    3    0    0 -0.24679373006E+02 -0.85453038674E+01  0.27148951463E+03  0.27274282800E+03  0.00000000000E+00 0. -1.
</event>
<event>
 7    1  0.5736319E-006  0.6331532E+02  0.7818608E-02  0.1460114E+00
          2   -1    0    0  502    0  0.00000000000E+00  0.00000000000E+00  0.50698870199E+02  0.50698870199E+02  0.00000000000E+00 0. -1.
          1   -1    0    0  501    0 -0.00000000000E+00 -0.00000000000E+00 -0.43915392396E+03  0.43915392396E+03  0.00000000000E+00 0. -1.
         25    2    1    2    0    0  0.31291266238E+02  0.70110652048E+02 -0.27362497796E+03  0.31046889348E+03  0.12500263351E+03 0.  0.
          2    1    1    2  501    0 -0.34610181730E+02 -0.75686398017E+01 -0.11113458906E+03  0.11664495648E+03  0.00000000000E+00 0. -1.
          1    1    1    2  502    0  0.33189154915E+01 -0.62542012246E+02 -0.36954867411E+01  0.62738944190E+02  0.00000000000E+00 0. -1.
         22    1    3    3    0    0  0.47711490646E+02  0.96745205563E+02 -0.16266564157E+03  0.19518230475E+03  0.00000000000E+00 0.  1.
         22    1    3    3    0    0 -0.16420224408E+02 -0.26634553515E+02 -0.11095933639E+03  0.11528658873E+03  0.00000000000E+00 0.  1.
</event>
<event>
 7    1  0.5736319E-006  0.1311696E+03  0.7818608E-02  0.1396916E+00
          2   -1    0    0  502    0  0.00000000000E+00  0.00000000000E+00  0.44942530821E+03  0.44942530821E+03  0.00000000000E+00 0. -1.
          1   -1    0    0  501    0 -0.00000000000E+00 -0.00000000000E+00 -0.90779215738E+03  0.90779215738E+03  0.00000000000E+00 0. -1.
         25    2    1    2    0    0  0.26129248942E+02  0.15034135270E+03 -0.55157847614E+03  0.58579182466E+03  0.12501194550E+03 0.  0.
          2    1    1    2  501    0  0.11612132617E+02 -0.25088777914E+02 -0.32861744884E+03  0.32977828322E+03  0.00000000000E+00 0. -1.
          1    1    1    2  502    0 -0.37741381559E+02 -0.12525257479E+03  0.42182907581E+03  0.44164735771E+03  0.00000000000E+00 0. -1.
         22    1    3    3    0    0 -0.49853197819E+02  0.46864418610E+02 -0.17302754076E+03  0.18606489440E+03  0.00000000000E+00 0.  1.
         22    1    3    3    0    0  0.75982446761E+02  0.10347693409E+03 -0.37855093537E+03  0.39972693026E+03  0.00000000000E+00 0.  1.
</event>
<event>
 7    1  0.5736319E-006  0.2432130E+02  0.7818608E-02  0.1677160E+00
          2   -1    0    0  502    0  0.00000000000E+00  0.00000000000E+00  0.62100785142E+03  0.62100785142E+03  0.00000000000E+00 0. -1.
          1   -1    0    0  501    0 -0.00000000000E+00 -0.00000000000E+00 -0.13072538794E+03  0.13072538794E+03  0.00000000000E+00 0. -1.
         25    2    1    2    0    0  0.27128133599E+02 -0.37032930362E+02  0.60577531754E+02  0.14629402375E+03  0.12499972187E+03 0.  0.
          2    1    1    2  501    0 -0.81336021327E+01  0.22055025490E+02 -0.86006354794E+02  0.89160937064E+02  0.00000000000E+00 0. -1.
          1    1    1    2  502    0 -0.18994531466E+02  0.14977904872E+02  0.51571128652E+03  0.51627827855E+03  0.00000000000E+00 0. -1.
         22    1    3    3    0    0 -0.32989503263E+02 -0.36966717421E+02  0.69671443023E+02  0.85492429462E+02  0.00000000000E+00 0. -1.
         22    1    3    3    0    0  0.60117636861E+02 -0.66212941105E-01 -0.90939112696E+01  0.60801594289E+02  0.00000000000E+00 0. -1.
</event>
<event>
 7    1  0.5736319E-006  0.1358936E+03  0.7818608E-02  0.1390592E+00
          2   -1    0    0  502    0  0.00000000000E+00  0.00000000000E+00  0.28604840520E+04  0.28604840520E+04  0.00000000000E+00 0. -1.
          1   -1    0    0  501    0 -0.00000000000E+00 -0.00000000000E+00 -0.61296097649E+02  0.61296097649E+02  0.00000000000E+00 0. -1.
         25    2    1    2    0    0 -0.15413124489E+03  0.12179416553E+02  0.21210469113E+04  0.21303450731E+04  0.12500140559E+03 0.  0.
          2    1    1    2  501    0  0.13497759603E+03  0.83375356483E+01  0.24798310227E+02  0.13748971642E+03  0.00000000000E+00 0. -1.
          1    1    1    2  502    0  0.19153648860E+02 -0.20516952201E+02  0.65334273277E+03  0.65394536015E+03  0.00000000000E+00 0. -1.
         22    1    3    3    0    0 -0.71056807885E+02  0.47204638427E+01  0.34157907884E+03  0.34892351573E+03  0.00000000000E+00 0. -1.
         22    1    3    3    0    0 -0.83074437008E+02  0.74589527101E+01  0.17794678325E+04  0.17814215573E+04  0.00000000000E+00 0. -1.
</event>
<event>
 7    1  0.5736319E-006  0.1236615E+03  0.7818608E-02  0.1250736E+00
          2   -1    0    0  502    0  0.00000000000E+00  0.00000000000E+00  0.90189313631E+03  0.90189313631E+03  0.00000000000E+00 0. -1.
          1   -1    0    0  501    0 -0.00000000000E+00 -0.00000000000E+00 -0.26638365694E+03  0.26638365694E+03  0.00000000000E+00 0. -1.
         25    2    1    2    0    0 -0.52857242989E+02  0.12296004866E+03 -0.48046664478E+02  0.18933167229E+03  0.12499975384E+03 0.  0.
          2    1    1    2  501    0  0.12566746190E+03 -0.43397311384E+02 -0.11338863521E+03  0.17473585840E+03  0.00000000000E+00 0. -1.
          1    1    1    2  502    0 -0.72810218908E+02 -0.79562737279E+02  0.79694477905E+03  0.80420926257E+03  0.00000000000E+00 0. -1.
         22    1    3    3    0    0 -0.18821183754E+02  0.15371804460E+02  0.39590946779E+02  0.46453981499E+02  0.00000000000E+00 0.  1.
         22    1    3    3    0    0 -0.34036059236E+02  0.10758824420E+03 -0.87637611257E+02  0.14287769079E+03  0.00000000000E+00 0.  1.
</event>
<event>
 7    1  0.5736319E-006  0.6746375E+02  0.7818608E-02  0.1474196E+00
          2   -1    0    0  502    0  0.00000000000E+00  0.00000000000E+00  0.37612283038E+03  0.37612283038E+03  0.00000000000E+00 0. -1.
          1   -1    0    0  501    0 -0.00000000000E+00 -0.00000000000E+00 -0.23818314600E+04  0.23818314600E+04  0.00000000000E+00 0. -1.
         25    2    1    2    0    0  0.32089239247E+02 -0.23222043507E+02 -0.47978847098E+03  0.49738400953E+03  0.12499957387E+03 0.  0.
          2    1    1    2  501    0 -0.58663500383E+02  0.37245077293E+02 -0.18919918671E+04  0.18932675002E+04  0.00000000000E+00 0. -1.
          1    1    1    2  502    0  0.26574261136E+02 -0.14023033787E+02  0.36607170855E+03  0.36730278059E+03  0.00000000000E+00 0. -1.
         22    1    3    3    0    0  0.29635924506E+02  0.49744301329E+02 -0.22643429377E+03  0.23372050174E+03  0.00000000000E+00 0. -1.
         22    1    3    3    0    0  0.24533147404E+01 -0.72966344836E+02 -0.25335417720E+03  0.26366350779E+03  0.00000000000E+00 0. -1.
</event>
<event>
 7    1  0.5736319E-006  0.1387393E+03  0.7818608E-02  0.1273462E+00
          2   -1    0    0  502    0  0.00000000000E+00  0.00000000000E+00  0.33726923955E+04  0.33726923955E+04  0.00000000000E+00 0. -1.
          1   -1    0    0  501    0 -0.00000000000E+00 -0.00000000000E+00 -0.15627788607E+03  0.15627788607E+03  0.00000000000E+00 0. -1.
         25    2    1    2    0    0 -0.76068075923E+02 -0.10917017829E+03  0.10798119924E+03  0.21210555501E+03  0.12499738826E+03 0.  0.
          2    1    1    2  501    0  0.70756412443E+02 -0.30234268598E+02 -0.88281311975E+02  0.11710751873E+03  0.00000000000E+00 0. -1.
          1    1    1    2  502    0  0.53116634795E+01  0.13940444689E+03  0.31967146221E+04  0.31997572078E+04  0.00000000000E+00 0. -1.
         22    1    3    3    0    0 -0.34742831655E+02 -0.13120247121E+03  0.79546376942E+02  0.15731744622E+03  0.00000000000E+00 0.  1.
         22    1    3    3    0    0 -0.41325244268E+02  0.22032292915E+02  0.28434822303E+02  0.54788108785E+02  0.00000000000E+00 0.  1.
</event>
<event>
 7    1  0.5736319E-006  0.3040945E+02  0.7818608E-02  0.1617788E+00
          2   -1    0    0  502    0  0.00000000000E+00  0.00000000000E+00  0.21487447998E+02  0.21487447998E+02  0.00000000000E+00 0. -1.
          1   -1    0    0  501    0 -0.00000000000E+00 -0.00000000000E+00 -0.10247007109E+04  0.10247007109E+04  0.00000000000E+00 0. -1.
         25    2    1    2    0    0  0.44645609842E+02 -0.27465928133E+02 -0.57075003931E+03  0.58662486733E+03  0.12500207962E+03 0.  0.
          2    1    1    2  501    0 -0.18837923414E+02  0.22299486556E+02 -0.43225819503E+03  0.43324275138E+03  0.00000000000E+00 0. -1.
          1    1    1    2  502    0 -0.25807686428E+02  0.51664415780E+01 -0.20502853397E+00  0.26320540155E+02  0.00000000000E+00 0. -1.
         22    1    3    3    0    0  0.46401265381E+02 -0.68729767479E+02 -0.25402153468E+03  0.26721489189E+03  0.00000000000E+00 0. -1.
         22    1    3    3    0    0 -0.17556555387E+01  0.41263839346E+02 -0.31672850463E+03  0.31940997544E+03  0.00000000000E+00 0. -1.
</event>
<event>
 7    1  0.5736319E-006  0.1887366E+03  0.7818608E-02  0.1302163E+00
          2   -1    0    0  502    0  0.00000000000E+00  0.00000000000E+00  0.14913222907E+04  0.14913222907E+04  0.00000000000E+00 0. -1.
          1   -1    0    0  501    0 -0.00000000000E+00 -0.00000000000E+00 -0.28496617180E+03  0.28496617180E+03  0.00000000000E+00 0. -1.
         25    2    1    2    0    0 -0.16438674315E+03  0.15661790802E+03  0.54042493384E+03  0.59935979193E+03  0.12498352143E+03 0.  0.
          2    1    1    2  501    0  0.14390824180E+03 -0.11859223113E+03 -0.22087775700E+03  0.28906864735E+03  0.00000000000E+00 0. -1.
          1    1    1    2  502    0  0.20478501340E+02 -0.38025676893E+02  0.88680894204E+03  0.88786002321E+03  0.00000000000E+00 0. -1.
         22    1    3    3    0    0 -0.13455853268E+03  0.56983040894E+02  0.39003929315E+03  0.41651376432E+03  0.00000000000E+00 0.  1.
         22    1    3    3    0    0 -0.29828210464E+02  0.99634867125E+02  0.15038564069E+03  0.18284602761E+03  0.00000000000E+00 0.  1.
</event>
<event>
 7    1  0.5736319E-006  0.1381252E+03  0.7818608E-02  0.1351400E+00
          2   -1    0    0  502    0  0.00000000000E+00  0.00000000000E+00  0.12538204545E+04  0.12538204545E+04  0.00000000000E+00 0. -1.
          1   -1    0    0  501    0 -0.00000000000E+00 -0.00000000000E+00 -0.70996226234E+03  0.70996226234E+03  0.00000000000E+00 0. -1.
         25    2    1    2    0    0  0.14582428619E+03  0.73050106471E+02  0.34539778184E+03  0.40189985888E+03  0.12499131318E+03 0.  0.
          2    1    1    2  501    0 -0.17748346778E+02 -0.33805725893E+02 -0.67607284104E+03  0.67715014385E+03  0.00000000000E+00 0. -1.
          1    1    1    2  502    0 -0.12807593941E+03 -0.39244380578E+02  0.87453325139E+03  0.88473271413E+03  0.00000000000E+00 0. -1.
         22    1    3    3    0    0  0.67083860324E+02  0.10142767178E+03  0.19623309461E+03  0.23085762785E+03  0.00000000000E+00 0. -1.
         22    1    3    3    0    0  0.78740425865E+02 -0.28377565309E+02  0.14916468723E+03  0.17104223103E+03  0.00000000000E+00 0. -1.
</event>
<event>
 7    1  0.5736319E-006  0.1273176E+03  0.7818608E-02  0.1327713E+00
          2   -1    0    0  502    0  0.00000000000E+00  0.00000000000E+00  0.13385768919E+03  0.13385768919E+03  0.00000000000E+00 0. -1.
          1   -1    0    0  501    0 -0.00000000000E+00 -0.00000000000E+00 -0.56619638037E+03  0.56619638037E+03  0.00000000000E+00 0. -1.
         25    2    1    2    0    0 -0.21231224713E+01 -0.80598947053E+02  0.50156552248E+02  0.15697578567E+03  0.12500007855E+03 0.  0.
          2    1    1    2  501    0  0.82586163396E+01  0.13109245743E+03 -0.47355406087E+03  0.49143350079E+03  0.00000000000E+00 0. -1.
          1    1    1    2  502    0 -0.61354938683E+01 -0.50493510375E+02 -0.89411825565E+01  0.51644783091E+02  0.00000000000E+00 0. -1.
         22    1    3    3    0    0  0.45325709142E+02 -0.70640625242E+02  0.65125617835E+02  0.10623494690E+03  0.00000000000E+00 0.  1.
         22    1    3    3    0    0 -0.47448831613E+02 -0.99583218109E+01 -0.14969065587E+02  0.50740838772E+02  0.00000000000E+00 0.  1.
</event>
<event>
 7    1  0.5736319E-006  0.1063400E+03  0.7818608E-02  0.1327522E+00
          2   -1    0    0  502    0  0.00000000000E+00  0.00000000000E+00  0.71418091097E+03  0.71418091097E+03  0.00000000000E+00 0. -1.
          1   -1    0    0  501    0 -0.00000000000E+00 -0.00000000000E+00 -0.51314810901E+03  0.51314810901E+03  0.00000000000E+00 0. -1.
         25    2    1    2    0    0  0.33775973815E+02  0.13594475382E+03  0.20227837255E+03  0.27597636444E+03  0.12499848491E+03 0.  0.
          2    1    1    2  501    0  0.18314194539E+02 -0.10419832135E+03 -0.46841678355E+03  0.48021555889E+03  0.00000000000E+00 0. -1.
          1    1    1    2  502    0 -0.52090168354E+02 -0.31746432468E+02  0.46717121295E+03  0.47113709664E+03  0.00000000000E+00 0. -1.
         22    1    3    3    0    0  0.79379542784E+01  0.20822170635E+02  0.14152186406E+03  0.14326552941E+03  0.00000000000E+00 0. -1.
         22    1    3    3    0    0  0.25838019537E+02  0.11512258318E+03  0.60756508491E+02  0.13271083504E+03  0.00000000000E+00 0. -1.
</event>
<event>
 7    1  0.6037478E-006  0.7674976E+02  0.7818608E-02  0.1378752E+00
          2   -1    0    0  502    0  0.00000000000E+00  0.00000000000E+00  0.66926600109E+03  0.66926600109E+03  0.00000000000E+00 0. -1.
          1   -1    0    0  501    0 -0.00000000000E+00 -0.00000000000E+00 -0.11101650606E+04  0.11101650606E+04  0.00000000000E+00 0. -1.
         25    2    1    2    0    0 -0.38663143385E+02  0.84653742873E+02 -0.41338685801E+03  0.44178335655E+03  0.12499097932E+03 0.  0.
          2    1    1    2  501    0 -0.15187361934E+02 -0.75058347831E+02 -0.67928284826E+03  0.68358583915E+03  0.00000000000E+00 0. -1.
          1    1    1    2  502    0  0.53850505319E+02 -0.95953950424E+01  0.65177064678E+03  0.65406186598E+03  0.00000000000E+00 0. -1.
         22    1    3    3    0    0 -0.70912456308E+02  0.58365100988E+02 -0.37172826736E+03  0.38290594958E+03  0.00000000000E+00 0.  1.
         22    1    3    3    0    0  0.32249312923E+02  0.26288641885E+02 -0.41658590652E+02  0.58877406968E+02  0.00000000000E+00 0.  1.
</event>
<event>
 7    1  0.5736319E-006  0.1224685E+03  0.7818608E-02  0.1303210E+00
          2   -1    0    0  502    0  0.00000000000E+00  0.00000000000E+00  0.92129820537E+03  0.92129820537E+03  0.00000000000E+00 0. -1.
          1   -1    0    0  501    0 -0.00000000000E+00 -0.00000000000E+00 -0.56571353835E+03  0.56571353835E+03  0.00000000000E+00 0. -1.
         25    2    1    2    0    0  0.14569716057E+03  0.66510771854E+01 -0.16016381779E+03  0.25009844702E+03  0.12499954099E+03 0.  0.
          2    1    1    2  501    0 -0.39012656841E+02  0.53139156376E+02 -0.35325150448E+03  0.35934994470E+03  0.00000000000E+00 0. -1.
          1    1    1    2  502    0 -0.10668450373E+03 -0.59790233561E+02  0.86899998930E+03  0.87756335199E+03  0.00000000000E+00 0. -1.
         22    1    3    3    0    0  0.11149666610E+03  0.60715906018E+02 -0.11911696663E+03  0.17408842447E+03  0.00000000000E+00 0. -1.
         22    1    3    3    0    0  0.34200494473E+02 -0.54064828833E+02 -0.41046851161E+02  0.76010022557E+02  0.00000000000E+00 0. -1.
</event>
<event>
 7    1  0.8231648E-006  0.5113590E+02  0.7818608E-02  0.1489667E+00
          2   -1    0    0  502    0  0.00000000000E+00  0.00000000000E+00  0.24060213903E+04  0.24060213903E+04  0.00000000000E+00 0. -1.
          1   -1    0    0  501    0 -0.00000000000E+00 -0.00000000000E+00 -0.54814197575E+03  0.54814197575E+03  0.00000000000E+00 0. -1.
         25    2    1    2    0    0 -0.50476402292E+02 -0.36803523747E+02 -0.10398548577E+03  0.17418504630E+03  0.12500033022E+03 0.  0.
          2    1    1    2  501    0  0.16822416648E+02  0.48252488088E+02 -0.40732692728E+03  0.41051981925E+03  0.00000000000E+00 0. -1.
          1    1    1    2  502    0  0.33653985644E+02 -0.11448964341E+02  0.23691918276E+04  0.23694585005E+04  0.00000000000E+00 0. -1.
         22    1    3    3    0    0 -0.30917141823E+02 -0.82259983119E+02 -0.81412734664E+02  0.11979402258E+03  0.00000000000E+00 0.  1.
         22    1    3    3    0    0 -0.19559260469E+02  0.45456459372E+02 -0.22572751110E+02  0.54391023721E+02  0.00000000000E+00 0.  1.
</event>
<event>
 7    1  0.5736319E-006  0.6636884E+02  0.7818608E-02  0.1493538E+00
          2   -1    0    0  502    0  0.00000000000E+00  0.00000000000E+00  0.51637820483E+03  0.51637820483E+03  0.00000000000E+00 0. -1.
          1   -1    0    0  501    0 -0.00000000000E+00 -0.00000000000E+00 -0.53307951968E+02  0.53307951968E+02  0.00000000000E+00 0. -1.
         25    2    1    2    0    0  0.22074762143E+02  0.48052063623E+02  0.81617109878E+02  0.15837481645E+03  0.12499973567E+03 0.  0.
          2    1    1    2  501    0 -0.18154052272E+02  0.19526746275E+02  0.29752065625E+01  0.26827509912E+02  0.00000000000E+00 0. -1.
          1    1    1    2  502    0 -0.39207098715E+01 -0.67578809898E+02  0.37847793643E+03  0.38448383045E+03  0.00000000000E+00 0. -1.
         22    1    3    3    0    0  0.14262271002E+02  0.78284485447E+02  0.95411029817E+02  0.12423822941E+03  0.00000000000E+00 0. -1.
         22    1    3    3    0    0  0.78124911418E+01 -0.30232421824E+02 -0.13793919939E+02  0.34136587037E+02  0.00000000000E+00 0. -1.
</event>
<event>
 7    1  0.5736319E-006  0.1156810E+03  0.7818608E-02  0.1336653E+00
          2   -1    0    0  502    0  0.00000000000E+00  0.00000000000E+00  0.62589048787E+03  0.62589048787E+03  0.00000000000E+00 0. -1.
          1   -1    0    0  501    0 -0.00000000000E+00 -0.00000000000E+00 -0.38173403743E+04  0.38173403743E+04  0.00000000000E+00 0. -1.
         25    2    1    2    0    0  0.95097944005E+02 -0.78482450649E+02 -0.45772473383E+02  0.18144686907E+03  0.12499893185E+03 0.  0.
          2    1    1    2  501    0 -0.44823374754E+02 -0.25886426913E+02 -0.36975354617E+04  0.36978977450E+04  0.00000000000E+00 0. -1.
          1    1    1    2  502    0 -0.50274569251E+02  0.10436887756E+03  0.55185804865E+03  0.56388624809E+03  0.00000000000E+00 0. -1.
         22    1    3    3    0    0  0.47732617581E+02 -0.90051195568E+02  0.15554225774E+02  0.10309973106E+03  0.00000000000E+00 0. -1.
         22    1    3    3    0    0  0.47365326424E+02  0.11568744919E+02 -0.61326699156E+02  0.78347138018E+02  0.00000000000E+00 0. -1.
</event>
<event>
 7    1  0.5736319E-006  0.1439690E+03  0.7818608E-02  0.1284259E+00
          2   -1    0    0  502    0  0.00000000000E+00  0.00000000000E+00  0.18717147876E+04  0.18717147876E+04  0.00000000000E+00 0. -1.
          1   -1    0    0  501    0 -0.00000000000E+00 -0.00000000000E+00 -0.17974237293E+03  0.17974237293E+03  0.00000000000E+00 0. -1.
         25    2    1    2    0    0  0.13050236964E+03  0.52030855243E+02  0.27616326047E+03  0.33411231754E+03  0.12500726345E+03 0.  0.
          2    1    1    2  501    0  0.14900979317E+02 -0.65217178439E+02 -0.13975656017E+03  0.15494262054E+03  0.00000000000E+00 0. -1.
          1    1    1    2  502    0 -0.14540334895E+03  0.13186323197E+02  0.15555657144E+04  0.15624022225E+04  0.00000000000E+00 0. -1.
         22    1    3    3    0    0  0.21966794975E+02 -0.35066955369E+02  0.29217259850E+02  0.50654513259E+02  0.00000000000E+00 0. -1.
         22    1    3    3    0    0  0.10853557466E+03  0.87097810612E+02  0.24694600063E+03  0.28345780428E+03  0.00000000000E+00 0. -1.
</event>
<event>
 7    1  0.5736319E-006  0.4975977E+02  0.7818608E-02  0.1448707E+00
          2   -1    0    0  502    0  0.00000000000E+00  0.00000000000E+00  0.16290052113E+03  0.16290052113E+03  0.00000000000E+00 0. -1.
          1   -1    0    0  501    0 -0.00000000000E+00 -0.00000000000E+00 -0.61813102820E+03  0.61813102820E+03  0.00000000000E+00 0. -1.
         25    2    1    2    0    0 -0.39071077004E+02  0.63661403523E+02 -0.62954061884E+02  0.15864358500E+03  0.12500099918E+03 0.  0.
          2    1    1    2  501    0 -0.78649914945E+01 -0.48370502802E+02 -0.50078570630E+03  0.50317778893E+03  0.00000000000E+00 0. -1.
          1    1    1    2  502    0  0.46936068499E+02 -0.15290900721E+02  0.10850926112E+03  0.11921017540E+03  0.00000000000E+00 0. -1.
         22    1    3    3    0    0 -0.53552645675E+02  0.61965275312E+02 -0.93801218190E+02  0.12452409300E+03  0.00000000000E+00 0. -1.
         22    1    3    3    0    0  0.14481568670E+02  0.16961282105E+01  0.30847156306E+02  0.34119491998E+02  0.00000000000E+00 0. -1.
</event>
<event>
 7    1  0.5736319E-006  0.1342841E+03  0.7818608E-02  0.1290598E+00
          2   -1    0    0  502    0  0.00000000000E+00  0.00000000000E+00  0.18189502809E+04  0.18189502809E+04  0.00000000000E+00 0. -1.
          1   -1    0    0  501    0 -0.00000000000E+00 -0.00000000000E+00 -0.10912477743E+03  0.10912477743E+03  0.00000000000E+00 0. -1.
         25    2    1    2    0    0  0.26901862591E+02  0.13934782353E+03  0.53062615333E+03  0.56332048559E+03  0.12499731500E+03 0.  0.
          2    1    1    2  501    0  0.58434995823E+02 -0.33932281249E+02 -0.76317510492E+02  0.10193336478E+03  0.00000000000E+00 0. -1.
          1    1    1    2  502    0 -0.85336858415E+02 -0.10541554228E+03  0.12555168606E+04  0.12628212080E+04  0.00000000000E+00 0. -1.
         22    1    3    3    0    0  0.47971179843E+02  0.13663492467E+03  0.51956848736E+03  0.53937162494E+03  0.00000000000E+00 0.  1.
         22    1    3    3    0    0 -0.21069317252E+02  0.27128988577E+01  0.11057665970E+02  0.23948860649E+02  0.00000000000E+00 0.  1.
</event>
<event>
 7    1  0.5736319E-006  0.1496255E+03  0.7818608E-02  0.1281094E+00
          2   -1    0    0  502    0  0.00000000000E+00  0.00000000000E+00  0.10508801438E+04  0.10508801438E+04  0.00000000000E+00 0. -1.
          1   -1    0    0  501    0 -0.00000000000E+00 -0.00000000000E+00 -0.16121966236E+04  0.16121966236E+04  0.00000000000E+00 0. -1.
         25    2    1    2    0    0  0.71624873244E+01 -0.18280699706E+03  0.73351289482E+02  0.23341619148E+03  0.12503202541E+03 0.  0.
          2    1    1    2  501    0  0.45186609361E+02  0.14207537825E+03 -0.15273040186E+04  0.15345633933E+04  0.00000000000E+00 0. -1.
          1    1    1    2  502    0 -0.52349096685E+02  0.40731618817E+02  0.89263624934E+03  0.89509718262E+03  0.00000000000E+00 0. -1.
         22    1    3    3    0    0  0.30458223850E+02 -0.16080138710E+03  0.11877378678E+02  0.16409101626E+03  0.00000000000E+00 0. -1.
         22    1    3    3    0    0 -0.23295736525E+02 -0.22005609966E+02  0.61473910804E+02  0.69325175224E+02  0.00000000000E+00 0. -1.
</event>
<event>
 7    1  0.5736319E-006  0.8435176E+02  0.7818608E-02  0.1364261E+00
          2   -1    0    0  502    0  0.00000000000E+00  0.00000000000E+00  0.70329337944E+03  0.70329337944E+03  0.00000000000E+00 0. -1.
          1   -1    0    0  501    0 -0.00000000000E+00 -0.00000000000E+00 -0.14523310410E+03  0.14523310410E+03  0.00000000000E+00 0. -1.
         25    2    1    2    0    0 -0.12155731379E+03 -0.14686156124E+02  0.23331979023E+03  0.29164190265E+03  0.12500004460E+03 0.  0.
          2    1    1    2  501    0  0.71910266742E+02  0.40802693334E+02 -0.99262997806E+02  0.12918625693E+03  0.00000000000E+00 0. -1.
          1    1    1    2  502    0  0.49647047052E+02 -0.26116537209E+02  0.42400348291E+03  0.42769832396E+03  0.00000000000E+00 0. -1.
         22    1    3    3    0    0 -0.14168867960E+03 -0.35440857083E+02  0.19583686912E+03  0.24430271301E+03  0.00000000000E+00 0. -1.
         22    1    3    3    0    0  0.20131365803E+02  0.20754700959E+02  0.37482921106E+02  0.47339189639E+02  0.00000000000E+00 0. -1.
</event>
<event>
 7    1  0.5736319E-006  0.3489015E+03  0.7818608E-02  0.1288655E+00
          2   -1    0    0  502    0  0.00000000000E+00  0.00000000000E+00  0.75342795361E+03  0.75342795361E+03  0.00000000000E+00 0. -1.
          1   -1    0    0  501    0 -0.00000000000E+00 -0.00000000000E+00 -0.43660838699E+03  0.43660838699E+03  0.00000000000E+00 0. -1.
         25    2    1    2    0    0  0.35796508649E+03 -0.44580634718E+02 -0.44055410843E+02  0.38430853457E+03  0.12500293748E+03 0.  0.
          2    1    1    2  501    0 -0.12418403294E+02  0.23393075879E+02 -0.16994251301E+03  0.17199392567E+03  0.00000000000E+00 0. -1.
          1    1    1    2  502    0 -0.34554668320E+03  0.21187558839E+02  0.53081749047E+03  0.63373388035E+03  0.00000000000E+00 0. -1.
         22    1    3    3    0    0  0.19845009197E+03 -0.80682942525E+02 -0.52421761698E+02  0.22054527272E+03  0.00000000000E+00 0.  1.
         22    1    3    3    0    0  0.15951499452E+03  0.36102307807E+02  0.83663508550E+01  0.16376326185E+03  0.00000000000E+00 0.  1.
</event>
<event>
 7    1  0.5736319E-006  0.3878042E+02  0.7818608E-02  0.1600895E+00
          2   -1    0    0  502    0  0.00000000000E+00  0.00000000000E+00  0.15136016694E+04  0.15136016694E+04  0.00000000000E+00 0. -1.
          1   -1    0    0  501    0 -0.00000000000E+00 -0.00000000000E+00 -0.80331041738E+03  0.80331041738E+03  0.00000000000E+00 0. -1.
         25    2    1    2    0    0  0.49526007090E+02  0.13739318795E+02 -0.41833563565E+03  0.43962782768E+03  0.12500531412E+03 0.  0.
          2    1    1    2  501    0 -0.29266650497E+02 -0.24239588764E+02 -0.37327733833E+03  0.37520669744E+03  0.00000000000E+00 0. -1.
          1    1    1    2  502    0 -0.20259356593E+02  0.10500269969E+02  0.15019042260E+04  0.15020775617E+04  0.00000000000E+00 0. -1.
         22    1    3    3    0    0  0.66909707562E+02 -0.12076853800E+01 -0.99154223602E+02  0.11962410931E+03  0.00000000000E+00 0. -1.
         22    1    3    3    0    0 -0.17383700472E+02  0.14947004175E+02 -0.31918141205E+03  0.32000371837E+03  0.00000000000E+00 0. -1.
</event>
<event>
 7    1  0.5736319E-006  0.1672938E+03  0.7818608E-02  0.1236812E+00
          2   -1    0    0  502    0  0.00000000000E+00  0.00000000000E+00  0.15895685101E+04  0.15895685101E+04  0.00000000000E+00 0. -1.
          1   -1    0    0  501    0 -0.00000000000E+00 -0.00000000000E+00 -0.62614887479E+03  0.62614887479E+03  0.00000000000E+00 0. -1.
         25    2    1    2    0    0 -0.74718081154E+02 -0.13277175068E+03 -0.18733310414E+03  0.27190287738E+03  0.12500541344E+03 0.  0.
          2    1    1    2  501    0  0.15700054835E+03  0.92181543024E+02 -0.37418128335E+03  0.41612286871E+03  0.00000000000E+00 0. -1.
          1    1    1    2  502    0 -0.82282467201E+02  0.40590207657E+02  0.15249340228E+04  0.15276916388E+04  0.00000000000E+00 0. -1.
         22    1    3    3    0    0  0.21220090140E+02 -0.69397656850E+02 -0.11525506873E+03  0.13619859716E+03  0.00000000000E+00 0.  1.
         22    1    3    3    0    0 -0.95938171294E+02 -0.63374093831E+02 -0.72078035417E+02  0.13570428022E+03  0.00000000000E+00 0.  1.
</event>
<event>
 7    1  0.5736319E-006  0.2357826E+03  0.7818608E-02  0.1287957E+00
          2   -1    0    0  502    0  0.00000000000E+00  0.00000000000E+00  0.13492538188E+03  0.13492538188E+03  0.00000000000E+00 0. -1.
          1   -1    0    0  501    0 -0.00000000000E+00 -0.00000000000E+00 -0.12444992193E+04  0.12444992193E+04  0.00000000000E+00 0. -1.
         25    2    1    2    0    0 -0.19032727347E+03  0.18114142776E+03 -0.37982520591E+03  0.47846491184E+03  0.12499918779E+03 0.  0.
          2    1    1    2  501    0  0.16761903058E+02 -0.35710890046E+02 -0.66399565503E+03  0.66516648965E+03  0.00000000000E+00 0. -1.
          1    1    1    2  502    0  0.17356537042E+03 -0.14543053771E+03 -0.65752976504E+02  0.23579319970E+03  0.00000000000E+00 0. -1.
         22    1    3    3    0    0 -0.16848162713E+03  0.90017700432E+02 -0.20563001497E+03  0.28066518866E+03  0.00000000000E+00 0.  1.
         22    1    3    3    0    0 -0.21845646348E+02  0.91123727325E+02 -0.17419519093E+03  0.19779972318E+03  0.00000000000E+00 0.  1.
</event>
<event>
 7    1  0.5736319E-006  0.9562238E+02  0.7818608E-02  0.1373929E+00
          2   -1    0    0  502    0  0.00000000000E+00  0.00000000000E+00  0.61086985104E+03  0.61086985104E+03  0.00000000000E+00 0. -1.
          1   -1    0    0  501    0 -0.00000000000E+00 -0.00000000000E+00 -0.78119049800E+03  0.78119049800E+03  0.00000000000E+00 0. -1.
         25    2    1    2    0    0 -0.73565544035E+02  0.11977555096E+03 -0.20877510706E+03  0.28101640834E+03  0.12500041821E+03 0.  0.
          2    1    1    2  501    0  0.23128669619E+02 -0.39385400674E+02 -0.53139084383E+03  0.53335014208E+03  0.00000000000E+00 0. -1.
          1    1    1    2  502    0  0.50436874416E+02 -0.80390150290E+02  0.56984530392E+03  0.57769379862E+03  0.00000000000E+00 0. -1.
         22    1    3    3    0    0 -0.51490917252E+02 -0.29923417979E+01 -0.11143960155E+03  0.12279679744E+03  0.00000000000E+00 0. -1.
         22    1    3    3    0    0 -0.22074626783E+02  0.12276789276E+03 -0.97335505506E+02  0.15821961090E+03  0.00000000000E+00 0. -1.
</event>
<event>
 7    1  0.5736319E-006  0.8642948E+02  0.7818608E-02  0.1357061E+00
          2   -1    0    0  502    0  0.00000000000E+00  0.00000000000E+00  0.12631957403E+03  0.12631957403E+03  0.00000000000E+00 0. -1.
          1   -1    0    0  501    0 -0.00000000000E+00 -0.00000000000E+00 -0.12962514327E+04  0.12962514327E+04  0.00000000000E+00 0. -1.
         25    2    1    2    0    0 -0.96192998412E+02 -0.81752251096E+02 -0.38433612594E+03  0.42340978376E+03  0.12500025513E+03 0.  0.
          2    1    1    2  501    0  0.14979720944E+02  0.56197421042E+02 -0.87428682096E+03  0.87621914352E+03  0.00000000000E+00 0. -1.
          1    1    1    2  502    0  0.81213277469E+02  0.25554830054E+02  0.88691088203E+02  0.12294207946E+03  0.00000000000E+00 0. -1.
         22    1    3    3    0    0  0.27524258664E+02 -0.18168176764E+02 -0.38778782241E+02  0.50906398557E+02  0.00000000000E+00 0. -1.
         22    1    3    3    0    0 -0.12371725708E+03 -0.63584074331E+02 -0.34555734370E+03  0.37250338521E+03  0.00000000000E+00 0. -1.
</event>
<event>
 7    1  0.5736319E-006  0.6283332E+02  0.7818608E-02  0.1446291E+00
          2   -1    0    0  502    0  0.00000000000E+00  0.00000000000E+00  0.99245246499E+03  0.99245246499E+03  0.00000000000E+00 0. -1.
          1   -1    0    0  501    0 -0.00000000000E+00 -0.00000000000E+00 -0.27678845364E+03  0.27678845364E+03  0.00000000000E+00 0. -1.
         25    2    1    2    0    0 -0.10666387958E+02 -0.56263274978E+02  0.39439604600E+02  0.14303732042E+03  0.12499945871E+03 0.  0.
          2    1    1    2  501    0 -0.36759926471E+02  0.14479716619E+02 -0.22213611041E+03  0.22562226383E+03  0.00000000000E+00 0. -1.
          1    1    1    2  502    0  0.47426314429E+02  0.41783558359E+02  0.89836051715E+03  0.90058133438E+03  0.00000000000E+00 0. -1.
         22    1    3    3    0    0  0.55921935347E+02 -0.21655529635E+02  0.31035552477E+02  0.67523553922E+02  0.00000000000E+00 0.  1.
         22    1    3    3    0    0 -0.66588323305E+02 -0.34607745343E+02  0.84040521233E+01  0.75513766496E+02  0.00000000000E+00 0.  1.
</event>
<event>
 7    1  0.5736319E-006  0.1539683E+03  0.7818608E-02  0.1312790E+00
          2   -1    0    0  502    0  0.00000000000E+00  0.00000000000E+00  0.76133752245E+03  0.76133752245E+03  0.00000000000E+00 0. -1.
          1   -1    0    0  501    0 -0.00000000000E+00 -0.00000000000E+00 -0.17555356197E+03  0.17555356197E+03  0.00000000000E+00 0. -1.
         25    2    1    2    0    0  0.15903556639E+03  0.58607137350E+02  0.20310196412E+03  0.29258027360E+03  0.12500280294E+03 0.  0.
          2    1    1    2  501    0 -0.15175856328E+03 -0.11104491437E+02 -0.84912706272E+02  0.17425308877E+03  0.00000000000E+00 0. -1.
          1    1    1    2  502    0 -0.72770031117E+01 -0.47502645912E+02  0.46759470262E+03  0.47005772205E+03  0.00000000000E+00 0. -1.
         22    1    3    3    0    0  0.14991498605E+03  0.41987256797E+02  0.94037532210E+02  0.18188042841E+03  0.00000000000E+00 0.  1.
         22    1    3    3    0    0  0.91205803404E+01  0.16619880553E+02  0.10906443191E+03  0.11069984518E+03  0.00000000000E+00 0.  1.
</event>
<event>
 7    1  0.5736319E-006  0.6319836E+02  0.7818608E-02  0.1510907E+00
          2   -1    0    0  502    0  0.00000000000E+00  0.00000000000E+00  0.10513567184E+04  0.10513567184E+04  0.00000000000E+00 0. -1.
          1   -1    0    0  501    0 -0.00000000000E+00 -0.00000000000E+00 -0.39508459970E+02  0.39508459970E+02  0.00000000000E+00 0. -1.
         25    2    1    2    0    0  0.50138433716E+02  0.49825191988E+01  0.31733269171E+03  0.34476664161E+03  0.12500124761E+03 0.  0.
          2    1    1    2  501    0 -0.63103885224E+02  0.16226906302E+02  0.15953768957E+02  0.67081559034E+02  0.00000000000E+00 0. -1.
          1    1    1    2  502    0  0.12965451508E+02 -0.21209425501E+02  0.67856179773E+03  0.67901697770E+03  0.00000000000E+00 0. -1.
         22    1    3    3    0    0  0.29115841515E+02 -0.84541928599E+01  0.41609300306E+01  0.30602596994E+02  0.00000000000E+00 0.  1.
         22    1    3    3    0    0  0.21022592200E+02  0.13436712059E+02  0.31317176168E+03  0.31416404461E+03  0.00000000000E+00 0.  1.
</event>
<event>
 7    1  0.5736319E-006  0.1052194E+03  0.7818608E-02  0.1386147E+00
          2   -1    0    0  502    0  0.00000000000E+00  0.00000000000E+00  0.12753816960E+04  0.12753816960E+04  0.00000000000E+00 0. -1.
          1   -1    0    0  501    0 -0.00000000000E+00 -0.00000000000E+00 -0.45164222400E+02  0.45164222400E+02  0.00000000000E+00 0. -1.
         25    2    1    2    0    0  0.45076498840E+02 -0.82046280728E+02  0.20891410430E+03  0.26082989320E+03  0.12499458900E+03 0.  0.
          2    1    1    2  501    0 -0.29074335809E+02 -0.23797622230E+02  0.51306408932E+01  0.37920539323E+02  0.00000000000E+00 0. -1.
          1    1    1    2  502    0 -0.16002163031E+02  0.10584390296E+03  0.10161727284E+04  0.10217954859E+04  0.00000000000E+00 0. -1.
         22    1    3    3    0    0  0.43474266619E+02 -0.71808388672E+02  0.42491499362E+02  0.94084983179E+02  0.00000000000E+00 0. -1.
         22    1    3    3    0    0  0.16022322210E+01 -0.10237892057E+02  0.16642260494E+03  0.16674491002E+03  0.00000000000E+00 0. -1.
</event>
<event>
 7    1  0.5736319E-006  0.1194175E+03  0.7818608E-02  0.1318020E+00
          2   -1    0    0  502    0  0.00000000000E+00  0.00000000000E+00  0.18224170362E+04  0.18224170362E+04  0.00000000000E+00 0. -1.
          1   -1    0    0  501    0 -0.00000000000E+00 -0.00000000000E+00 -0.40638584191E+03  0.40638584191E+03  0.00000000000E+00 0. -1.
         25    2    1    2    0    0 -0.56710648856E+02  0.45069682397E+02  0.25963511808E+03  0.29712514329E+03  0.12500232906E+03 0.  0.
          2    1    1    2  501    0  0.11530376639E+03 -0.37252245840E+02 -0.37758837800E+03  0.39655475229E+03  0.00000000000E+00 0. -1.
          1    1    1    2  502    0 -0.58593117531E+02 -0.78174365576E+01  0.15339844542E+04  0.15351229826E+04  0.00000000000E+00 0. -1.
         22    1    3    3    0    0 -0.23065848296E+02  0.63441986996E+02  0.49978275754E+02  0.83992542044E+02  0.00000000000E+00 0.  1.
         22    1    3    3    0    0 -0.33644800560E+02 -0.18372304599E+02  0.20965684232E+03  0.21313260125E+03  0.00000000000E+00 0.  1.
</event>
<event>
 7    1  0.5736319E-006  0.1012196E+03  0.7818608E-02  0.1436914E+00
          2   -1    0    0  502    0  0.00000000000E+00  0.00000000000E+00  0.96884550022E+02  0.96884550022E+02  0.00000000000E+00 0. -1.
          1   -1    0    0  501    0 -0.00000000000E+00 -0.00000000000E+00 -0.42356673052E+03  0.42356673052E+03  0.00000000000E+00 0. -1.
         25    2    1    2    0    0 -0.97443882057E+02 -0.65145087207E+01 -0.14290233747E+03  0.21350250338E+03  0.12499796766E+03 0.  0.
          2    1    1    2  501    0  0.95819394701E-01 -0.26301390643E+02 -0.20106189457E+03  0.20277489435E+03  0.00000000000E+00 0. -1.
          1    1    1    2  502    0  0.97348062663E+02  0.32815899364E+02  0.17282051540E+02  0.10417388281E+03  0.00000000000E+00 0. -1.
         22    1    3    3    0    0  0.23994882121E+02  0.23070147144E+02 -0.24458799956E+02  0.41306403287E+02  0.00000000000E+00 0.  1.
         22    1    3    3    0    0 -0.12143876418E+03 -0.29584655865E+02 -0.11844353751E+03  0.17219610009E+03  0.00000000000E+00 0.  1.
</event>
<event>
 7    1  0.5736319E-006  0.9653228E+02  0.7818608E-02  0.1445913E+00
          2   -1    0    0  502    0  0.00000000000E+00  0.00000000000E+00  0.13246429038E+03  0.13246429038E+03  0.00000000000E+00 0. -1.
          1   -1    0    0  501    0 -0.00000000000E+00 -0.00000000000E+00 -0.15672745140E+04  0.15672745140E+04  0.00000000000E+00 0. -1.
         25    2    1    2    0    0  0.96430384711E+02 -0.57157673449E+01 -0.41711244997E+02  0.16341529838E+03  0.12503296643E+03 0.  0.
          2    1    1    2  501    0 -0.94525338564E+02 -0.20002396320E+02 -0.14607406787E+04  0.14639325346E+04  0.00000000000E+00 0. -1.
          1    1    1    2  502    0 -0.19050461478E+01  0.25718163664E+02  0.67641700094E+02  0.72390971362E+02  0.00000000000E+00 0. -1.
         22    1    3    3    0    0  0.37751091030E+02  0.59377092420E+02 -0.19072451387E+02  0.72900907951E+02  0.00000000000E+00 0. -1.
         22    1    3    3    0    0  0.58679293681E+02 -0.65092859765E+02 -0.22638793610E+02  0.90514390433E+02  0.00000000000E+00 0. -1.
</event>
<event>
 7    1  0.8057273E-006  0.6797094E+02  0.7818608E-02  0.1389922E+00
          2   -1    0    0  502    0  0.00000000000E+00  0.00000000000E+00  0.20678490338E+04  0.20678490338E+04  0.00000000000E+00 0. -1.
          1   -1    0    0  501    0 -0.00000000000E+00 -0.00000000000E+00 -0.88597212746E+03  0.88597212746E+03  0.00000000000E+00 0. -1.
         25    2    1    2    0    0  0.30763083163E+02 -0.20025897244E+02 -0.49242334087E+02  0.13927288839E+03  0.12499890451E+03 0.  0.
          2    1    1    2  501    0  0.32236407353E+02  0.46302384780E+02 -0.79013252075E+03  0.79214424011E+03  0.00000000000E+00 0. -1.
          1    1    1    2  502    0 -0.62999490517E+02 -0.26276487536E+02  0.20212517612E+04  0.20224040328E+04  0.00000000000E+00 0. -1.
         22    1    3    3    0    0 -0.14432400497E+02  0.39628438428E+02 -0.48707616843E+02  0.64429335360E+02  0.00000000000E+00 0. -1.
         22    1    3    3    0    0  0.45195483660E+02 -0.59654335672E+02 -0.53471724414E+00  0.74843553031E+02  0.00000000000E+00 0. -1.
</event>
<event>
 7    1  0.5736319E-006  0.3792632E+02  0.7818608E-02  0.1524987E+00
          2   -1    0    0  502    0  0.00000000000E+00  0.00000000000E+00  0.26796011917E+04  0.26796011917E+04  0.00000000000E+00 0. -1.
          1   -1    0    0  501    0 -0.00000000000E+00 -0.00000000000E+00 -0.19859465065E+04  0.19859465065E+04  0.00000000000E+00 0. -1.
         25    2    1    2    0    0 -0.72913615138E+02 -0.83933594790E+01 -0.13158881243E+03  0.19577488991E+03  0.12500139282E+03 0.  0.
          2    1    1    2  501    0  0.37463745112E+02 -0.44094503940E+01 -0.18219352649E+04  0.18223257351E+04  0.00000000000E+00 0. -1.
          1    1    1    2  502    0  0.35449870027E+02  0.12802809873E+02  0.26471787624E+04  0.26474470732E+04  0.00000000000E+00 0. -1.
         22    1    3    3    0    0  0.16795272211E+02  0.25381753002E+02 -0.82800113482E+02  0.88216627382E+02  0.00000000000E+00 0.  1.
         22    1    3    3    0    0 -0.89708887349E+02 -0.33775112481E+02 -0.48788698943E+02  0.10755826252E+03  0.00000000000E+00 0.  1.
</event>
<event>
 7    1  0.5736319E-006  0.6762771E+02  0.7818608E-02  0.1458514E+00
          2   -1    0    0  502    0  0.00000000000E+00  0.00000000000E+00  0.25562931480E+04  0.25562931480E+04  0.00000000000E+00 0. -1.
          1   -1    0    0  501    0 -0.00000000000E+00 -0.00000000000E+00 -0.31020843933E+03  0.31020843933E+03  0.00000000000E+00 0. -1.
         25    2    1    2    0    0  0.12461996578E+01  0.42774843536E+02  0.24519835310E+03  0.27852874782E+03  0.12499916298E+03 0.  0.
          2    1    1    2  501    0  0.25437922297E+02 -0.63122591422E+02 -0.28947416129E+03  0.29736650702E+03  0.00000000000E+00 0. -1.
          1    1    1    2  502    0 -0.26684121955E+02  0.20347747886E+02  0.22903605168E+04  0.22906063325E+04  0.00000000000E+00 0. -1.
         22    1    3    3    0    0  0.48108464925E+02 -0.14858148269E+02  0.14711133223E+03  0.15548933416E+03  0.00000000000E+00 0.  1.
         22    1    3    3    0    0 -0.46862265267E+02  0.57632991804E+02  0.98087020876E+02  0.12303941366E+03  0.00000000000E+00 0.  1.
</event>
<event>
 7    1  0.5736319E-006  0.1090262E+03  0.7818608E-02  0.1288172E+00
          2   -1    0    0  502    0  0.00000000000E+00  0.00000000000E+00  0.33952724262E+03  0.33952724262E+03  0.00000000000E+00 0. -1.
          1   -1    0    0  501    0 -0.00000000000E+00 -0.00000000000E+00 -0.91934780453E+03  0.91934780453E+03  0.00000000000E+00 0. -1.
         25    2    1    2    0    0  0.16707420822E+03 -0.22693651083E+02 -0.17189097547E+03  0.27129344111E+03  0.12499932356E+03 0.  0.
          2    1    1    2  501    0 -0.88913496849E+02  0.56457545930E+02 -0.68740386978E+03  0.69542587283E+03  0.00000000000E+00 0. -1.
          1    1    1    2  502    0 -0.78160711370E+02 -0.33763894847E+02  0.27947428333E+03  0.29215573320E+03  0.00000000000E+00 0. -1.
         22    1    3    3    0    0 -0.12707976387E+02 -0.77836658225E+01 -0.53447423882E+02  0.55486081472E+02  0.00000000000E+00 0. -1.
         22    1    3    3    0    0  0.17978218461E+03 -0.14909985261E+02 -0.11844355158E+03  0.21580735964E+03  0.00000000000E+00 0. -1.
</event>
<event>
 7    1  0.5736319E-006  0.3304330E+02  0.7818608E-02  0.1570024E+00
          2   -1    0    0  502    0  0.00000000000E+00  0.00000000000E+00  0.20045900019E+03  0.20045900019E+03  0.00000000000E+00 0. -1.
          1   -1    0    0  501    0 -0.00000000000E+00 -0.00000000000E+00 -0.47135168416E+03  0.47135168416E+03  0.00000000000E+00 0. -1.
         25    2    1    2    0    0 -0.18342830156E+02  0.13033417888E+02 -0.30093502372E+03  0.32663932296E+03  0.12500011762E+03 0.  0.
          2    1    1    2  501    0  0.31368866323E+02  0.17334031546E+02 -0.15403617454E+03  0.15815061648E+03  0.00000000000E+00 0. -1.
          1    1    1    2  502    0 -0.13026036168E+02 -0.30367449433E+02  0.18407851429E+03  0.18702074491E+03  0.00000000000E+00 0. -1.
         22    1    3    3    0    0  0.18373900645E+02  0.55451034613E+02 -0.82319662853E+02  0.10094030095E+03  0.00000000000E+00 0.  1.
         22    1    3    3    0    0 -0.36716730800E+02 -0.42417616725E+02 -0.21861536086E+03  0.22569902201E+03  0.00000000000E+00 0.  1.
</event>
<event>
 7    1  0.5736319E-006  0.1115976E+03  0.7818608E-02  0.1416775E+00
          2   -1    0    0  502    0  0.00000000000E+00  0.00000000000E+00  0.21157354992E+04  0.21157354992E+04  0.00000000000E+00 0. -1.
          1   -1    0    0  501    0 -0.00000000000E+00 -0.00000000000E+00 -0.35888530429E+03  0.35888530429E+03  0.00000000000E+00 0. -1.
         25    2    1    2    0    0 -0.14323474730E+02 -0.10531625185E+03 -0.45013976285E+02  0.17014384820E+03  0.12500398468E+03 0.  0.
          2    1    1    2  501    0  0.27228642869E+02 -0.56550210717E+01 -0.24901203524E+03  0.25056011644E+03  0.00000000000E+00 0. -1.
          1    1    1    2  502    0 -0.12905168139E+02  0.11097127292E+03  0.20508762064E+04  0.20539168388E+04  0.00000000000E+00 0. -1.
         22    1    3    3    0    0  0.40655807377E+02 -0.55520494461E+02  0.19835076408E+02  0.71615991474E+02  0.00000000000E+00 0. -1.
         22    1    3    3    0    0 -0.54979282108E+02 -0.49795757391E+02 -0.64849052693E+02  0.98527856723E+02  0.00000000000E+00 0. -1.
</event>
<event>
 7    1  0.5736319E-006  0.2003853E+03  0.7818608E-02  0.1269940E+00
          2   -1    0    0  502    0  0.00000000000E+00  0.00000000000E+00  0.60312095973E+03  0.60312095973E+03  0.00000000000E+00 0. -1.
          1   -1    0    0  501    0 -0.00000000000E+00 -0.00000000000E+00 -0.73585016876E+03  0.73585016876E+03  0.00000000000E+00 0. -1.
         25    2    1    2    0    0 -0.12420265756E+03 -0.20905498590E+03 -0.11711309976E+03  0.29744108256E+03  0.12500172872E+03 0.  0.
          2    1    1    2  501    0  0.81624083272E+02  0.17405910851E+03 -0.50950880592E+03  0.54457165510E+03  0.00000000000E+00 0. -1.
          1    1    1    2  502    0  0.42578574291E+02  0.34995877392E+02  0.49389269665E+03  0.49695839084E+03  0.00000000000E+00 0. -1.
         22    1    3    3    0    0 -0.92927076462E+02 -0.21142425547E+03 -0.70888746406E+02  0.24157994889E+03  0.00000000000E+00 0.  1.
         22    1    3    3    0    0 -0.31275581100E+02  0.23692695694E+01 -0.46224353354E+02  0.55861133666E+02  0.00000000000E+00 0.  1.
</event>
<event>
 7    1  0.5736319E-006  0.8069253E+02  0.7818608E-02  0.1380493E+00
          2   -1    0    0  502    0  0.00000000000E+00  0.00000000000E+00  0.79980348989E+03  0.79980348989E+03  0.00000000000E+00 0. -1.
          1   -1    0    0  501    0 -0.00000000000E+00 -0.00000000000E+00 -0.24780447030E+03  0.24780447030E+03  0.00000000000E+00 0. -1.
         25    2    1    2    0    0 -0.84833348964E+02  0.90492121634E+02  0.77313985865E+01  0.17626536664E+03  0.12499673508E+03 0.  0.
          2    1    1    2  501    0  0.17295364494E+02 -0.48288629009E+02 -0.15720621900E+03  0.16536237969E+03  0.00000000000E+00 0. -1.
          1    1    1    2  502    0  0.67537984470E+02 -0.42203492624E+02  0.70147384000E+03  0.70598021385E+03  0.00000000000E+00 0. -1.
         22    1    3    3    0    0  0.31494129880E+02  0.84033118244E+01  0.92472054907E+01  0.33882247208E+02  0.00000000000E+00 0. -1.
         22    1    3    3    0    0 -0.11632747884E+03  0.82088809809E+02 -0.15158069042E+01  0.14238311944E+03  0.00000000000E+00 0. -1.
</event>
<event>
 7    1  0.5736319E-006  0.6299188E+02  0.7818608E-02  0.1393239E+00
          2   -1    0    0  502    0  0.00000000000E+00  0.00000000000E+00  0.23791243115E+04  0.23791243115E+04  0.00000000000E+00 0. -1.
          1   -1    0    0  501    0 -0.00000000000E+00 -0.00000000000E+00 -0.38938597695E+03  0.38938597695E+03  0.00000000000E+00 0. -1.
         25    2    1    2    0    0 -0.32986042102E+01  0.49802242230E+01  0.50362385653E+02  0.13489916481E+03  0.12500292538E+03 0.  0.
          2    1    1    2  501    0  0.51951267586E+02 -0.38849838826E+02 -0.34369862632E+03  0.34976705093E+03  0.00000000000E+00 0. -1.
          1    1    1    2  502    0 -0.48652663375E+02  0.33869614603E+02  0.22830745753E+04  0.22838440728E+04  0.00000000000E+00 0. -1.
         22    1    3    3    0    0  0.49037005464E+02  0.13796856468E+02  0.62324993806E+02  0.80494633400E+02  0.00000000000E+00 0.  1.
         22    1    3    3    0    0 -0.52335609674E+02 -0.88166322446E+01 -0.11962608153E+02  0.54404531410E+02  0.00000000000E+00 0.  1.
</event>
<event>
 7    1  0.5736319E-006  0.9269279E+02  0.7818608E-02  0.1463500E+00
          2   -1    0    0  502    0  0.00000000000E+00  0.00000000000E+00  0.14244996912E+03  0.14244996912E+03  0.00000000000E+00 0. -1.
          1   -1    0    0  501    0 -0.00000000000E+00 -0.00000000000E+00 -0.10418397496E+04  0.10418397496E+04  0.00000000000E+00 0. -1.
         25    2    1    2    0    0  0.74754719288E+02 -0.25905229107E+02  0.40406260478E+02  0.15335179999E+03  0.12499903889E+03 0.  0.
          2    1    1    2  501    0 -0.92473727031E+02  0.10296756994E+02 -0.97994896112E+03  0.98435632766E+03  0.00000000000E+00 0. -1.
          1    1    1    2  502    0  0.17719007743E+02  0.15608472113E+02  0.40152920113E+02  0.46581591114E+02  0.00000000000E+00 0. -1.
         22    1    3    3    0    0 -0.34238862375E+02  0.28908166576E+01  0.26453672540E+01  0.34462363319E+02  0.00000000000E+00 0.  1.
         22    1    3    3    0    0  0.10899358166E+03 -0.28796045764E+02  0.37760893224E+02  0.11888943667E+03  0.00000000000E+00 0.  1.
</event>
<event>
 7    1  0.5736319E-006  0.9053518E+02  0.7818608E-02  0.1313747E+00
          2   -1    0    0  502    0  0.00000000000E+00  0.00000000000E+00  0.25572084199E+04  0.25572084199E+04  0.00000000000E+00 0. -1.
          1   -1    0    0  501    0 -0.00000000000E+00 -0.00000000000E+00 -0.13846606796E+03  0.13846606796E+03  0.00000000000E+00 0. -1.
         25    2    1    2    0    0  0.96512859896E+02 -0.12233210441E+03  0.37826395219E+03  0.42777175807E+03  0.12500073434E+03 0.  0.
          2    1    1    2  501    0 -0.76547352022E+02  0.43806301330E+02 -0.95726591637E+02  0.13016170514E+03  0.00000000000E+00 0. -1.
          1    1    1    2  502    0 -0.19965507874E+02  0.78525803082E+02  0.21362049914E+04  0.21377410246E+04  0.00000000000E+00 0. -1.
         22    1    3    3    0    0 -0.15159247468E+02 -0.30668498284E+02  0.17549052034E+03  0.17879396606E+03  0.00000000000E+00 0. -1.
         22    1    3    3    0    0  0.11167210736E+03 -0.91663606128E+02  0.20277343185E+03  0.24897779202E+03  0.00000000000E+00 0. -1.
</event>
<event>
 7    1  0.5736319E-006  0.6035692E+02  0.7818608E-02  0.1448362E+00
          2   -1    0    0  502    0  0.00000000000E+00  0.00000000000E+00  0.43191660329E+03  0.43191660329E+03  0.00000000000E+00 0. -1.
          1   -1    0    0  501    0 -0.00000000000E+00 -0.00000000000E+00 -0.26441358863E+03  0.26441358863E+03  0.00000000000E+00 0. -1.
         25    2    1    2    0    0 -0.34199606987E+02 -0.16445750111E+02 -0.52003882936E+02  0.14060577840E+03  0.12500202104E+03 0.  0.
          2    1    1    2  501    0  0.30495432893E+02  0.56780841721E+02 -0.16081597197E+03  0.17325072079E+03  0.00000000000E+00 0. -1.
          1    1    1    2  502    0  0.37041740938E+01 -0.40335091611E+02  0.38032286956E+03  0.38247369273E+03  0.00000000000E+00 0. -1.
         22    1    3    3    0    0  0.24276705477E+02 -0.52711618984E+02 -0.71591237878E+01  0.58473295256E+02  0.00000000000E+00 0.  1.
         22    1    3    3    0    0 -0.58476312464E+02  0.36265868873E+02 -0.44844759148E+02  0.82132483145E+02  0.00000000000E+00 0.  1.
</event>
<event>
 7    1  0.5736319E-006  0.4775682E+02  0.7818608E-02  0.1481761E+00
          2   -1    0    0  502    0  0.00000000000E+00  0.00000000000E+00  0.11813312382E+04  0.11813312382E+04  0.00000000000E+00 0. -1.
          1   -1    0    0  501    0 -0.00000000000E+00 -0.00000000000E+00 -0.26028114845E+03  0.26028114845E+03  0.00000000000E+00 0. -1.
         25    2    1    2    0    0 -0.18087270561E+02 -0.12994148939E+02  0.22365026129E+03  0.25717883075E+03  0.12500205737E+03 0.  0.
          2    1    1    2  501    0 -0.15995765206E+01  0.48080045839E+02 -0.24070564036E+03  0.24546579141E+03  0.00000000000E+00 0. -1.
          1    1    1    2  502    0  0.19686847081E+02 -0.35085896900E+02  0.93810546884E+03  0.93896776450E+03  0.00000000000E+00 0. -1.
         22    1    3    3    0    0  0.15975864018E+02  0.13553168551E+02 -0.73302777684E+01  0.22195710871E+02  0.00000000000E+00 0.  1.
         22    1    3    3    0    0 -0.34063134579E+02 -0.26547317490E+02  0.23098053906E+03  0.23498311988E+03  0.00000000000E+00 0.  1.
</event>
<event>
 7    1  0.5736319E-006  0.2059780E+03  0.7818608E-02  0.1238498E+00
          2   -1    0    0  502    0  0.00000000000E+00  0.00000000000E+00  0.29095639917E+04  0.29095639917E+04  0.00000000000E+00 0. -1.
          1   -1    0    0  501    0 -0.00000000000E+00 -0.00000000000E+00 -0.37925823067E+03  0.37925823067E+03  0.00000000000E+00 0. -1.
         25    2    1    2    0    0  0.94867723287E+02  0.16024443534E+03  0.34874084795E+03  0.41463869808E+03  0.12500762753E+03 0.  0.
          2    1    1    2  501    0 -0.16208995121E+03 -0.13114915164E+03 -0.31433998317E+03  0.37720402606E+03  0.00000000000E+00 0. -1.
          1    1    1    2  502    0  0.67222227925E+02 -0.29095283703E+02  0.24959048962E+04  0.24969794982E+04  0.00000000000E+00 0. -1.
         22    1    3    3    0    0 -0.25019037738E+02  0.10356010945E+02  0.18911474625E+02  0.33027913717E+02  0.00000000000E+00 0.  1.
         22    1    3    3    0    0  0.11988676102E+03  0.14988842439E+03  0.32982937333E+03  0.38161078437E+03  0.00000000000E+00 0.  1.
</event>
<event>
 7    1  0.5736319E-006  0.1183337E+03  0.7818608E-02  0.1298009E+00
          2   -1    0    0  502    0  0.00000000000E+00  0.00000000000E+00  0.15988796132E+04  0.15988796132E+04  0.00000000000E+00 0. -1.
          1   -1    0    0  501    0 -0.00000000000E+00 -0.00000000000E+00 -0.87236624672E+03  0.87236624672E+03  0.00000000000E+00 0. -1.
         25    2    1    2    0    0  0.92409260731E+01  0.74651919439E+02  0.29986254071E+02  0.14893614768E+03  0.12499798743E+03 0.  0.
          2    1    1    2  501    0 -0.63490099948E+02  0.33040762640E+02 -0.80890031178E+03  0.81206058837E+03  0.00000000000E+00 0. -1.
          1    1    1    2  502    0  0.54249173875E+02 -0.10769268208E+03  0.15054274242E+04  0.15102491239E+04  0.00000000000E+00 0. -1.
         22    1    3    3    0    0 -0.51816571647E+02  0.54610404898E+02 -0.55804714323E+01  0.75487714774E+02  0.00000000000E+00 0. -1.
         22    1    3    3    0    0  0.61057497720E+02  0.20041514541E+02  0.35566725503E+02  0.73448432903E+02  0.00000000000E+00 0. -1.
</event>
<event>
 7    1  0.5736319E-006  0.1416945E+03  0.7818608E-02  0.1375998E+00
          2   -1    0    0  502    0  0.00000000000E+00  0.00000000000E+00  0.86781949600E+03  0.86781949600E+03  0.00000000000E+00 0. -1.
          1   -1    0    0  501    0 -0.00000000000E+00 -0.00000000000E+00 -0.43971821100E+04  0.43971821100E+04  0.00000000000E+00 0. -1.
         25    2    1    2    0    0  0.14136670911E+03  0.87188719553E+02 -0.13755674774E+03  0.24926787585E+03  0.12500478320E+03 0.  0.
          2    1    1    2  501    0 -0.11106298698E+03 -0.87189535655E+02 -0.42023008975E+04  0.42046723815E+04  0.00000000000E+00 0. -1.
          1    1    1    2  502    0 -0.30303722129E+02  0.81610203836E-03  0.81049503128E+03  0.81106134867E+03  0.00000000000E+00 0. -1.
         22    1    3    3    0    0  0.96517431704E+02  0.11261758296E+03 -0.69250816126E+02  0.16368876000E+03  0.00000000000E+00 0. -1.
         22    1    3    3    0    0  0.44849277403E+02 -0.25428863409E+02 -0.68305931609E+02  0.85579115857E+02  0.00000000000E+00 0. -1.
</event>
<event>
 7    1  0.5736319E-006  0.8911181E+02  0.7818608E-02  0.1372453E+00
          2   -1    0    0  502    0  0.00000000000E+00  0.00000000000E+00  0.13426985341E+04  0.13426985341E+04  0.00000000000E+00 0. -1.
          1   -1    0    0  501    0 -0.00000000000E+00 -0.00000000000E+00 -0.54988962007E+02  0.54988962007E+02  0.00000000000E+00 0. -1.
         25    2    1    2    0    0  0.30255199029E+02 -0.81315404335E+02  0.39595336571E+03  0.42418354602E+03  0.12500016340E+03 0.  0.
          2    1    1    2  501    0 -0.48940384841E+02 -0.81293230373E+01 -0.22654744023E+02  0.54538835597E+02  0.00000000000E+00 0. -1.
          1    1    1    2  502    0  0.18685185812E+02  0.89444727372E+02  0.91441095040E+03  0.91896511449E+03  0.00000000000E+00 0. -1.
         22    1    3    3    0    0  0.48325505646E+02  0.16193312641E+02  0.10338851685E+03  0.11526822323E+03  0.00000000000E+00 0.  1.
         22    1    3    3    0    0 -0.18070306616E+02 -0.97508716976E+02  0.29256484887E+03  0.30891532280E+03  0.00000000000E+00 0.  1.
</event>
<event>
 7    1  0.5736319E-006  0.5141256E+02  0.7818608E-02  0.1554057E+00
          2   -1    0    0  502    0  0.00000000000E+00  0.00000000000E+00  0.44870956098E+03  0.44870956098E+03  0.00000000000E+00 0. -1.
          1   -1    0    0  501    0 -0.00000000000E+00 -0.00000000000E+00 -0.44354081091E+02  0.44354081091E+02  0.00000000000E+00 0. -1.
         25    2    1    2    0    0 -0.16100559392E+01 -0.31801658855E+02  0.15952852371E+03  0.20515088280E+03  0.12499438807E+03 0.  0.
          2    1    1    2  501    0 -0.97254616671E+01 -0.20851210678E+02 -0.11686715663E+02  0.25805753512E+02  0.00000000000E+00 0. -1.
          1    1    1    2  502    0  0.11335517606E+02  0.52652869533E+02  0.25651367184E+03  0.26210700577E+03  0.00000000000E+00 0. -1.
         22    1    3    3    0    0 -0.22058956818E+02 -0.70055647491E+02  0.54320076913E+02  0.91351311305E+02  0.00000000000E+00 0.  1.
         22    1    3    3    0    0  0.20448900879E+02  0.38253988636E+02  0.10520844680E+03  0.11379957149E+03  0.00000000000E+00 0.  1.
</event>
<event>
 7    1  0.5736319E-006  0.5284252E+02  0.7818608E-02  0.1482302E+00
          2   -1    0    0  502    0  0.00000000000E+00  0.00000000000E+00  0.29403318459E+03  0.29403318459E+03  0.00000000000E+00 0. -1.
          1   -1    0    0  501    0 -0.00000000000E+00 -0.00000000000E+00 -0.18319926596E+03  0.18319926596E+03  0.00000000000E+00 0. -1.
         25    2    1    2    0    0  0.48874605747E+02  0.26298339748E+00 -0.30430717062E+02  0.13761959169E+03  0.12499730889E+03 0.  0.
          2    1    1    2  501    0 -0.88709545684E+01  0.35118290232E+02 -0.92755152871E+02  0.99576636456E+02  0.00000000000E+00 0. -1.
          1    1    1    2  502    0 -0.40003651178E+02 -0.35381273630E+02  0.23401978856E+03  0.24003622241E+03  0.00000000000E+00 0. -1.
         22    1    3    3    0    0 -0.76861226679E+01 -0.22767960181E+02  0.38589740960E+02  0.45460142981E+02  0.00000000000E+00 0. -1.
         22    1    3    3    0    0  0.56560728415E+02  0.23030943579E+02 -0.69020458022E+02  0.92159448709E+02  0.00000000000E+00 0. -1.
</event>
<event>
 7    1  0.5736319E-006  0.7824402E+02  0.7818608E-02  0.1380526E+00
          2   -1    0    0  502    0  0.00000000000E+00  0.00000000000E+00  0.34228641240E+03  0.34228641240E+03  0.00000000000E+00 0. -1.
          1   -1    0    0  501    0 -0.00000000000E+00 -0.00000000000E+00 -0.35281372609E+03  0.35281372609E+03  0.00000000000E+00 0. -1.
         25    2    1    2    0    0  0.55464170760E+02 -0.11397094979E+03 -0.10105841841E+03  0.20468967523E+03  0.12497762832E+03 0.  0.
          2    1    1    2  501    0 -0.34264294450E+02  0.40281603358E+02 -0.19122717436E+03  0.19840484283E+03  0.00000000000E+00 0. -1.
          1    1    1    2  502    0 -0.21199876311E+02  0.73689346434E+02  0.28175827908E+03  0.29200562043E+03  0.00000000000E+00 0. -1.
         22    1    3    3    0    0  0.44047705759E+02 -0.55177486336E+02  0.16722203866E+02  0.72556098869E+02  0.00000000000E+00 0. -1.
         22    1    3    3    0    0  0.11416465002E+02 -0.58793463456E+02 -0.11778062228E+03  0.13213357636E+03  0.00000000000E+00 0. -1.
</event>
<event>
 7    1  0.5736319E-006  0.7438896E+02  0.7818608E-02  0.1378054E+00
          2   -1    0    0  502    0  0.00000000000E+00  0.00000000000E+00  0.79475261434E+03  0.79475261434E+03  0.00000000000E+00 0. -1.
          1   -1    0    0  501    0 -0.00000000000E+00 -0.00000000000E+00 -0.17616738318E+03  0.17616738318E+03  0.00000000000E+00 0. -1.
         25    2    1    2    0    0 -0.31148938202E+02 -0.13109501275E+02 -0.14628844971E+02  0.13030512632E+03  0.12499322968E+03 0.  0.
          2    1    1    2  501    0  0.67345585669E+02  0.56827269467E+02 -0.83654788444E+02  0.12150263410E+03  0.00000000000E+00 0. -1.
          1    1    1    2  502    0 -0.36196647467E+02 -0.43717768192E+02  0.71686886458E+03  0.71911223710E+03  0.00000000000E+00 0. -1.
         22    1    3    3    0    0 -0.66548576062E+02 -0.44873878932E+02  0.90968216847E+00  0.80269580215E+02  0.00000000000E+00 0. -1.
         22    1    3    3    0    0  0.35399637859E+02  0.31764377657E+02 -0.15538527139E+02  0.50035546106E+02  0.00000000000E+00 0. -1.
</event>
<event>
 7    1  0.5736319E-006  0.6909211E+02  0.7818608E-02  0.1387084E+00
          2   -1    0    0  502    0  0.00000000000E+00  0.00000000000E+00  0.16940968143E+04  0.16940968143E+04  0.00000000000E+00 0. -1.
          1   -1    0    0  501    0 -0.00000000000E+00 -0.00000000000E+00 -0.28358751396E+04  0.28358751396E+04  0.00000000000E+00 0. -1.
         25    2    1    2    0    0  0.69721400690E+02  0.17520980937E+02 -0.43430012205E+01  0.14425178343E+03  0.12498662679E+03 0.  0.
          2    1    1    2  501    0 -0.57847703292E+02  0.38010424029E+02 -0.27606474307E+04  0.27615150526E+04  0.00000000000E+00 0. -1.
          1    1    1    2  502    0 -0.11873697398E+02 -0.55531404966E+02  0.16232121066E+04  0.16242051178E+04  0.00000000000E+00 0. -1.
         22    1    3    3    0    0  0.13020741698E+02 -0.19950968637E+02  0.51204647829E+02  0.56475630348E+02  0.00000000000E+00 0. -1.
         22    1    3    3    0    0  0.56700658992E+02  0.37471949574E+02 -0.55547649049E+02  0.87776153082E+02  0.00000000000E+00 0. -1.
</event>
<event>
 7    1  0.5736319E-006  0.4854481E+02  0.7818608E-02  0.1453776E+00
          2   -1    0    0  502    0  0.00000000000E+00  0.00000000000E+00  0.85671431876E+03  0.85671431876E+03  0.00000000000E+00 0. -1.
          1   -1    0    0  501    0 -0.00000000000E+00 -0.00000000000E+00 -0.40894066347E+02  0.40894066347E+02  0.00000000000E+00 0. -1.
         25    2    1    2    0    0  0.31688109084E+02 -0.33330639525E+02  0.65024841411E+03  0.66374946199E+03  0.12500112180E+03 0.  0.
          2    1    1    2  501    0 -0.41332867412E+02 -0.25171577039E+02 -0.92373488924E+01  0.49268071139E+02  0.00000000000E+00 0. -1.
          1    1    1    2  502    0  0.96447583281E+01  0.58502216565E+02  0.17480918720E+03  0.18459085198E+03  0.00000000000E+00 0. -1.
         22    1    3    3    0    0  0.24706398010E+02 -0.62837351775E+02  0.60804821574E+03  0.61178556010E+03  0.00000000000E+00 0.  1.
         22    1    3    3    0    0  0.69817110744E+01  0.29506712250E+02  0.42200198369E+02  0.51963901891E+02  0.00000000000E+00 0.  1.
</event>
<event>
 7    1  0.5736319E-006  0.8548065E+02  0.7818608E-02  0.1350201E+00
          2   -1    0    0  502    0  0.00000000000E+00  0.00000000000E+00  0.14932950030E+03  0.14932950030E+03  0.00000000000E+00 0. -1.
          1   -1    0    0  501    0 -0.00000000000E+00 -0.00000000000E+00 -0.21805347756E+03  0.21805347756E+03  0.00000000000E+00 0. -1.
         25    2    1    2    0    0 -0.36099262154E+02  0.30196707281E+02 -0.54523381252E+02  0.14426793424E+03  0.12500175954E+03 0.  0.
          2    1    1    2  501    0  0.67116871290E+01  0.61967256048E+02 -0.83442316510E+02  0.10415184948E+03  0.00000000000E+00 0. -1.
          1    1    1    2  502    0  0.29387575025E+02 -0.92163963329E+02  0.69241720499E+02  0.11896319414E+03  0.00000000000E+00 0. -1.
         22    1    3    3    0    0  0.32832987773E+02  0.51792437856E+02 -0.25894568652E+02  0.66565684785E+02  0.00000000000E+00 0.  1.
         22    1    3    3    0    0 -0.68932249927E+02 -0.21595730574E+02 -0.28628812600E+02  0.77702249452E+02  0.00000000000E+00 0.  1.
</event>
<event>
 7    1  0.5736319E-006  0.9147841E+02  0.7818608E-02  0.1455754E+00
          2   -1    0    0  502    0  0.00000000000E+00  0.00000000000E+00  0.11605496855E+04  0.11605496855E+04  0.00000000000E+00 0. -1.
          1   -1    0    0  501    0 -0.00000000000E+00 -0.00000000000E+00 -0.38794257105E+03  0.38794257105E+03  0.00000000000E+00 0. -1.
         25    2    1    2    0    0  0.78867736966E+02  0.24506425349E+02  0.19388821557E+03  0.24502797027E+03  0.12500152502E+03 0.  0.
          2    1    1    2  501    0 -0.77135301573E+02 -0.49759403347E+02 -0.35638570712E+03  0.36801715342E+03  0.00000000000E+00 0. -1.
          1    1    1    2  502    0 -0.17324353931E+01  0.25252977997E+02  0.93510460602E+03  0.93544713289E+03  0.00000000000E+00 0. -1.
         22    1    3    3    0    0  0.61578645199E+02 -0.16884683947E+01  0.14992609611E+02  0.63399990639E+02  0.00000000000E+00 0.  1.
         22    1    3    3    0    0  0.17289091767E+02  0.26194893744E+02  0.17889560596E+03  0.18162797963E+03  0.00000000000E+00 0.  1.
</event>
<event>
 7    1  0.5736319E-006  0.8553552E+02  0.7818608E-02  0.1352767E+00
          2   -1    0    0  502    0  0.00000000000E+00  0.00000000000E+00  0.62870573680E+02  0.62870573680E+02  0.00000000000E+00 0. -1.
          1   -1    0    0  501    0 -0.00000000000E+00 -0.00000000000E+00 -0.20870245130E+04  0.20870245130E+04  0.00000000000E+00 0. -1.
         25    2    1    2    0    0 -0.27469489531E+02  0.18524489662E+02 -0.39418350761E+03  0.41485546345E+03  0.12500675307E+03 0.  0.
          2    1    1    2  501    0  0.59475035941E+02 -0.70387768939E+02 -0.16631149148E+04  0.16656659142E+04  0.00000000000E+00 0. -1.
          1    1    1    2  502    0 -0.32005546411E+02  0.51863279277E+02  0.33144483118E+02  0.69373708994E+02  0.00000000000E+00 0. -1.
         22    1    3    3    0    0 -0.57082419132E+02 -0.34299686570E+02 -0.24393266582E+03  0.25285967754E+03  0.00000000000E+00 0.  1.
         22    1    3    3    0    0  0.29612929601E+02  0.52824176232E+02 -0.15025084179E+03  0.16199578591E+03  0.00000000000E+00 0.  1.
</event>
<event>
 7    1  0.5736319E-006  0.1068501E+03  0.7818608E-02  0.1397844E+00
          2   -1    0    0  502    0  0.00000000000E+00  0.00000000000E+00  0.37046528899E+02  0.37046528899E+02  0.00000000000E+00 0. -1.
          1   -1    0    0  501    0 -0.00000000000E+00 -0.00000000000E+00 -0.12617234740E+04  0.12617234740E+04  0.00000000000E+00 0. -1.
         25    2    1    2    0    0 -0.78397550651E+02 -0.59623748744E+02 -0.51343928813E+03  0.53753688866E+03  0.12499934684E+03 0.  0.
          2    1    1    2  501    0  0.64519167776E+02  0.90320931694E+02 -0.71828870519E+03  0.72681445893E+03  0.00000000000E+00 0. -1.
          1    1    1    2  502    0  0.13878382876E+02 -0.30697182950E+02  0.70510482176E+01  0.34418655309E+02  0.00000000000E+00 0. -1.
         22    1    3    3    0    0 -0.43010971909E+02  0.36172854961E+02 -0.20907961408E+03  0.21650104888E+03  0.00000000000E+00 0. -1.
         22    1    3    3    0    0 -0.35386578742E+02 -0.95796603705E+02 -0.30435967405E+03  0.32103583978E+03  0.00000000000E+00 0. -1.
</event>
<event>
 7    1  0.5736319E-006  0.6853400E+02  0.7818608E-02  0.1449670E+00
          2   -1    0    0  502    0  0.00000000000E+00  0.00000000000E+00  0.64065851218E+03  0.64065851218E+03  0.00000000000E+00 0. -1.
          1   -1    0    0  501    0 -0.00000000000E+00 -0.00000000000E+00 -0.11188073060E+04  0.11188073060E+04  0.00000000000E+00 0. -1.
         25    2    1    2    0    0  0.14021944963E+02  0.36774995216E+02  0.27101687937E+01  0.13107780583E+03  0.12500012381E+03 0.  0.
          2    1    1    2  501    0  0.31643847820E+02  0.15710785917E+02 -0.10522169933E+04  0.10528099367E+04  0.00000000000E+00 0. -1.
          1    1    1    2  502    0 -0.45665792783E+02 -0.52485781133E+02  0.57135803071E+03  0.57557807560E+03  0.00000000000E+00 0. -1.
         22    1    3    3    0    0  0.23978986855E+02  0.21200310368E+02  0.61565122396E+02  0.69388106084E+02  0.00000000000E+00 0. -1.
         22    1    3    3    0    0 -0.99570418925E+01  0.15574684849E+02 -0.58854953602E+02  0.61689699747E+02  0.00000000000E+00 0. -1.
</event>
<event>
 7    1  0.5736319E-006  0.9614883E+02  0.7818608E-02  0.1357568E+00
          2   -1    0    0  502    0  0.00000000000E+00  0.00000000000E+00  0.10948921384E+03  0.10948921384E+03  0.00000000000E+00 0. -1.
          1   -1    0    0  501    0 -0.00000000000E+00 -0.00000000000E+00 -0.42706769976E+03  0.42706769976E+03  0.00000000000E+00 0. -1.
         25    2    1    2    0    0 -0.47920654404E+02  0.34802924022E+02 -0.20417803936E+03  0.24661226430E+03  0.12498521717E+03 0.  0.
          2    1    1    2  501    0 -0.55295797908E+01  0.51763066876E+02 -0.16701791304E+03  0.17494277528E+03  0.00000000000E+00 0. -1.
          1    1    1    2  502    0  0.53450234195E+02 -0.86565990897E+02  0.53617466477E+02  0.11500187401E+03  0.00000000000E+00 0. -1.
         22    1    3    3    0    0 -0.19308503554E+01  0.74774666357E+02 -0.13569772944E+03  0.15494790314E+03  0.00000000000E+00 0. -1.
         22    1    3    3    0    0 -0.45989804049E+02 -0.39971742336E+02 -0.68480309914E+02  0.91664361164E+02  0.00000000000E+00 0. -1.
</event>
<event>
 7    1  0.5736319E-006  0.1962917E+03  0.7818608E-02  0.1364763E+00
          2   -1    0    0  502    0  0.00000000000E+00  0.00000000000E+00  0.42644511015E+03  0.42644511015E+03  0.00000000000E+00 0. -1.
          1   -1    0    0  501    0 -0.00000000000E+00 -0.00000000000E+00 -0.39890641179E+03  0.39890641179E+03  0.00000000000E+00 0. -1.
         25    2    1    2    0    0  0.18363161168E+03 -0.94548942498E+02 -0.19498900794E+03  0.31032953649E+03  0.12499454654E+03 0.  0.
          2    1    1    2  501    0 -0.14859288312E+01  0.23959581206E+02 -0.11909583909E+03  0.12149110422E+03  0.00000000000E+00 0. -1.
          1    1    1    2  502    0 -0.18214568285E+03  0.70589361292E+02  0.34162354540E+03  0.39353088123E+03  0.00000000000E+00 0. -1.
         22    1    3    3    0    0  0.11061446665E+03 -0.24804738847E+02 -0.30621847553E+02  0.11742458366E+03  0.00000000000E+00 0.  1.
         22    1    3    3    0    0  0.73017145030E+02 -0.69744203651E+02 -0.16436716039E+03  0.19290495283E+03  0.00000000000E+00 0.  1.
</event>
<event>
 7    1  0.5736319E-006  0.6201963E+02  0.7818608E-02  0.1429233E+00
          2   -1    0    0  502    0  0.00000000000E+00  0.00000000000E+00  0.58183842124E+03  0.58183842124E+03  0.00000000000E+00 0. -1.
          1   -1    0    0  501    0 -0.00000000000E+00 -0.00000000000E+00 -0.20246983466E+03  0.20246983466E+03  0.00000000000E+00 0. -1.
         25    2    1    2    0    0  0.21271583750E+02  0.93332841888E+02  0.40303904270E+03  0.43269932679E+03  0.12499895126E+03 0.  0.
          2    1    1    2  501    0  0.65527138243E+00 -0.45482847106E+02 -0.18052036608E+03  0.18616315783E+03  0.00000000000E+00 0. -1.
          1    1    1    2  502    0 -0.21926855132E+02 -0.47849994782E+02  0.15684990997E+03  0.16544577128E+03  0.00000000000E+00 0. -1.
         22    1    3    3    0    0 -0.43273324586E+02  0.50017092707E+02  0.10032241088E+03  0.12016187544E+03  0.00000000000E+00 0. -1.
         22    1    3    3    0    0  0.64544908336E+02  0.43315749181E+02  0.30271663181E+03  0.31253745135E+03  0.00000000000E+00 0. -1.
</event>
<event>
 7    1  0.5736319E-006  0.9530061E+02  0.7818608E-02  0.1299697E+00
          2   -1    0    0  502    0  0.00000000000E+00  0.00000000000E+00  0.15547631822E+04  0.15547631822E+04  0.00000000000E+00 0. -1.
          1   -1    0    0  501    0 -0.00000000000E+00 -0.00000000000E+00 -0.10691797713E+04  0.10691797713E+04  0.00000000000E+00 0. -1.
         25    2    1    2    0    0  0.35161353933E+02 -0.14267805531E+03  0.36162589879E+02  0.19628251296E+03  0.12500297479E+03 0.  0.
          2    1    1    2  501    0  0.33636600160E+02  0.88616694329E+02 -0.98551336998E+03  0.99006107983E+03  0.00000000000E+00 0. -1.
          1    1    1    2  502    0 -0.68797954093E+02  0.54061360984E+02  0.14349341911E+04  0.14375993607E+04  0.00000000000E+00 0. -1.
         22    1    3    3    0    0  0.17425374317E+02 -0.12973132620E+03  0.75588599753E+02  0.15115388543E+03  0.00000000000E+00 0.  1.
         22    1    3    3    0    0  0.17735979616E+02 -0.12946729108E+02 -0.39426009874E+02  0.45128627524E+02  0.00000000000E+00 0.  1.
</event>
<event>
 7    1  0.5736319E-006  0.4715292E+02  0.7818608E-02  0.1475889E+00
          2   -1    0    0  502    0  0.00000000000E+00  0.00000000000E+00  0.67903945158E+03  0.67903945158E+03  0.00000000000E+00 0. -1.
          1   -1    0    0  501    0 -0.00000000000E+00 -0.00000000000E+00 -0.62992026682E+03  0.62992026682E+03  0.00000000000E+00 0. -1.
         25    2    1    2    0    0 -0.71808986343E+02  0.52411355803E+02  0.37406990285E+01  0.15343511264E+03  0.12499944090E+03 0.  0.
          2    1    1    2  501    0  0.39380338433E+02 -0.24978701651E+02 -0.55333984362E+03  0.55530147589E+03  0.00000000000E+00 0. -1.
          1    1    1    2  502    0  0.32428647910E+02 -0.27432654152E+02  0.59871832936E+03  0.60022312987E+03  0.00000000000E+00 0. -1.
         22    1    3    3    0    0 -0.11706028520E+02  0.84606903927E+01 -0.56088152362E+02  0.57918004291E+02  0.00000000000E+00 0.  1.
         22    1    3    3    0    0 -0.60102957823E+02  0.43950665411E+02  0.59828851390E+02  0.95517108352E+02  0.00000000000E+00 0.  1.
</event>
<event>
 7    1  0.5736319E-006  0.5775990E+02  0.7818608E-02  0.1425122E+00
          2   -1    0    0  502    0  0.00000000000E+00  0.00000000000E+00  0.44280558003E+03  0.44280558003E+03  0.00000000000E+00 0. -1.
          1   -1    0    0  501    0 -0.00000000000E+00 -0.00000000000E+00 -0.77580111269E+03  0.77580111269E+03  0.00000000000E+00 0. -1.
         25    2    1    2    0    0 -0.40577092172E+02  0.29154664093E+02 -0.91078142886E+02  0.16253232736E+03  0.12500013791E+03 0.  0.
          2    1    1    2  501    0 -0.14424178687E+02 -0.48286434596E+02 -0.64592676939E+03  0.64788967279E+03  0.00000000000E+00 0. -1.
          1    1    1    2  502    0  0.55001270859E+02  0.19131770502E+02  0.40400937961E+03  0.40818469257E+03  0.00000000000E+00 0. -1.
         22    1    3    3    0    0  0.20245316499E+02  0.28859627063E+02  0.16521102568E+02  0.38931963018E+02  0.00000000000E+00 0. -1.
         22    1    3    3    0    0 -0.60822408671E+02  0.29503703008E+00 -0.10759924545E+03  0.12360036434E+03  0.00000000000E+00 0. -1.
</event>
<event>
 7    1  0.5736319E-006  0.5418064E+02  0.7818608E-02  0.1428932E+00
          2   -1    0    0  502    0  0.00000000000E+00  0.00000000000E+00  0.17967185253E+04  0.17967185253E+04  0.00000000000E+00 0. -1.
          1   -1    0    0  501    0 -0.00000000000E+00 -0.00000000000E+00 -0.68630352527E+03  0.68630352527E+03  0.00000000000E+00 0. -1.
         25    2    1    2    0    0 -0.89710710409E+02 -0.17621720531E+02  0.19950093060E+02  0.15614603409E+03  0.12500016461E+03 0.  0.
          2    1    1    2  501    0  0.50971881766E+02 -0.17348355033E+02 -0.61663364244E+03  0.61897992467E+03  0.00000000000E+00 0. -1.
          1    1    1    2  502    0  0.38738828643E+02  0.34970075564E+02  0.17070985494E+04  0.17078960918E+04  0.00000000000E+00 0. -1.
         22    1    3    3    0    0  0.50262115437E+01 -0.41766477518E+02 -0.24574134700E+02  0.48719498592E+02  0.00000000000E+00 0. -1.
         22    1    3    3    0    0 -0.94736921953E+02  0.24144756987E+02  0.44524227760E+02  0.10742653550E+03  0.00000000000E+00 0. -1.
</event>
<event>
 7    1  0.5736319E-006  0.1282521E+03  0.7818608E-02  0.1281315E+00
          2   -1    0    0  502    0  0.00000000000E+00  0.00000000000E+00  0.32059440454E+03  0.32059440454E+03  0.00000000000E+00 0. -1.
          1   -1    0    0  501    0 -0.00000000000E+00 -0.00000000000E+00 -0.28147330702E+03  0.28147330702E+03  0.00000000000E+00 0. -1.
         25    2    1    2    0    0  0.17861096622E+03  0.65010119530E+02  0.42578278528E+02  0.23144571523E+03  0.12500406555E+03 0.  0.
          2    1    1    2  501    0 -0.10140477618E+03 -0.63551965459E+02 -0.15779570958E+03  0.19804359851E+03  0.00000000000E+00 0. -1.
          1    1    1    2  502    0 -0.77206190034E+02 -0.14581540712E+01  0.15433852857E+03  0.17257839782E+03  0.00000000000E+00 0. -1.
         22    1    3    3    0    0  0.17195582527E+03  0.21053412404E+02  0.51267859266E+01  0.17331571179E+03  0.00000000000E+00 0. -1.
         22    1    3    3    0    0  0.66551409448E+01  0.43956707126E+02  0.37451492602E+02  0.58130003445E+02  0.00000000000E+00 0. -1.
</event>
<event>
 7    1  0.5736319E-006  0.9716050E+02  0.7818608E-02  0.1424571E+00
          2   -1    0    0  502    0  0.00000000000E+00  0.00000000000E+00  0.17212582977E+02  0.17212582977E+02  0.00000000000E+00 0. -1.
          1   -1    0    0  501    0 -0.00000000000E+00 -0.00000000000E+00 -0.29603302110E+04  0.29603302110E+04  0.00000000000E+00 0. -1.
         25    2    1    2    0    0  0.73096449933E+02 -0.47122156580E+02 -0.97197964834E+03  0.98383607287E+03  0.12500157141E+03 0.  0.
          2    1    1    2  501    0  0.23146423801E+02  0.19218591598E+02 -0.17572656285E+04  0.17575231436E+04  0.00000000000E+00 0. -1.
          1    1    1    2  502    0 -0.96242873734E+02  0.27903564981E+02 -0.21387235121E+03  0.23618357753E+03  0.00000000000E+00 0. -1.
         22    1    3    3    0    0 -0.17258272839E+02  0.27062552607E+02 -0.13687025648E+03  0.14058341597E+03  0.00000000000E+00 0.  1.
         22    1    3    3    0    0  0.90354722772E+02 -0.74184709187E+02 -0.83510939185E+03  0.84325265690E+03  0.00000000000E+00 0.  1.
</event>
<event>
 7    1  0.5736319E-006  0.6127992E+02  0.7818608E-02  0.1446264E+00
          2   -1    0    0  502    0  0.00000000000E+00  0.00000000000E+00  0.74771872589E+03  0.74771872589E+03  0.00000000000E+00 0. -1.
          1   -1    0    0  501    0 -0.00000000000E+00 -0.00000000000E+00 -0.49049727765E+03  0.49049727765E+03  0.00000000000E+00 0. -1.
         25    2    1    2    0    0  0.52901275216E+02  0.23289621408E+02  0.22353034089E+03  0.26254685615E+03  0.12499634790E+03 0.  0.
          2    1    1    2  501    0 -0.24124531657E+02  0.32553838550E+02 -0.46815555343E+03  0.46990570079E+03  0.00000000000E+00 0. -1.
          1    1    1    2  502    0 -0.28776743559E+02 -0.55843459958E+02  0.50184666078E+03  0.50576344660E+03  0.00000000000E+00 0. -1.
         22    1    3    3    0    0  0.76819102652E+02  0.18235628372E+02  0.65355695742E+02  0.10249429077E+03  0.00000000000E+00 0. -1.
         22    1    3    3    0    0 -0.23917827436E+02  0.50539930356E+01  0.15817464515E+03  0.16005256538E+03  0.00000000000E+00 0. -1.
</event>
<event>
 7    1  0.5967998E-006  0.6213602E+02  0.7818608E-02  0.1440368E+00
          2   -1    0    0  502    0  0.00000000000E+00  0.00000000000E+00  0.71892527648E+03  0.71892527648E+03  0.00000000000E+00 0. -1.
          1   -1    0    0  501    0 -0.00000000000E+00 -0.00000000000E+00 -0.73610849863E+03  0.73610849863E+03  0.00000000000E+00 0. -1.
         25    2    1    2    0    0 -0.21546697846E+02  0.36167163020E+02 -0.18590602024E+03  0.22794630024E+03  0.12500457416E+03 0.  0.
          2    1    1    2  501    0  0.33412285902E+02  0.25035988904E+02 -0.52696274398E+03  0.52861414580E+03  0.00000000000E+00 0. -1.
          1    1    1    2  502    0 -0.11865588055E+02 -0.61203151924E+02  0.69568554207E+03  0.69847332908E+03  0.00000000000E+00 0. -1.
         22    1    3    3    0    0 -0.28216304098E+01 -0.25483521611E+02  0.52955401647E+01  0.26180416679E+02  0.00000000000E+00 0. -1.
         22    1    3    3    0    0 -0.18725067437E+02  0.61650684631E+02 -0.19120156041E+03  0.20176588356E+03  0.00000000000E+00 0. -1.
</event>
<event>
 7    1  0.5736319E-006  0.7135524E+02  0.7818608E-02  0.1395278E+00
          2   -1    0    0  502    0  0.00000000000E+00  0.00000000000E+00  0.34974367207E+04  0.34974367207E+04  0.00000000000E+00 0. -1.
          1   -1    0    0  501    0 -0.00000000000E+00 -0.00000000000E+00 -0.75274157157E+02  0.75274157157E+02  0.00000000000E+00 0. -1.
         25    2    1    2    0    0  0.30826044019E+02  0.41966743394E+01  0.20289570303E+03  0.24033249773E+03  0.12500074436E+03 0.  0.
          2    1    1    2  501    0  0.31741600811E+02 -0.40539516593E+02 -0.44352634192E+02  0.67956881825E+02  0.00000000000E+00 0. -1.
          1    1    1    2  502    0 -0.62567644830E+02  0.36342842254E+02  0.32636194947E+04  0.32644214983E+04  0.00000000000E+00 0. -1.
         22    1    3    3    0    0  0.63442507954E+02  0.19234072462E+02  0.49359573846E+02  0.82651490545E+02  0.00000000000E+00 0.  1.
         22    1    3    3    0    0 -0.32616463935E+02 -0.15037398122E+02  0.15353612918E+03  0.15768100718E+03  0.00000000000E+00 0.  1.
</event>
<event>
 7    1  0.5736319E-006  0.6032462E+02  0.7818608E-02  0.1411954E+00
          2   -1    0    0  502    0  0.00000000000E+00  0.00000000000E+00  0.23282198125E+04  0.23282198125E+04  0.00000000000E+00 0. -1.
          1   -1    0    0  501    0 -0.00000000000E+00 -0.00000000000E+00 -0.87806674441E+02  0.87806674441E+02  0.00000000000E+00 0. -1.
         25    2    1    2    0    0 -0.73882643749E+02  0.76823754429E+02  0.36031557219E+03  0.39599694730E+03  0.12500294563E+03 0.  0.
          2    1    1    2  501    0  0.47946677486E+02 -0.23522723833E+02 -0.59255368187E+02  0.79770928774E+02  0.00000000000E+00 0. -1.
          1    1    1    2  502    0  0.25935966263E+02 -0.53301030596E+02  0.19393529341E+04  0.19402586109E+04  0.00000000000E+00 0. -1.
         22    1    3    3    0    0 -0.10661794892E+03  0.73766579676E+02  0.30843527588E+03  0.33457617177E+03  0.00000000000E+00 0.  1.
         22    1    3    3    0    0  0.32735305166E+02  0.30571747528E+01  0.51880296307E+02  0.61420775530E+02  0.00000000000E+00 0.  1.
</event>
<event>
 7    1  0.5736319E-006  0.1229620E+03  0.7818608E-02  0.1331011E+00
          2   -1    0    0  502    0  0.00000000000E+00  0.00000000000E+00  0.87853848787E+02  0.87853848787E+02  0.00000000000E+00 0. -1.
          1   -1    0    0  501    0 -0.00000000000E+00 -0.00000000000E+00 -0.11391960132E+04  0.11391960132E+04  0.00000000000E+00 0. -1.
         25    2    1    2    0    0  0.12536077886E+03  0.83866751895E+02 -0.84679317384E+03  0.86915629820E+03  0.12500013799E+03 0.  0.
          2    1    1    2  501    0 -0.80190408135E+02 -0.59848304703E+02 -0.26230235831E+03  0.28073982316E+03  0.00000000000E+00 0. -1.
          1    1    1    2  502    0 -0.45170370729E+02 -0.24018447192E+02  0.57753367773E+02  0.77153740586E+02  0.00000000000E+00 0. -1.
         22    1    3    3    0    0  0.45757532061E+02  0.35387836677E+02 -0.92299937591E+02  0.10892809190E+03  0.00000000000E+00 0. -1.
         22    1    3    3    0    0  0.79603246803E+02  0.48478915218E+02 -0.75449323625E+03  0.76022820631E+03  0.00000000000E+00 0. -1.
</event>
<event>
 7    1  0.5736319E-006  0.8262716E+02  0.7818608E-02  0.1417226E+00
          2   -1    0    0  502    0  0.00000000000E+00  0.00000000000E+00  0.16277461192E+04  0.16277461192E+04  0.00000000000E+00 0. -1.
          1   -1    0    0  501    0 -0.00000000000E+00 -0.00000000000E+00 -0.25952261470E+03  0.25952261470E+03  0.00000000000E+00 0. -1.
         25    2    1    2    0    0 -0.52081017909E+02  0.56633805321E+02  0.46118372211E+03  0.48397882332E+03  0.12500102218E+03 0.  0.
          2    1    1    2  501    0  0.77520300997E+02 -0.29178092057E+02 -0.24089892973E+03  0.25474114797E+03  0.00000000000E+00 0. -1.
          1    1    1    2  502    0 -0.25439283088E+02 -0.27455713264E+02  0.11479387121E+04  0.11485487626E+04  0.00000000000E+00 0. -1.
         22    1    3    3    0    0  0.30645527819E+02 -0.17493871619E+02  0.12745323071E+03  0.13224791090E+03  0.00000000000E+00 0. -1.
         22    1    3    3    0    0 -0.82726545728E+02  0.74127676940E+02  0.33373049140E+03  0.35173091242E+03  0.00000000000E+00 0. -1.
</event>
<event>
 7    1  0.5736319E-006  0.1185664E+03  0.7818608E-02  0.1253233E+00
          2   -1    0    0  502    0  0.00000000000E+00  0.00000000000E+00  0.13543200600E+04  0.13543200600E+04  0.00000000000E+00 0. -1.
          1   -1    0    0  501    0 -0.00000000000E+00 -0.00000000000E+00 -0.19848091741E+03  0.19848091741E+03  0.00000000000E+00 0. -1.
         25    2    1    2    0    0 -0.55248694780E+02  0.48660175831E+02  0.27350535706E+03  0.30959704507E+03  0.12499967594E+03 0.  0.
          2    1    1    2  501    0  0.94999079736E+02  0.70944888879E+02 -0.15672909339E+03  0.19652483589E+03  0.00000000000E+00 0. -1.
          1    1    1    2  502    0 -0.39750384956E+02 -0.11960506471E+03  0.10390628790E+04  0.10466790965E+04  0.00000000000E+00 0. -1.
         22    1    3    3    0    0  0.10994318497E+02  0.73184506534E+02  0.15178109575E+03  0.16886192011E+03  0.00000000000E+00 0. -1.
         22    1    3    3    0    0 -0.66243013277E+02 -0.24524330702E+02  0.12172426131E+03  0.14073512495E+03  0.00000000000E+00 0. -1.
</event>
<event>
 7    1  0.5736319E-006  0.2091321E+03  0.7818608E-02  0.1370234E+00
          2   -1    0    0  502    0  0.00000000000E+00  0.00000000000E+00  0.80685927502E+03  0.80685927502E+03  0.00000000000E+00 0. -1.
          1   -1    0    0  501    0 -0.00000000000E+00 -0.00000000000E+00 -0.13833593075E+04  0.13833593075E+04  0.00000000000E+00 0. -1.
         25    2    1    2    0    0 -0.10810808716E+03  0.17726509137E+03  0.86383355193E+02  0.25728844428E+03  0.12499995353E+03 0.  0.
          2    1    1    2  501    0 -0.18826612524E+02 -0.10445933070E+02 -0.12805148123E+04  0.12806958044E+04  0.00000000000E+00 0. -1.
          1    1    1    2  502    0  0.12693469968E+03 -0.16681915830E+03  0.61763142463E+03  0.65223433384E+03  0.00000000000E+00 0. -1.
         22    1    3    3    0    0 -0.11368143743E+03  0.19287555181E+03  0.88161614481E+02  0.24061778399E+03  0.00000000000E+00 0. -1.
         22    1    3    3    0    0  0.55733502729E+01 -0.15610460447E+02 -0.17782592880E+01  0.16670660297E+02  0.00000000000E+00 0. -1.
</event>
<event>
 7    1  0.5736319E-006  0.1015599E+03  0.7818608E-02  0.1362064E+00
          2   -1    0    0  502    0  0.00000000000E+00  0.00000000000E+00  0.12309371998E+03  0.12309371998E+03  0.00000000000E+00 0. -1.
          1   -1    0    0  501    0 -0.00000000000E+00 -0.00000000000E+00 -0.50816266112E+03  0.50816266112E+03  0.00000000000E+00 0. -1.
         25    2    1    2    0    0 -0.10662741463E+03 -0.36787350433E+02 -0.20529951513E+03  0.26550722152E+03  0.12499391611E+03 0.  0.
          2    1    1    2  501    0  0.99955626327E+02 -0.10197375167E+02 -0.25652946343E+03  0.27550404589E+03  0.00000000000E+00 0. -1.
          1    1    1    2  502    0  0.66717883056E+01  0.46984725601E+02  0.76760037419E+02  0.90245113682E+02  0.00000000000E+00 0. -1.
         22    1    3    3    0    0  0.15225499823E+02 -0.41653517316E+02 -0.74308987509E+02  0.86537026609E+02  0.00000000000E+00 0.  1.
         22    1    3    3    0    0 -0.12185291446E+03  0.48661668828E+01 -0.13099052762E+03  0.17897019492E+03  0.00000000000E+00 0.  1.
</event>
<event>
 7    1  0.5736319E-006  0.1233060E+03  0.7818608E-02  0.1415110E+00
          2   -1    0    0  502    0  0.00000000000E+00  0.00000000000E+00  0.49222551226E+03  0.49222551226E+03  0.00000000000E+00 0. -1.
          1   -1    0    0  501    0 -0.00000000000E+00 -0.00000000000E+00 -0.64577158969E+03  0.64577158969E+03  0.00000000000E+00 0. -1.
         25    2    1    2    0    0 -0.10783070232E+03 -0.77474204772E+02  0.83989682712E+02  0.20077205075E+03  0.12500174715E+03 0.  0.
          2    1    1    2  501    0  0.11133621663E+03  0.52221009400E+02 -0.58046546307E+03  0.59334891992E+03  0.00000000000E+00 0. -1.
          1    1    1    2  502    0 -0.35055143076E+01  0.25253195371E+02  0.34292970294E+03  0.34387613128E+03  0.00000000000E+00 0. -1.
         22    1    3    3    0    0 -0.26857640039E+02  0.29063108004E+02  0.47982673367E+02  0.62195932494E+02  0.00000000000E+00 0.  1.
         22    1    3    3    0    0 -0.80973062280E+02 -0.10653731278E+03  0.36007009344E+02  0.13857611825E+03  0.00000000000E+00 0.  1.
</event>
<event>
 7    1  0.5736319E-006  0.6988125E+02  0.7818608E-02  0.1509931E+00
          2   -1    0    0  502    0  0.00000000000E+00  0.00000000000E+00  0.24197207674E+04  0.24197207674E+04  0.00000000000E+00 0. -1.
          1   -1    0    0  501    0 -0.00000000000E+00 -0.00000000000E+00 -0.10564158897E+04  0.10564158897E+04  0.00000000000E+00 0. -1.
         25    2    1    2    0    0 -0.28555527166E+02  0.39370589321E+02  0.16036779671E+03  0.20906561396E+03  0.12500055713E+03 0.  0.
          2    1    1    2  501    0 -0.63931436035E+01  0.21708503181E+02 -0.10313889076E+04  0.10316371504E+04  0.00000000000E+00 0. -1.
          1    1    1    2  502    0  0.34948670769E+02 -0.61079092502E+02  0.22343259886E+04  0.22354338927E+04  0.00000000000E+00 0. -1.
         22    1    3    3    0    0  0.21291450545E+02  0.29856231407E+02  0.15354375809E+03  0.15786198424E+03  0.00000000000E+00 0. -1.
         22    1    3    3    0    0 -0.49846977711E+02  0.95143579142E+01  0.68240386211E+01  0.51203629720E+02  0.00000000000E+00 0. -1.
</event>
<event>
 7    1  0.5736319E-006  0.8207957E+02  0.7818608E-02  0.1481964E+00
          2   -1    0    0  502    0  0.00000000000E+00  0.00000000000E+00  0.27642045397E+04  0.27642045397E+04  0.00000000000E+00 0. -1.
          1   -1    0    0  501    0 -0.00000000000E+00 -0.00000000000E+00 -0.22174649882E+03  0.22174649882E+03  0.00000000000E+00 0. -1.
         25    2    1    2    0    0  0.10087000533E+02 -0.62778875467E+02  0.40659789196E+03  0.43010473657E+03  0.12500121553E+03 0.  0.
          2    1    1    2  501    0 -0.11205072989E+02 -0.20514044011E+02 -0.20860060569E+03  0.20990615130E+03  0.00000000000E+00 0. -1.
          1    1    1    2  502    0  0.11180724561E+01  0.83292919478E+02  0.23444607547E+04  0.23459401507E+04  0.00000000000E+00 0. -1.
         22    1    3    3    0    0 -0.22102252127E+02 -0.17717890980E+02  0.10587498098E+02  0.30241169386E+02  0.00000000000E+00 0. -1.
         22    1    3    3    0    0  0.32189252660E+02 -0.45060984486E+02  0.39601039386E+03  0.39986356718E+03  0.00000000000E+00 0. -1.
</event>
<event>
 7    1  0.5736319E-006  0.7540494E+02  0.7818608E-02  0.1347235E+00
          2   -1    0    0  502    0  0.00000000000E+00  0.00000000000E+00  0.18898699129E+03  0.18898699129E+03  0.00000000000E+00 0. -1.
          1   -1    0    0  501    0 -0.00000000000E+00 -0.00000000000E+00 -0.21718280407E+03  0.21718280407E+03  0.00000000000E+00 0. -1.
         25    2    1    2    0    0 -0.13584456112E+02 -0.60361234213E+01  0.73892082811E+01  0.12609498156E+03  0.12499748694E+03 0.  0.
          2    1    1    2  501    0  0.76080247144E+02  0.42732124605E+02 -0.13274860824E+03  0.15885978556E+03  0.00000000000E+00 0. -1.
          1    1    1    2  502    0 -0.62495791032E+02 -0.36696001184E+02  0.97163587178E+02  0.12121502825E+03  0.00000000000E+00 0. -1.
         22    1    3    3    0    0  0.86431246416E+01  0.20650615159E+02 -0.52382374597E+02  0.56965469175E+02  0.00000000000E+00 0. -1.
         22    1    3    3    0    0 -0.22227580754E+02 -0.26686738580E+02  0.59771582878E+02  0.69129512380E+02  0.00000000000E+00 0. -1.
</event>
<event>
 7    1  0.1242055E-005  0.8243952E+02  0.7818608E-02  0.1352653E+00
          2   -1    0    0  502    0  0.00000000000E+00  0.00000000000E+00  0.20793446574E+04  0.20793446574E+04  0.00000000000E+00 0. -1.
          1   -1    0    0  501    0 -0.00000000000E+00 -0.00000000000E+00 -0.89517292538E+03  0.89517292538E+03  0.00000000000E+00 0. -1.
         25    2    1    2    0    0 -0.35042376098E+02  0.10105915438E+03 -0.30423194998E+03  0.34586585254E+03  0.12500075103E+03 0.  0.
          2    1    1    2  501    0  0.66966664129E+02 -0.46406330013E+02 -0.56672351518E+03  0.57255010631E+03  0.00000000000E+00 0. -1.
          1    1    1    2  502    0 -0.31924288030E+02 -0.54652824371E+02  0.20551271972E+04  0.20561016239E+04  0.00000000000E+00 0. -1.
         22    1    3    3    0    0  0.31791521113E+02  0.91647226283E+02 -0.17676493683E+03  0.20163272997E+03  0.00000000000E+00 0.  1.
         22    1    3    3    0    0 -0.66833897212E+02  0.94119281006E+01 -0.12746701314E+03  0.14423312257E+03  0.00000000000E+00 0.  1.
</event>
<event>
 7    1  0.5736319E-006  0.1115403E+03  0.7818608E-02  0.1334853E+00
          2   -1    0    0  502    0  0.00000000000E+00  0.00000000000E+00  0.11880347351E+03  0.11880347351E+03  0.00000000000E+00 0. -1.
          1   -1    0    0  501    0 -0.00000000000E+00 -0.00000000000E+00 -0.61147723002E+03  0.61147723002E+03  0.00000000000E+00 0. -1.
         25    2    1    2    0    0  0.15977769082E+03  0.18092758266E+02 -0.32555859640E+03  0.38401825260E+03  0.12500144102E+03 0.  0.
          2    1    1    2  501    0 -0.54523625040E+02  0.96067931355E+00 -0.22019830014E+03  0.22685025893E+03  0.00000000000E+00 0. -1.
          1    1    1    2  502    0 -0.10525406578E+03 -0.19053437579E+02  0.53083140022E+02  0.11941219201E+03  0.00000000000E+00 0. -1.
         22    1    3    3    0    0  0.13861194897E+02 -0.39794895626E+02 -0.39712126116E+02  0.57903535320E+02  0.00000000000E+00 0.  1.
         22    1    3    3    0    0  0.14591649592E+03  0.57887653892E+02 -0.28584647028E+03  0.32611471728E+03  0.00000000000E+00 0.  1.
</event>
<event>
 7    1  0.5736319E-006  0.1294883E+03  0.7818608E-02  0.1408090E+00
          2   -1    0    0  502    0  0.00000000000E+00  0.00000000000E+00  0.10301816233E+04  0.10301816233E+04  0.00000000000E+00 0. -1.
          1   -1    0    0  501    0 -0.00000000000E+00 -0.00000000000E+00 -0.20897702328E+04  0.20897702328E+04  0.00000000000E+00 0. -1.
         25    2    1    2    0    0  0.85460751998E+02 -0.91665255333E+02  0.36085154340E+03  0.40192670525E+03  0.12500072340E+03 0.  0.
          2    1    1    2  501    0 -0.10530022912E+03  0.75420100827E+02 -0.20669513715E+04  0.20710056258E+04  0.00000000000E+00 0. -1.
          1    1    1    2  502    0  0.19839477123E+02  0.16245154506E+02  0.64651121865E+03  0.64701952500E+03  0.00000000000E+00 0. -1.
         22    1    3    3    0    0 -0.23853075098E+02 -0.56424047137E+02  0.10685134001E+03  0.12316594964E+03  0.00000000000E+00 0. -1.
         22    1    3    3    0    0  0.10931382710E+03 -0.35241208197E+02  0.25400020338E+03  0.27876075561E+03  0.00000000000E+00 0. -1.
</event>
<event>
 7    1  0.5736319E-006  0.1735379E+03  0.7818608E-02  0.1265533E+00
          2   -1    0    0  502    0  0.00000000000E+00  0.00000000000E+00  0.14795905388E+04  0.14795905388E+04  0.00000000000E+00 0. -1.
          1   -1    0    0  501    0 -0.00000000000E+00 -0.00000000000E+00 -0.19205009120E+04  0.19205009120E+04  0.00000000000E+00 0. -1.
         25    2    1    2    0    0  0.99564791816E+02 -0.46889710534E+02 -0.16943598955E+03  0.23758108304E+03  0.12499769495E+03 0.  0.
          2    1    1    2  501    0  0.65195780567E+02 -0.12704410756E+02 -0.17110365440E+04  0.17123253040E+04  0.00000000000E+00 0. -1.
          1    1    1    2  502    0 -0.16476057238E+03  0.59594121290E+02  0.14395621604E+04  0.14501850638E+04  0.00000000000E+00 0. -1.
         22    1    3    3    0    0  0.12811264243E+03 -0.38409931017E+02 -0.15422413753E+03  0.20414028644E+03  0.00000000000E+00 0.  1.
         22    1    3    3    0    0 -0.28547850618E+02 -0.84797795169E+01 -0.15211852016E+02  0.33440796601E+02  0.00000000000E+00 0.  1.
</event>
<event>
 7    1  0.5736319E-006  0.1709688E+03  0.7818608E-02  0.1196586E+00
          2   -1    0    0  502    0  0.00000000000E+00  0.00000000000E+00  0.17283873941E+04  0.17283873941E+04  0.00000000000E+00 0. -1.
          1   -1    0    0  501    0 -0.00000000000E+00 -0.00000000000E+00 -0.50623460740E+03  0.50623460740E+03  0.00000000000E+00 0. -1.
         25    2    1    2    0    0 -0.60174883054E+02 -0.41562961132E+02  0.43331156929E+02  0.15116771665E+03  0.12500237241E+03 0.  0.
          2    1    1    2  501    0  0.19395042200E+03  0.10690742984E+02 -0.42839956990E+03  0.47037989930E+03  0.00000000000E+00 0. -1.
          1    1    1    2  502    0 -0.13377553894E+03  0.30872218148E+02  0.16072211997E+04  0.16130743856E+04  0.00000000000E+00 0. -1.
         22    1    3    3    0    0 -0.19619525681E+02 -0.62758025203E+02  0.71733632263E+02  0.97309863390E+02  0.00000000000E+00 0.  1.
         22    1    3    3    0    0 -0.40555357373E+02  0.21195064071E+02 -0.28402475334E+02  0.53857853260E+02  0.00000000000E+00 0.  1.
</event>
<event>
 7    1  0.5736319E-006  0.6131043E+02  0.7818608E-02  0.1537381E+00
          2   -1    0    0  502    0  0.00000000000E+00  0.00000000000E+00  0.27661320874E+03  0.27661320874E+03  0.00000000000E+00 0. -1.
          1   -1    0    0  501    0 -0.00000000000E+00 -0.00000000000E+00 -0.20050282896E+03  0.20050282896E+03  0.00000000000E+00 0. -1.
         25    2    1    2    0    0  0.52407572029E+02  0.59865678804E+02 -0.72845783979E+01  0.14835035517E+03  0.12499723874E+03 0.  0.
          2    1    1    2  501    0 -0.43899193343E+02 -0.40134111829E+02 -0.11486128395E+03  0.12934836937E+03  0.00000000000E+00 0. -1.
          1    1    1    2  502    0 -0.85083786859E+01 -0.19731566975E+02  0.19825624213E+03  0.19941731316E+03  0.00000000000E+00 0. -1.
         22    1    3    3    0    0  0.74057275689E+02  0.69078478370E+02 -0.39289365988E+02  0.10862766929E+03  0.00000000000E+00 0.  1.
         22    1    3    3    0    0 -0.21649703660E+02 -0.92127995666E+01  0.32004787590E+02  0.39722685875E+02  0.00000000000E+00 0.  1.
</event>
<event>
 7    1  0.5736319E-006  0.5077667E+02  0.7818608E-02  0.1535263E+00
          2   -1    0    0  502    0  0.00000000000E+00  0.00000000000E+00  0.16489303456E+03  0.16489303456E+03  0.00000000000E+00 0. -1.
          1   -1    0    0  501    0 -0.00000000000E+00 -0.00000000000E+00 -0.16687815992E+04  0.16687815992E+04  0.00000000000E+00 0. -1.
         25    2    1    2    0    0  0.20350626052E+02  0.54255613423E+02  0.73741000522E+01  0.13797363942E+03  0.12499811300E+03 0.  0.
          2    1    1    2  501    0 -0.26008039098E+02 -0.39579204001E+01 -0.15964202422E+04  0.15966369885E+04  0.00000000000E+00 0. -1.
          1    1    1    2  502    0  0.56574130467E+01 -0.50297693022E+02  0.85157577529E+02  0.99064005857E+02  0.00000000000E+00 0. -1.
         22    1    3    3    0    0 -0.36378517355E+02 -0.26076176845E+01 -0.32000002048E+02  0.48520061067E+02  0.00000000000E+00 0.  1.
         22    1    3    3    0    0  0.56729143407E+02  0.56863231107E+02  0.39374102100E+02  0.89453578351E+02  0.00000000000E+00 0.  1.
</event>
<event>
 7    1  0.5736319E-006  0.2264762E+03  0.7818608E-02  0.1234531E+00
          2   -1    0    0  502    0  0.00000000000E+00  0.00000000000E+00  0.10152405815E+03  0.10152405815E+03  0.00000000000E+00 0. -1.
          1   -1    0    0  501    0 -0.00000000000E+00 -0.00000000000E+00 -0.17900794313E+04  0.17900794313E+04  0.00000000000E+00 0. -1.
         25    2    1    2    0    0 -0.17249976211E+03 -0.20030124940E+03 -0.26443549324E+03  0.39424391349E+03  0.12500149918E+03 0.  0.
          2    1    1    2  501    0  0.51339727223E+02  0.46657494635E+02 -0.11909456542E+04  0.11929644759E+04  0.00000000000E+00 0. -1.
          1    1    1    2  502    0  0.12116003489E+03  0.15364375476E+03 -0.23317422570E+03  0.30439510010E+03  0.00000000000E+00 0. -1.
         22    1    3    3    0    0  0.26463739999E+01 -0.77075650262E+02 -0.85827258402E+02  0.11538620994E+03  0.00000000000E+00 0.  1.
         22    1    3    3    0    0 -0.17514613611E+03 -0.12322559914E+03 -0.17860823484E+03  0.27885770355E+03  0.00000000000E+00 0.  1.
</event>
<event>
 7    1  0.5736319E-006  0.1852289E+03  0.7818608E-02  0.1275309E+00
          2   -1    0    0  502    0  0.00000000000E+00  0.00000000000E+00  0.10877288183E+04  0.10877288183E+04  0.00000000000E+00 0. -1.
          1   -1    0    0  501    0 -0.00000000000E+00 -0.00000000000E+00 -0.14869904079E+04  0.14869904079E+04  0.00000000000E+00 0. -1.
         25    2    1    2    0    0  0.78967469662E+02 -0.17262140729E+03 -0.42459914951E+03  0.48160493635E+03  0.12499946172E+03 0.  0.
          2    1    1    2  501    0 -0.55504662256E+02 -0.11184926179E+02 -0.10249971974E+04  0.10265598496E+04  0.00000000000E+00 0. -1.
          1    1    1    2  502    0 -0.23462807406E+02  0.18380633347E+03  0.10503347573E+04  0.10665544402E+04  0.00000000000E+00 0. -1.
         22    1    3    3    0    0  0.70724730014E+02 -0.16637364841E+03 -0.43238661826E+03  0.46865804802E+03  0.00000000000E+00 0.  1.
         22    1    3    3    0    0  0.82427396483E+01 -0.62477588852E+01  0.77874687498E+01  0.12946888334E+02  0.00000000000E+00 0.  1.
</event>
<event>
 7    1  0.5736319E-006  0.3118831E+02  0.7818608E-02  0.1620168E+00
          2   -1    0    0  502    0  0.00000000000E+00  0.00000000000E+00  0.14033325551E+03  0.14033325551E+03  0.00000000000E+00 0. -1.
          1   -1    0    0  501    0 -0.00000000000E+00 -0.00000000000E+00 -0.82239826087E+02  0.82239826087E+02  0.00000000000E+00 0. -1.
         25    2    1    2    0    0  0.94403214040E+01  0.45362528367E+00 -0.18236625573E+01  0.12535566150E+03  0.12498556189E+03 0.  0.
          2    1    1    2  501    0 -0.78245707940E+01  0.30692804129E+02  0.23709416857E+01  0.31763083885E+02  0.00000000000E+00 0. -1.
          1    1    1    2  502    0 -0.16157506099E+01 -0.31146429413E+02  0.57546150299E+02  0.65454336215E+02  0.00000000000E+00 0. -1.
         22    1    3    3    0    0  0.59304547899E+02 -0.27413267878E+02 -0.14313524676E+02  0.66883433270E+02  0.00000000000E+00 0.  1.
         22    1    3    3    0    0 -0.49864226495E+02  0.27866893162E+02  0.12489862119E+02  0.58472228230E+02  0.00000000000E+00 0.  1.
</event>
<event>
 7    1  0.5736319E-006  0.7801843E+02  0.7818608E-02  0.1365716E+00
          2   -1    0    0  502    0  0.00000000000E+00  0.00000000000E+00  0.58144788964E+03  0.58144788964E+03  0.00000000000E+00 0. -1.
          1   -1    0    0  501    0 -0.00000000000E+00 -0.00000000000E+00 -0.81161768970E+03  0.81161768970E+03  0.00000000000E+00 0. -1.
         25    2    1    2    0    0 -0.16663886825E+01 -0.20773800619E+02  0.15063600749E+03  0.19685600492E+03  0.12500700891E+03 0.  0.
          2    1    1    2  501    0  0.35538624448E+02  0.70200731478E+02 -0.78432698079E+03  0.78826388305E+03  0.00000000000E+00 0. -1.
          1    1    1    2  502    0 -0.33872235765E+02 -0.49426930859E+02  0.40352117324E+03  0.40794569137E+03  0.00000000000E+00 0. -1.
         22    1    3    3    0    0  0.21853538751E+02 -0.27791453537E+02 -0.80695073073E+01  0.36263742137E+02  0.00000000000E+00 0.  1.
         22    1    3    3    0    0 -0.23519927433E+02  0.70176529179E+01  0.15870551480E+03  0.16059226278E+03  0.00000000000E+00 0.  1.
</event>
<event>
 7    1  0.5736319E-006  0.6173149E+02  0.7818608E-02  0.1521640E+00
          2   -1    0    0  502    0  0.00000000000E+00  0.00000000000E+00  0.39878831319E+03  0.39878831319E+03  0.00000000000E+00 0. -1.
          1   -1    0    0  501    0 -0.00000000000E+00 -0.00000000000E+00 -0.90297312747E+03  0.90297312747E+03  0.00000000000E+00 0. -1.
         25    2    1    2    0    0  0.56405057507E+02 -0.63170730942E+02  0.53141784262E+02  0.16006852458E+03  0.12500324622E+03 0.  0.
          2    1    1    2  501    0 -0.37842842678E+02  0.48470436118E+02 -0.84791474243E+03  0.85014167898E+03  0.00000000000E+00 0. -1.
          1    1    1    2  502    0 -0.18562214828E+02  0.14700294824E+02  0.29058814388E+03  0.29155123710E+03  0.00000000000E+00 0. -1.
         22    1    3    3    0    0  0.69434276082E+02 -0.73249699901E+02  0.79845240858E+02  0.12869304456E+03  0.00000000000E+00 0.  1.
         22    1    3    3    0    0 -0.13029218576E+02  0.10078968959E+02 -0.26703456596E+02  0.31375480015E+02  0.00000000000E+00 0.  1.
</event>
<event>
 7    1  0.5736319E-006  0.4260865E+02  0.7818608E-02  0.1564122E+00
          2   -1    0    0  502    0  0.00000000000E+00  0.00000000000E+00  0.28118908910E+04  0.28118908910E+04  0.00000000000E+00 0. -1.
          1   -1    0    0  501    0 -0.00000000000E+00 -0.00000000000E+00 -0.46382896627E+03  0.46382896627E+03  0.00000000000E+00 0. -1.
         25    2    1    2    0    0  0.13669412988E+02 -0.22493813134E+02  0.46257372650E+03  0.47988712658E+03  0.12499750927E+03 0.  0.
          2    1    1    2  501    0  0.25603034569E+02  0.47714884441E+01 -0.45460125264E+03  0.45534666067E+03  0.00000000000E+00 0. -1.
          1    1    1    2  502    0 -0.39272447557E+02  0.17722324690E+02  0.23400894508E+04  0.23404860700E+04  0.00000000000E+00 0. -1.
         22    1    3    3    0    0  0.40617131443E+02  0.18264495161E+02  0.61959198124E+02  0.76303901488E+02  0.00000000000E+00 0.  1.
         22    1    3    3    0    0 -0.26947718454E+02 -0.40758308295E+02  0.40061452838E+03  0.40358322509E+03  0.00000000000E+00 0.  1.
</event>
<event>
 7    1  0.5736319E-006  0.6063649E+02  0.7818608E-02  0.1410621E+00
          2   -1    0    0  502    0  0.00000000000E+00  0.00000000000E+00  0.51826500988E+04  0.51826500988E+04  0.00000000000E+00 0. -1.
          1   -1    0    0  501    0 -0.00000000000E+00 -0.00000000000E+00 -0.70204384891E+01  0.70204384891E+01  0.00000000000E+00 0. -1.
         25    2    1    2    0    0 -0.28514053323E+02  0.10355289263E+03  0.27504357583E+04  0.27553691274E+04  0.12500366054E+03 0.  0.
          2    1    1    2  501    0  0.20342642886E+02 -0.49682587071E+02  0.16630864549E+03  0.17475911462E+03  0.00000000000E+00 0. -1.
          1    1    1    2  502    0  0.81714104375E+01 -0.53870305561E+02  0.22588852565E+04  0.22595422952E+04  0.00000000000E+00 0. -1.
         22    1    3    3    0    0 -0.37441610493E+02  0.20698913279E+02  0.19759299027E+04  0.19763930023E+04  0.00000000000E+00 0. -1.
         22    1    3    3    0    0  0.89275571699E+01  0.82853979352E+02  0.77450585555E+03  0.77897612509E+03  0.00000000000E+00 0. -1.
</event>
<event>
 7    1  0.5736319E-006  0.1116815E+03  0.7818608E-02  0.1354233E+00
          2   -1    0    0  502    0  0.00000000000E+00  0.00000000000E+00  0.69192365410E+03  0.69192365410E+03  0.00000000000E+00 0. -1.
          1   -1    0    0  501    0 -0.00000000000E+00 -0.00000000000E+00 -0.37619234387E+03  0.37619234387E+03  0.00000000000E+00 0. -1.
         25    2    1    2    0    0 -0.83073779501E+02  0.59822990161E+02  0.16381176117E+02  0.16239869583E+03  0.12499980194E+03 0.  0.
          2    1    1    2  501    0  0.57472725695E+02 -0.98160012517E+02 -0.29158533868E+03  0.31298644058E+03  0.00000000000E+00 0. -1.
          1    1    1    2  502    0  0.25601053806E+02  0.38337022356E+02  0.59093547279E+03  0.59273086156E+03  0.00000000000E+00 0. -1.
         22    1    3    3    0    0 -0.43014321877E+02 -0.37031226810E+02  0.57937019405E+01  0.57053576819E+02  0.00000000000E+00 0. -1.
         22    1    3    3    0    0 -0.40059457624E+02  0.96854216971E+02  0.10587474176E+02  0.10534511901E+03  0.00000000000E+00 0. -1.
</event>
<event>
 7    1  0.5736319E-006  0.6714345E+02  0.7818608E-02  0.1376822E+00
          2   -1    0    0  502    0  0.00000000000E+00  0.00000000000E+00  0.47709216637E+03  0.47709216637E+03  0.00000000000E+00 0. -1.
          1   -1    0    0  501    0 -0.00000000000E+00 -0.00000000000E+00 -0.67100407543E+03  0.67100407543E+03  0.00000000000E+00 0. -1.
         25    2    1    2    0    0 -0.51358191884E+02  0.25024669214E+02 -0.15698884485E+03  0.20864959143E+03  0.12500102662E+03 0.  0.
          2    1    1    2  501    0  0.47180008182E+02  0.42530025975E+02 -0.48355813479E+03  0.48771223688E+03  0.00000000000E+00 0. -1.
          1    1    1    2  502    0  0.41781837014E+01 -0.67554695188E+02  0.44663507058E+03  0.45173441349E+03  0.00000000000E+00 0. -1.
         22    1    3    3    0    0 -0.28610515201E+02  0.74959999156E+02 -0.11153701192E+03  0.13739748208E+03  0.00000000000E+00 0. -1.
         22    1    3    3    0    0 -0.22747676682E+02 -0.49935329942E+02 -0.45451832925E+02  0.71252109353E+02  0.00000000000E+00 0. -1.
</event>
<event>
 7    1  0.5736319E-006  0.2930828E+02  0.7818608E-02  0.1626848E+00
          2   -1    0    0  502    0  0.00000000000E+00  0.00000000000E+00  0.12872382768E+02  0.12872382768E+02  0.00000000000E+00 0. -1.
          1   -1    0    0  501    0 -0.00000000000E+00 -0.00000000000E+00 -0.20907449951E+04  0.20907449951E+04  0.00000000000E+00 0. -1.
         25    2    1    2    0    0  0.55137750912E+01 -0.32112738822E+01 -0.77182277583E+03  0.78190566089E+03  0.12500140502E+03 0.  0.
          2    1    1    2  501    0 -0.29384545340E+02 -0.68376776894E+01 -0.12917970252E+04  0.12921492792E+04  0.00000000000E+00 0. -1.
          1    1    1    2  502    0  0.23870770249E+02  0.10048951572E+02 -0.14252811338E+02  0.29562437839E+02  0.00000000000E+00 0. -1.
         22    1    3    3    0    0 -0.18879865403E+02  0.17565714443E+02 -0.72328836378E+03  0.72374792630E+03  0.00000000000E+00 0.  1.
         22    1    3    3    0    0  0.24393640495E+02 -0.20776988325E+02 -0.48534412045E+02  0.58157734593E+02  0.00000000000E+00 0.  1.
</event>
<event>
 7    1  0.5736319E-006  0.8847221E+02  0.7818608E-02  0.1421915E+00
          2   -1    0    0  502    0  0.00000000000E+00  0.00000000000E+00  0.22310520025E+03  0.22310520025E+03  0.00000000000E+00 0. -1.
          1   -1    0    0  501    0 -0.00000000000E+00 -0.00000000000E+00 -0.87982460541E+03  0.87982460541E+03  0.00000000000E+00 0. -1.
         25    2    1    2    0    0  0.60474787963E+02 -0.59209283026E+02 -0.36541633991E+03  0.39537004956E+03  0.12500174175E+03 0.  0.
          2    1    1    2  501    0 -0.83884875384E+02  0.34942657976E+02 -0.49389293899E+03  0.50218313079E+03  0.00000000000E+00 0. -1.
          1    1    1    2  502    0  0.23410087421E+02  0.24266625049E+02  0.20258987374E+03  0.20537662531E+03  0.00000000000E+00 0. -1.
         22    1    3    3    0    0  0.96385766893E+02 -0.57608548876E+02 -0.30568137957E+03  0.32565329229E+03  0.00000000000E+00 0. -1.
         22    1    3    3    0    0 -0.35910978930E+02 -0.16007341494E+01 -0.59734960339E+02  0.69716757270E+02  0.00000000000E+00 0. -1.
</event>
<event>
 7    1  0.5736319E-006  0.2741833E+03  0.7818608E-02  0.1228907E+00
          2   -1    0    0  502    0  0.00000000000E+00  0.00000000000E+00  0.23438366137E+04  0.23438366137E+04  0.00000000000E+00 0. -1.
          1   -1    0    0  501    0 -0.00000000000E+00 -0.00000000000E+00 -0.34115057960E+03  0.34115057960E+03  0.00000000000E+00 0. -1.
         25    2    1    2    0    0 -0.15687901812E+01 -0.32410978345E+03  0.23114433140E+03  0.41725582721E+03  0.12500044230E+03 0.  0.
          2    1    1    2  501    0  0.11164598168E+01  0.26339349203E+03 -0.17757847288E+03  0.31766569244E+03  0.00000000000E+00 0. -1.
          1    1    1    2  502    0  0.45233036439E+00  0.60716291422E+02  0.19491201756E+04  0.19500656737E+04  0.00000000000E+00 0. -1.
         22    1    3    3    0    0 -0.34860251025E+02 -0.28248796007E+03  0.15437815179E+03  0.32380132557E+03  0.00000000000E+00 0.  1.
         22    1    3    3    0    0  0.33291460843E+02 -0.41621823373E+02  0.76766179607E+02  0.93454501643E+02  0.00000000000E+00 0.  1.
</event>
<event>
 7    1  0.5736319E-006  0.2683047E+03  0.7818608E-02  0.1308524E+00
          2   -1    0    0  502    0  0.00000000000E+00  0.00000000000E+00  0.27741230237E+04  0.27741230237E+04  0.00000000000E+00 0. -1.
          1   -1    0    0  501    0 -0.00000000000E+00 -0.00000000000E+00 -0.36977156439E+02  0.36977156439E+02  0.00000000000E+00 0. -1.
         25    2    1    2    0    0 -0.16061662015E+02  0.28216659197E+03  0.13388621628E+04  0.13740637182E+04  0.12499299160E+03 0.  0.
          2    1    1    2  501    0 -0.10488534398E+01 -0.25916858150E+03  0.86522223342E+03  0.90320483111E+03  0.00000000000E+00 0. -1.
          1    1    1    2  502    0  0.17110515454E+02 -0.22998010471E+02  0.53306147104E+03  0.53383163088E+03  0.00000000000E+00 0. -1.
         22    1    3    3    0    0  0.29668045385E+02  0.75541100808E+01  0.12795491906E+03  0.13156640456E+03  0.00000000000E+00 0.  1.
         22    1    3    3    0    0 -0.45729707400E+02  0.27461248189E+03  0.12109072437E+04  0.12424973136E+04  0.00000000000E+00 0.  1.
</event>
<event>
 7    1  0.5736319E-006  0.4013901E+02  0.7818608E-02  0.1547478E+00
          2   -1    0    0  502    0  0.00000000000E+00  0.00000000000E+00  0.62701181543E+03  0.62701181543E+03  0.00000000000E+00 0. -1.
          1   -1    0    0  501    0 -0.00000000000E+00 -0.00000000000E+00 -0.73042322193E+03  0.73042322193E+03  0.00000000000E+00 0. -1.
         25    2    1    2    0    0 -0.57086470317E+02  0.21408733619E+02 -0.40824446414E+03  0.43128394082E+03  0.12500038456E+03 0.  0.
          2    1    1    2  501    0  0.38376154461E+02  0.29817920539E+01 -0.30908064680E+03  0.31146824323E+03  0.00000000000E+00 0. -1.
          1    1    1    2  502    0  0.18710315857E+02 -0.24390525673E+02  0.61391370444E+03  0.61468285332E+03  0.00000000000E+00 0. -1.
         22    1    3    3    0    0 -0.85274556080E+02  0.48818565558E+02 -0.31830043143E+03  0.33312184994E+03  0.00000000000E+00 0. -1.
         22    1    3    3    0    0  0.28188085763E+02 -0.27409831939E+02 -0.89944032710E+02  0.98162090881E+02  0.00000000000E+00 0. -1.
</event>
<event>
 7    1  0.5736319E-006  0.7006409E+02  0.7818608E-02  0.1388166E+00
          2   -1    0    0  502    0  0.00000000000E+00  0.00000000000E+00  0.13445577655E+04  0.13445577655E+04  0.00000000000E+00 0. -1.
          1   -1    0    0  501    0 -0.00000000000E+00 -0.00000000000E+00 -0.51612855828E+02  0.51612855828E+02  0.00000000000E+00 0. -1.
         25    2    1    2    0    0  0.17149694911E+02  0.25242651006E+02  0.15626074816E+03  0.20242007122E+03  0.12500064140E+03 0.  0.
          2    1    1    2  501    0 -0.63516528124E+02 -0.55766949466E+02  0.36336515349E+02  0.92003501810E+02  0.00000000000E+00 0. -1.
          1    1    1    2  502    0  0.46366833213E+02  0.30524298459E+02  0.11003476461E+04  0.11017470483E+04  0.00000000000E+00 0. -1.
         22    1    3    3    0    0 -0.37776918935E+02  0.35930815926E+02  0.21299979982E+02  0.56318809332E+02  0.00000000000E+00 0.  1.
         22    1    3    3    0    0  0.54926613845E+02 -0.10688164920E+02  0.13496076818E+03  0.14610126189E+03  0.00000000000E+00 0.  1.
</event>
<event>
 7    1  0.5736319E-006  0.7633706E+02  0.7818608E-02  0.1436121E+00
          2   -1    0    0  502    0  0.00000000000E+00  0.00000000000E+00  0.93224375105E+02  0.93224375105E+02  0.00000000000E+00 0. -1.
          1   -1    0    0  501    0 -0.00000000000E+00 -0.00000000000E+00 -0.43573518841E+03  0.43573518841E+03  0.00000000000E+00 0. -1.
         25    2    1    2    0    0  0.63834555585E+02  0.56019557838E+02 -0.22764510135E+03  0.27323974782E+03  0.12499850508E+03 0.  0.
          2    1    1    2  501    0 -0.32422144343E+02  0.13402343132E+02 -0.16224370405E+03  0.16599348707E+03  0.00000000000E+00 0. -1.
          1    1    1    2  502    0 -0.31412411242E+02 -0.69421900969E+02  0.47377992096E+02  0.89726328629E+02  0.00000000000E+00 0. -1.
         22    1    3    3    0    0  0.39582599590E+02 -0.33729297998E+02 -0.12135628225E+03  0.13202952312E+03  0.00000000000E+00 0. -1.
         22    1    3    3    0    0  0.24251955996E+02  0.89748855836E+02 -0.10628881910E+03  0.14121022470E+03  0.00000000000E+00 0. -1.
</event>
<event>
 7    1  0.5736319E-006  0.9569806E+02  0.7818608E-02  0.1387901E+00
          2   -1    0    0  502    0  0.00000000000E+00  0.00000000000E+00  0.71334471194E+03  0.71334471194E+03  0.00000000000E+00 0. -1.
          1   -1    0    0  501    0 -0.00000000000E+00 -0.00000000000E+00 -0.38407569973E+03  0.38407569973E+03  0.00000000000E+00 0. -1.
         25    2    1    2    0    0  0.10229617028E+03 -0.51485312986E+02 -0.11895485059E+03  0.20709800060E+03  0.12499632582E+03 0.  0.
          2    1    1    2  501    0 -0.75441153658E+01  0.40024519544E+02 -0.21573131904E+03  0.21954242837E+03  0.00000000000E+00 0. -1.
          1    1    1    2  502    0 -0.94752054913E+02  0.11460793442E+02  0.66395518184E+03  0.67077998270E+03  0.00000000000E+00 0. -1.
         22    1    3    3    0    0 -0.10024072694E+02  0.19803725013E+02  0.76224774216E+01  0.23468526153E+02  0.00000000000E+00 0.  1.
         22    1    3    3    0    0  0.11232024297E+03 -0.71289037999E+02 -0.12657732801E+03  0.18362947445E+03  0.00000000000E+00 0.  1.
</event>
<event>
 7    1  0.1492018E-005  0.7722110E+02  0.7818608E-02  0.1380127E+00
          2   -1    0    0  502    0  0.00000000000E+00  0.00000000000E+00  0.16693654669E+04  0.16693654669E+04  0.00000000000E+00 0. -1.
          1   -1    0    0  501    0 -0.00000000000E+00 -0.00000000000E+00 -0.19972652125E+04  0.19972652125E+04  0.00000000000E+00 0. -1.
         25    2    1    2    0    0 -0.44895337123E+02  0.34178203403E+02 -0.51748223843E+03  0.53534727341E+03  0.12500038069E+03 0.  0.
          2    1    1    2  501    0 -0.31847072921E+02 -0.43309445140E+02 -0.14694594068E+04  0.14704424138E+04  0.00000000000E+00 0. -1.
          1    1    1    2  502    0  0.76742410044E+02  0.91312417371E+01  0.16590418995E+04  0.16608409922E+04  0.00000000000E+00 0. -1.
         22    1    3    3    0    0 -0.23423888627E+02  0.80637910514E+02 -0.36385131941E+03  0.37341522975E+03  0.00000000000E+00 0.  1.
         22    1    3    3    0    0 -0.21471448496E+02 -0.46459707111E+02 -0.15363091902E+03  0.16193204366E+03  0.00000000000E+00 0.  1.
</event>
<event>
 7    1  0.5736319E-006  0.8540762E+02  0.7818608E-02  0.1414373E+00
          2   -1    0    0  502    0  0.00000000000E+00  0.00000000000E+00  0.75812510345E+03  0.75812510345E+03  0.00000000000E+00 0. -1.
          1   -1    0    0  501    0 -0.00000000000E+00 -0.00000000000E+00 -0.14697428388E+03  0.14697428388E+03  0.00000000000E+00 0. -1.
         25    2    1    2    0    0 -0.11551953723E+03  0.18465852205E+02  0.37441568922E+03  0.41170183970E+03  0.12500218118E+03 0.  0.
          2    1    1    2  501    0  0.79669623627E+02 -0.27697429673E+02 -0.11338975634E+03  0.14132102951E+03  0.00000000000E+00 0. -1.
          1    1    1    2  502    0  0.35849913601E+02  0.92315774677E+01  0.35012488669E+03  0.35207651811E+03  0.00000000000E+00 0. -1.
         22    1    3    3    0    0 -0.76180031216E+01  0.55714470882E+02  0.10521454714E+03  0.11929894035E+03  0.00000000000E+00 0. -1.
         22    1    3    3    0    0 -0.10790153411E+03 -0.37248618677E+02  0.26920114208E+03  0.29240289936E+03  0.00000000000E+00 0. -1.
</event>
<event>
 7    1  0.5736319E-006  0.7853001E+02  0.7818608E-02  0.1422371E+00
          2   -1    0    0  502    0  0.00000000000E+00  0.00000000000E+00  0.12290519176E+03  0.12290519176E+03  0.00000000000E+00 0. -1.
          1   -1    0    0  501    0 -0.00000000000E+00 -0.00000000000E+00 -0.91771163988E+03  0.91771163988E+03  0.00000000000E+00 0. -1.
         25    2    1    2    0    0  0.19636669167E+02 -0.10748484299E+03 -0.33875547595E+03  0.37725209524E+03  0.12500112250E+03 0.  0.
          2    1    1    2  501    0 -0.71975123568E+00  0.74696303015E+02 -0.55365792087E+03  0.55867445715E+03  0.00000000000E+00 0. -1.
          1    1    1    2  502    0 -0.18916917932E+02  0.32788539971E+02  0.97606948700E+02  0.10469027926E+03  0.00000000000E+00 0. -1.
         22    1    3    3    0    0 -0.53004201138E+02 -0.35837589378E+02 -0.13272934732E+03  0.14734604776E+03  0.00000000000E+00 0.  1.
         22    1    3    3    0    0  0.72640870305E+02 -0.71647253608E+02 -0.20602612863E+03  0.22990604748E+03  0.00000000000E+00 0.  1.
</event>
<event>
 7    1  0.5736319E-006  0.6446198E+02  0.7818608E-02  0.1383533E+00
          2   -1    0    0  502    0  0.00000000000E+00  0.00000000000E+00  0.23409836804E+02  0.23409836804E+02  0.00000000000E+00 0. -1.
          1   -1    0    0  501    0 -0.00000000000E+00 -0.00000000000E+00 -0.28360795437E+04  0.28360795437E+04  0.00000000000E+00 0. -1.
         25    2    1    2    0    0  0.43975654643E+02 -0.27403347406E+02 -0.10408312346E+04  0.10495900841E+04  0.12499953662E+03 0.  0.
          2    1    1    2  501    0 -0.48893509253E+02 -0.39155454440E+02 -0.17299906361E+04  0.17311242953E+04  0.00000000000E+00 0. -1.
          1    1    1    2  502    0  0.49178546106E+01  0.66558801846E+02 -0.41847836228E+02  0.78775001073E+02  0.00000000000E+00 0. -1.
         22    1    3    3    0    0 -0.34577472602E+02 -0.41554237608E+02 -0.49728164600E+03  0.50021134706E+03  0.00000000000E+00 0. -1.
         22    1    3    3    0    0  0.78553127244E+02  0.14150890202E+02 -0.54354958856E+03  0.54937873704E+03  0.00000000000E+00 0. -1.
</event>
<event>
 7    1  0.5736319E-006  0.1343068E+03  0.7818608E-02  0.1345639E+00
          2   -1    0    0  502    0  0.00000000000E+00  0.00000000000E+00  0.37066212208E+02  0.37066212208E+02  0.00000000000E+00 0. -1.
          1   -1    0    0  501    0 -0.00000000000E+00 -0.00000000000E+00 -0.15730875060E+04  0.15730875060E+04  0.00000000000E+00 0. -1.
         25    2    1    2    0    0  0.14496564708E+03 -0.85189229483E+02 -0.54339204050E+03  0.58238501422E+03  0.12500060582E+03 0.  0.
          2    1    1    2  501    0 -0.11159986847E+03  0.60935186212E+02 -0.97441603020E+03  0.98267707181E+03  0.00000000000E+00 0. -1.
          1    1    1    2  502    0 -0.33365778602E+02  0.24254043271E+02 -0.18213223089E+02  0.45091632172E+02  0.00000000000E+00 0. -1.
         22    1    3    3    0    0 -0.28212399657E+01 -0.46894653216E+02 -0.64837745481E+02  0.80068727568E+02  0.00000000000E+00 0. -1.
         22    1    3    3    0    0  0.14778688704E+03 -0.38294576266E+02 -0.47855429502E+03  0.50231628665E+03  0.00000000000E+00 0. -1.
</event>
<event>
 7    1  0.5736319E-006  0.1456081E+03  0.7818608E-02  0.1256690E+00
          2   -1    0    0  502    0  0.00000000000E+00  0.00000000000E+00  0.30949885995E+03  0.30949885995E+03  0.00000000000E+00 0. -1.
          1   -1    0    0  501    0 -0.00000000000E+00 -0.00000000000E+00 -0.37209653987E+03  0.37209653987E+03  0.00000000000E+00 0. -1.
         25    2    1    2    0    0 -0.83693449825E+02 -0.70540700180E+02 -0.11674405551E+03  0.20306169214E+03  0.12499716954E+03 0.  0.
          2    1    1    2  501    0  0.17001589834E+03  0.68977352617E+02 -0.16264253073E+03  0.24518538632E+03  0.00000000000E+00 0. -1.
          1    1    1    2  502    0 -0.86322448516E+02  0.15633475629E+01  0.21678890632E+03  0.23334832135E+03  0.00000000000E+00 0. -1.
         22    1    3    3    0    0  0.21876902876E+01  0.30031130932E+00 -0.88072919771E+02  0.88100598027E+02  0.00000000000E+00 0. -1.
         22    1    3    3    0    0 -0.85881140113E+02 -0.70841011489E+02 -0.28671135734E+02  0.11496109412E+03  0.00000000000E+00 0. -1.
</event>
<event>
 7    1  0.5736319E-006  0.6978285E+02  0.7818608E-02  0.1447786E+00
          2   -1    0    0  502    0  0.00000000000E+00  0.00000000000E+00  0.39450117428E+03  0.39450117428E+03  0.00000000000E+00 0. -1.
          1   -1    0    0  501    0 -0.00000000000E+00 -0.00000000000E+00 -0.23393440673E+03  0.23393440673E+03  0.00000000000E+00 0. -1.
         25    2    1    2    0    0  0.27573882115E+02 -0.44025314831E+02 -0.27163229091E+02  0.13806449374E+03  0.12500166437E+03 0.  0.
          2    1    1    2  501    0 -0.22933387927E+02 -0.26681265188E+02 -0.14549862895E+03  0.14969195443E+03  0.00000000000E+00 0. -1.
          1    1    1    2  502    0 -0.46404941886E+01  0.70706580019E+02  0.33322862560E+03  0.34067913285E+03  0.00000000000E+00 0. -1.
         22    1    3    3    0    0 -0.37904446438E+02  0.20615445723E+02 -0.51182539882E+01  0.43450433669E+02  0.00000000000E+00 0.  1.
         22    1    3    3    0    0  0.65478328554E+02 -0.64640760554E+02 -0.22044975103E+02  0.94614060067E+02  0.00000000000E+00 0.  1.
</event>
<event>
 7    1  0.5736319E-006  0.1545957E+03  0.7818608E-02  0.1306270E+00
          2   -1    0    0  502    0  0.00000000000E+00  0.00000000000E+00  0.23933113050E+04  0.23933113050E+04  0.00000000000E+00 0. -1.
          1   -1    0    0  501    0 -0.00000000000E+00 -0.00000000000E+00 -0.66242168245E+03  0.66242168245E+03  0.00000000000E+00 0. -1.
         25    2    1    2    0    0 -0.53509144697E+02 -0.18782182695E+03  0.85067838422E+03  0.88171203977E+03  0.12498856128E+03 0.  0.
          2    1    1    2  501    0  0.16233289805E+02  0.15333701073E+03 -0.63728583586E+03  0.65567445821E+03  0.00000000000E+00 0. -1.
          1    1    1    2  502    0  0.37275854893E+02  0.34484816223E+02  0.15174970742E+04  0.15183464895E+04  0.00000000000E+00 0. -1.
         22    1    3    3    0    0 -0.25550495077E+02 -0.15914643094E+02  0.35597518155E+03  0.35724562074E+03  0.00000000000E+00 0.  1.
         22    1    3    3    0    0 -0.27958649620E+02 -0.17190718386E+03  0.49470320267E+03  0.52446641902E+03  0.00000000000E+00 0.  1.
</event>
<event>
 7    1  0.5736319E-006  0.1563175E+03  0.7818608E-02  0.1228939E+00
          2   -1    0    0  502    0  0.00000000000E+00  0.00000000000E+00  0.34062771826E+04  0.34062771826E+04  0.00000000000E+00 0. -1.
          1   -1    0    0  501    0 -0.00000000000E+00 -0.00000000000E+00 -0.91721861368E+02  0.91721861368E+02  0.00000000000E+00 0. -1.
         25    2    1    2    0    0 -0.17206943324E+03 -0.88734298668E+02  0.62670732380E+03  0.66773450467E+03  0.12500253363E+03 0.  0.
          2    1    1    2  501    0  0.15417636340E+03 -0.16217187732E+02  0.15503637731E+02  0.15580022783E+03  0.00000000000E+00 0. -1.
          1    1    1    2  502    0  0.17893069837E+02  0.10495148640E+03  0.26723443597E+04  0.26744643114E+04  0.00000000000E+00 0. -1.
         22    1    3    3    0    0 -0.14161620124E+03 -0.11466472051E+03  0.56942843892E+03  0.59787280724E+03  0.00000000000E+00 0. -1.
         22    1    3    3    0    0 -0.30453231999E+02  0.25930421839E+02  0.57278884878E+02  0.69861697437E+02  0.00000000000E+00 0. -1.
</event>
<event>
 7    1  0.5736319E-006  0.1953604E+03  0.7818608E-02  0.1318414E+00
          2   -1    0    0  502    0  0.00000000000E+00  0.00000000000E+00  0.33060126095E+04  0.33060126095E+04  0.00000000000E+00 0. -1.
          1   -1    0    0  501    0 -0.00000000000E+00 -0.00000000000E+00 -0.37198774388E+02  0.37198774388E+02  0.00000000000E+00 0. -1.
         25    2    1    2    0    0 -0.17792525029E+03 -0.47043440032E+02  0.12539787914E+04  0.12735611736E+04  0.12499909471E+03 0.  0.
          2    1    1    2  501    0  0.19846922539E+03  0.17473298121E+02  0.33743976835E+03  0.39186853260E+03  0.00000000000E+00 0. -1.
          1    1    1    2  502    0 -0.20543975097E+02  0.29570141911E+02  0.16773952753E+04  0.16777816776E+04  0.00000000000E+00 0. -1.
         22    1    3    3    0    0 -0.61131332328E+02 -0.80390115484E+02  0.57801857963E+03  0.58677516040E+03  0.00000000000E+00 0. -1.
         22    1    3    3    0    0 -0.11679391796E+03  0.33346675452E+02  0.67596021181E+03  0.68678601325E+03  0.00000000000E+00 0. -1.
</event>
<event>
 7    1  0.5736319E-006  0.9435215E+02  0.7818608E-02  0.1437582E+00
          2   -1    0    0  502    0  0.00000000000E+00  0.00000000000E+00  0.70788738061E+02  0.70788738061E+02  0.00000000000E+00 0. -1.
          1   -1    0    0  501    0 -0.00000000000E+00 -0.00000000000E+00 -0.34081538036E+04  0.34081538036E+04  0.00000000000E+00 0. -1.
         25    2    1    2    0    0 -0.10403488267E+03 -0.51712701838E+02 -0.18999942016E+04  0.19076426945E+04  0.12500089384E+03 0.  0.
          2    1    1    2  501    0  0.14133648694E+02  0.24257883607E+02 -0.14711476871E+04  0.14714155505E+04  0.00000000000E+00 0. -1.
          1    1    1    2  502    0  0.89901233974E+02  0.27454818230E+02  0.33776823251E+02  0.99884296578E+02  0.00000000000E+00 0. -1.
         22    1    3    3    0    0  0.23360080053E+02  0.13828751589E+02 -0.26734252592E+03  0.26871723778E+03  0.00000000000E+00 0.  1.
         22    1    3    3    0    0 -0.12739496272E+03 -0.65541453426E+02 -0.16326516757E+04  0.16389254568E+04  0.00000000000E+00 0.  1.
</event>
<event>
 7    1  0.5736319E-006  0.5645383E+02  0.7818608E-02  0.1554936E+00
          2   -1    0    0  502    0  0.00000000000E+00  0.00000000000E+00  0.70834142794E+03  0.70834142794E+03  0.00000000000E+00 0. -1.
          1   -1    0    0  501    0 -0.00000000000E+00 -0.00000000000E+00 -0.20908182995E+02  0.20908182995E+02  0.00000000000E+00 0. -1.
         25    2    1    2    0    0 -0.42206189999E+01  0.65426269530E+02  0.32828635414E+03  0.35734445988E+03  0.12499888929E+03 0.  0.
          2    1    1    2  501    0  0.12396232763E+02 -0.46261334643E+02  0.34078191998E+03  0.34413092662E+03  0.00000000000E+00 0. -1.
          1    1    1    2  502    0 -0.81756137633E+01 -0.19164934886E+02  0.18364970822E+02  0.27774224434E+02  0.00000000000E+00 0. -1.
         22    1    3    3    0    0  0.55059004764E+02  0.31547643351E+01  0.13154022089E+03  0.14263336305E+03  0.00000000000E+00 0.  1.
         22    1    3    3    0    0 -0.59279623764E+02  0.62271505195E+02  0.19674613325E+03  0.21471109683E+03  0.00000000000E+00 0.  1.
</event>
<event>
 7    1  0.5736319E-006  0.7591124E+02  0.7818608E-02  0.1375143E+00
          2   -1    0    0  502    0  0.00000000000E+00  0.00000000000E+00  0.10657097419E+04  0.10657097419E+04  0.00000000000E+00 0. -1.
          1   -1    0    0  501    0 -0.00000000000E+00 -0.00000000000E+00 -0.16093588073E+04  0.16093588073E+04  0.00000000000E+00 0. -1.
         25    2    1    2    0    0  0.12310586782E+03 -0.48580286825E+02  0.15875646506E+03  0.24154452264E+03  0.12500016903E+03 0.  0.
          2    1    1    2  501    0 -0.71808591778E+02  0.23815126489E+02 -0.15661134772E+04  0.15679397493E+04  0.00000000000E+00 0. -1.
          1    1    1    2  502    0 -0.51297276039E+02  0.24765160336E+02  0.86370794675E+03  0.86558427722E+03  0.00000000000E+00 0. -1.
         22    1    3    3    0    0  0.10571647961E+03  0.17779791725E+02  0.12627510948E+03  0.16564268269E+03  0.00000000000E+00 0. -1.
         22    1    3    3    0    0  0.17389388210E+02 -0.66360078550E+02  0.32481355587E+02  0.75901839953E+02  0.00000000000E+00 0. -1.
</event>
<event>
 7    1  0.5736319E-006  0.6294634E+02  0.7818608E-02  0.1386621E+00
          2   -1    0    0  502    0  0.00000000000E+00  0.00000000000E+00  0.11393603355E+04  0.11393603355E+04  0.00000000000E+00 0. -1.
          1   -1    0    0  501    0 -0.00000000000E+00 -0.00000000000E+00 -0.26082685436E+04  0.26082685436E+04  0.00000000000E+00 0. -1.
         25    2    1    2    0    0 -0.61693678826E+01 -0.67522637676E+01  0.38734706815E+03  0.40712015943E+03  0.12500167536E+03 0.  0.
          2    1    1    2  501    0 -0.35871658482E+02 -0.51724904971E+02 -0.25962522683E+04  0.25970152257E+04  0.00000000000E+00 0. -1.
          1    1    1    2  502    0  0.42041026364E+02  0.58477168738E+02  0.73999699216E+03  0.74349349397E+03  0.00000000000E+00 0. -1.
         22    1    3    3    0    0 -0.63511580753E+02 -0.18647993036E+02  0.18588299821E+03  0.19731689628E+03  0.00000000000E+00 0. -1.
         22    1    3    3    0    0  0.57342212870E+02  0.11895729268E+02  0.20146406995E+03  0.20980326316E+03  0.00000000000E+00 0. -1.
</event>
<event>
 7    1  0.5736319E-006  0.1275147E+03  0.7818608E-02  0.1299058E+00
          2   -1    0    0  502    0  0.00000000000E+00  0.00000000000E+00  0.10706526214E+04  0.10706526214E+04  0.00000000000E+00 0. -1.
          1   -1    0    0  501    0 -0.00000000000E+00 -0.00000000000E+00 -0.13683578351E+04  0.13683578351E+04  0.00000000000E+00 0. -1.
         25    2    1    2    0    0  0.13576382828E+03  0.48063128828E+02  0.39247682904E+02  0.19469463051E+03  0.12499494836E+03 0.  0.
          2    1    1    2  501    0 -0.48319473547E+02  0.44633426459E+02 -0.12855327230E+04  0.12872145494E+04  0.00000000000E+00 0. -1.
          1    1    1    2  502    0 -0.87444354729E+02 -0.92696555287E+02  0.94857982638E+03  0.95710127654E+03  0.00000000000E+00 0. -1.
         22    1    3    3    0    0  0.82210139135E+02  0.89540417243E+02  0.13810858330E+02  0.12233860022E+03  0.00000000000E+00 0.  1.
         22    1    3    3    0    0  0.53553689141E+02 -0.41477288416E+02  0.25436824574E+02  0.72356030290E+02  0.00000000000E+00 0.  1.
</event>
<event>
 7    1  0.5736319E-006  0.2526206E+03  0.7818608E-02  0.1290992E+00
          2   -1    0    0  502    0  0.00000000000E+00  0.00000000000E+00  0.14783392689E+04  0.14783392689E+04  0.00000000000E+00 0. -1.
          1   -1    0    0  501    0 -0.00000000000E+00 -0.00000000000E+00 -0.26828024645E+03  0.26828024645E+03  0.00000000000E+00 0. -1.
         25    2    1    2    0    0 -0.16539078915E+03  0.14855653372E+03  0.87954255325E+03  0.91577422554E+03  0.12499668934E+03 0.  0.
          2    1    1    2  501    0  0.17856168655E+03 -0.18183180497E+03 -0.18447753903E+03  0.31460935079E+03  0.00000000000E+00 0. -1.
          1    1    1    2  502    0 -0.13170897403E+02  0.33275271240E+02  0.51499400827E+03  0.51623593905E+03  0.00000000000E+00 0. -1.
         22    1    3    3    0    0 -0.10310804848E+03  0.15724765265E+03  0.72350629353E+03  0.74754227352E+03  0.00000000000E+00 0. -1.
         22    1    3    3    0    0 -0.62282740667E+02 -0.86911189293E+01  0.15603625972E+03  0.16823195202E+03  0.00000000000E+00 0. -1.
</event>
<event>
 7    1  0.5736319E-006  0.1220987E+03  0.7818608E-02  0.1262094E+00
          2   -1    0    0  502    0  0.00000000000E+00  0.00000000000E+00  0.59310578012E+03  0.59310578012E+03  0.00000000000E+00 0. -1.
          1   -1    0    0  501    0 -0.00000000000E+00 -0.00000000000E+00 -0.34549976475E+03  0.34549976475E+03  0.00000000000E+00 0. -1.
         25    2    1    2    0    0  0.13798193629E+03 -0.13782037292E+03  0.74784802093E+02  0.24341703497E+03  0.12500246540E+03 0.  0.
          2    1    1    2  501    0 -0.45000565234E+02  0.10805253643E+03 -0.24211361031E+03  0.26892266881E+03  0.00000000000E+00 0. -1.
          1    1    1    2  502    0 -0.92981371053E+02  0.29767836488E+02  0.41493482359E+03  0.42626584108E+03  0.00000000000E+00 0. -1.
         22    1    3    3    0    0  0.31730225407E+02 -0.33790519362E+02 -0.35415409752E+02  0.58334017957E+02  0.00000000000E+00 0. -1.
         22    1    3    3    0    0  0.10625171088E+03 -0.10402985356E+03  0.11020021184E+03  0.18508301702E+03  0.00000000000E+00 0. -1.
</event>
<event>
 7    1  0.5736319E-006  0.5721555E+03  0.7818608E-02  0.1201222E+00
          2   -1    0    0  502    0  0.00000000000E+00  0.00000000000E+00  0.12042275776E+04  0.12042275776E+04  0.00000000000E+00 0. -1.
          1   -1    0    0  501    0 -0.00000000000E+00 -0.00000000000E+00 -0.48825491330E+03  0.48825491330E+03  0.00000000000E+00 0. -1.
         25    2    1    2    0    0 -0.52297286805E+03  0.16346501032E+03  0.65701598861E+03  0.86459153132E+03  0.12500830543E+03 0.  0.
          2    1    1    2  501    0  0.55952371360E+03 -0.14984262196E+03 -0.16363265885E+03  0.60190966472E+03  0.00000000000E+00 0. -1.
          1    1    1    2  502    0 -0.36550845555E+02 -0.13622388362E+02  0.22258933456E+03  0.22598129488E+03  0.00000000000E+00 0. -1.
         22    1    3    3    0    0 -0.29691152088E+03  0.15459188567E+03  0.36624870638E+03  0.49617861429E+03  0.00000000000E+00 0. -1.
         22    1    3    3    0    0 -0.22606134716E+03  0.88731246519E+01  0.29076728223E+03  0.36841291703E+03  0.00000000000E+00 0. -1.
</event>
<event>
 7    1  0.5736319E-006  0.6584335E+02  0.7818608E-02  0.1394806E+00
          2   -1    0    0  502    0  0.00000000000E+00  0.00000000000E+00  0.72567055704E+03  0.72567055704E+03  0.00000000000E+00 0. -1.
          1   -1    0    0  501    0 -0.00000000000E+00 -0.00000000000E+00 -0.79127215852E+03  0.79127215852E+03  0.00000000000E+00 0. -1.
         25    2    1    2    0    0  0.89704653414E+02 -0.78777120114E+02 -0.58297406971E+02  0.18241945026E+03  0.12500203468E+03 0.  0.
          2    1    1    2  501    0 -0.42618867186E+02  0.48448453611E+02 -0.66817498133E+03  0.67128341718E+03  0.00000000000E+00 0. -1.
          1    1    1    2  502    0 -0.47085786228E+02  0.30328666503E+02  0.66087078682E+03  0.66323984813E+03  0.00000000000E+00 0. -1.
         22    1    3    3    0    0  0.76583625644E+02  0.14791744765E+02 -0.32311632548E+02  0.84426826470E+02  0.00000000000E+00 0. -1.
         22    1    3    3    0    0  0.13121027771E+02 -0.93568864879E+02 -0.25985774423E+02  0.97992623788E+02  0.00000000000E+00 0. -1.
</event>
<event>
 7    1  0.5736319E-006  0.6947864E+02  0.7818608E-02  0.1445863E+00
          2   -1    0    0  502    0  0.00000000000E+00  0.00000000000E+00  0.21216921897E+03  0.21216921897E+03  0.00000000000E+00 0. -1.
          1   -1    0    0  501    0 -0.00000000000E+00 -0.00000000000E+00 -0.76955139121E+03  0.76955139121E+03  0.00000000000E+00 0. -1.
         25    2    1    2    0    0 -0.96711381892E+02 -0.77751340629E+01  0.12206932182E+01  0.15824087649E+03  0.12500056321E+03 0.  0.
          2    1    1    2  501    0  0.67674941652E+02 -0.13240271242E+02 -0.68685761887E+03  0.69031050341E+03  0.00000000000E+00 0. -1.
          1    1    1    2  502    0  0.29036440239E+02  0.21015405305E+02  0.12825475342E+03  0.13316923029E+03  0.00000000000E+00 0. -1.
         22    1    3    3    0    0 -0.12460441586E+03 -0.17957143616E+02 -0.10475984624E+02  0.12632682104E+03  0.00000000000E+00 0.  1.
         22    1    3    3    0    0  0.27893033971E+02  0.10182009553E+02  0.11696677842E+02  0.31914055449E+02  0.00000000000E+00 0.  1.
</event>
<event>
 7    1  0.5736319E-006  0.5945623E+02  0.7818608E-02  0.1426534E+00
          2   -1    0    0  502    0  0.00000000000E+00  0.00000000000E+00  0.12816803296E+03  0.12816803296E+03  0.00000000000E+00 0. -1.
          1   -1    0    0  501    0 -0.00000000000E+00 -0.00000000000E+00 -0.86559333193E+03  0.86559333193E+03  0.00000000000E+00 0. -1.
         25    2    1    2    0    0 -0.66255804608E+02 -0.48419615582E+02  0.31975633893E+02  0.15290746288E+03  0.12499584083E+03 0.  0.
          2    1    1    2  501    0  0.59364579817E+02  0.47962647035E+00 -0.78706482000E+03  0.78930058549E+03  0.00000000000E+00 0. -1.
          1    1    1    2  502    0  0.68912247907E+01  0.47939989111E+02  0.17663887131E+02  0.51553316515E+02  0.00000000000E+00 0. -1.
         22    1    3    3    0    0  0.12890233115E+02 -0.19775563040E+02  0.59773650749E+02  0.64266012224E+02  0.00000000000E+00 0. -1.
         22    1    3    3    0    0 -0.79146037723E+02 -0.28644052542E+02 -0.27798016856E+02  0.88641450656E+02  0.00000000000E+00 0. -1.
</event>
<event>
 7    1  0.5736319E-006  0.4723849E+02  0.7818608E-02  0.1475362E+00
          2   -1    0    0  502    0  0.00000000000E+00  0.00000000000E+00  0.90541743576E+03  0.90541743576E+03  0.00000000000E+00 0. -1.
          1   -1    0    0  501    0 -0.00000000000E+00 -0.00000000000E+00 -0.38817315162E+02  0.38817315162E+02  0.00000000000E+00 0. -1.
         25    2    1    2    0    0 -0.49139928653E+02 -0.40657287537E+01  0.31155115948E+03  0.33929509747E+03  0.12500310178E+03 0.  0.
          2    1    1    2  501    0  0.22322160957E+02 -0.36233453515E+02 -0.49571966373E+01  0.42845254369E+02  0.00000000000E+00 0. -1.
          1    1    1    2  502    0  0.26817767696E+02  0.40299182269E+02  0.56000615776E+03  0.56209439909E+03  0.00000000000E+00 0. -1.
         22    1    3    3    0    0 -0.58987773660E+02  0.51109334461E+02  0.19202668180E+03  0.20728233893E+03  0.00000000000E+00 0. -1.
         22    1    3    3    0    0  0.98478450067E+01 -0.55175063214E+02  0.11952447768E+03  0.13201275854E+03  0.00000000000E+00 0. -1.
</event>
<event>
 7    1  0.5736319E-006  0.4773373E+02  0.7818608E-02  0.1578246E+00
          2   -1    0    0  502    0  0.00000000000E+00  0.00000000000E+00  0.78660413482E+02  0.78660413482E+02  0.00000000000E+00 0. -1.
          1   -1    0    0  501    0 -0.00000000000E+00 -0.00000000000E+00 -0.32632724070E+03  0.32632724070E+03  0.00000000000E+00 0. -1.
         25    2    1    2    0    0 -0.27036211526E+02  0.30779007626E+02 -0.24088962460E+03  0.27446438427E+03  0.12499833179E+03 0.  0.
          2    1    1    2  501    0  0.47340327733E+02 -0.24393378014E+02 -0.55766087236E+02  0.77110310636E+02  0.00000000000E+00 0. -1.
          1    1    1    2  502    0 -0.20304116207E+02 -0.63856296120E+01  0.48988884628E+02  0.53412959266E+02  0.00000000000E+00 0. -1.
         22    1    3    3    0    0  0.33945818202E+02 -0.24362292604E+02 -0.12912828365E+03  0.13572012935E+03  0.00000000000E+00 0.  1.
         22    1    3    3    0    0 -0.60982029728E+02  0.55141300231E+02 -0.11176134096E+03  0.13874425492E+03  0.00000000000E+00 0.  1.
</event>
<event>
 7    1  0.5736319E-006  0.1172466E+03  0.7818608E-02  0.1288348E+00
          2   -1    0    0  502    0  0.00000000000E+00  0.00000000000E+00  0.67283334763E+03  0.67283334763E+03  0.00000000000E+00 0. -1.
          1   -1    0    0  501    0 -0.00000000000E+00 -0.00000000000E+00 -0.24137595201E+03  0.24137595201E+03  0.00000000000E+00 0. -1.
         25    2    1    2    0    0 -0.57764828812E+01  0.99186411430E+02  0.39016178693E+03  0.42157214779E+03  0.12500217537E+03 0.  0.
          2    1    1    2  501    0  0.69399039182E+02  0.37832160950E+02 -0.19599841668E+03  0.21133593727E+03  0.00000000000E+00 0. -1.
          1    1    1    2  502    0 -0.63622556301E+02 -0.13701857238E+03  0.23729402537E+03  0.28130121458E+03  0.00000000000E+00 0. -1.
         22    1    3    3    0    0 -0.23381004390E+02  0.82191333615E+02  0.38766997772E+03  0.39697619364E+03  0.00000000000E+00 0. -1.
         22    1    3    3    0    0  0.17604521509E+02  0.16995077815E+02  0.24918092041E+01  0.24595954151E+02  0.00000000000E+00 0. -1.
</event>
<event>
 7    1  0.5736319E-006  0.1414740E+03  0.7818608E-02  0.1387200E+00
          2   -1    0    0  502    0  0.00000000000E+00  0.00000000000E+00  0.17231728465E+03  0.17231728465E+03  0.00000000000E+00 0. -1.
          1   -1    0    0  501    0 -0.00000000000E+00 -0.00000000000E+00 -0.10890154908E+04  0.10890154908E+04  0.00000000000E+00 0. -1.
         25    2    1    2    0    0  0.12079597826E+03  0.21689788045E+02 -0.29778516498E+03  0.34549147679E+03  0.12500496303E+03 0.  0.
          2    1    1    2  501    0 -0.14164336915E+03 -0.39939825730E+02 -0.75895148348E+03  0.77308821487E+03  0.00000000000E+00 0. -1.
          1    1    1    2  502    0  0.20847390890E+02  0.18250037685E+02  0.14003844235E+03  0.14275308374E+03  0.00000000000E+00 0. -1.
         22    1    3    3    0    0  0.13714481722E+03  0.94704352198E+00 -0.18882613845E+03  0.23337718043E+03  0.00000000000E+00 0.  1.
         22    1    3    3    0    0 -0.16348838964E+02  0.20742744523E+02 -0.10895902653E+03  0.11211429636E+03  0.00000000000E+00 0.  1.
</event>
<event>
 7    1  0.5736319E-006  0.1746661E+03  0.7818608E-02  0.1204976E+00
          2   -1    0    0  502    0  0.00000000000E+00  0.00000000000E+00  0.10004532744E+04  0.10004532744E+04  0.00000000000E+00 0. -1.
          1   -1    0    0  501    0 -0.00000000000E+00 -0.00000000000E+00 -0.20462734583E+03  0.20462734583E+03  0.00000000000E+00 0. -1.
         25    2    1    2    0    0 -0.23632759835E+03 -0.36607557711E+01  0.31491507862E+03  0.41311025866E+03  0.12499777674E+03 0.  0.
          2    1    1    2  501    0  0.14876296603E+03 -0.82288104986E+02 -0.10067781555E+03  0.19757979357E+03  0.00000000000E+00 0. -1.
          1    1    1    2  502    0  0.87564632317E+02  0.85948860757E+02  0.58158866545E+03  0.59439056796E+03  0.00000000000E+00 0. -1.
         22    1    3    3    0    0 -0.10126262907E+03 -0.47108107991E+02  0.75490231514E+02  0.13480381649E+03  0.00000000000E+00 0. -1.
         22    1    3    3    0    0 -0.13506496927E+03  0.43447352220E+02  0.23942484711E+03  0.27830644217E+03  0.00000000000E+00 0. -1.
</event>
<event>
 7    1  0.5736319E-006  0.1180981E+03  0.7818608E-02  0.1343030E+00
          2   -1    0    0  502    0  0.00000000000E+00  0.00000000000E+00  0.73100034293E+03  0.73100034293E+03  0.00000000000E+00 0. -1.
          1   -1    0    0  501    0 -0.00000000000E+00 -0.00000000000E+00 -0.77651182998E+03  0.77651182998E+03  0.00000000000E+00 0. -1.
         25    2    1    2    0    0 -0.10029767967E+03  0.76028600258E+01  0.12034297694E+03  0.20056100825E+03  0.12499943161E+03 0.  0.
          2    1    1    2  501    0  0.11234035287E+03  0.38837471653E+02 -0.73058252986E+03  0.74018885227E+03  0.00000000000E+00 0. -1.
          1    1    1    2  502    0 -0.12042673196E+02 -0.46440331679E+02  0.56472806587E+03  0.56676231240E+03  0.00000000000E+00 0. -1.
         22    1    3    3    0    0 -0.17170547878E+02  0.59846551860E+02  0.46223643189E+02  0.77543940276E+02  0.00000000000E+00 0.  1.
         22    1    3    3    0    0 -0.83127131794E+02 -0.52243691834E+02  0.74119333749E+02  0.12301706797E+03  0.00000000000E+00 0.  1.
</event>
<event>
 7    1  0.5736319E-006  0.3752802E+02  0.7818608E-02  0.1539185E+00
          2   -1    0    0  502    0  0.00000000000E+00  0.00000000000E+00  0.85084404133E+03  0.85084404133E+03  0.00000000000E+00 0. -1.
          1   -1    0    0  501    0 -0.00000000000E+00 -0.00000000000E+00 -0.95787814617E+03  0.95787814617E+03  0.00000000000E+00 0. -1.
         25    2    1    2    0    0  0.33138180884E+01  0.50615351721E+02 -0.91942288260E+02  0.16325248682E+03  0.12500037945E+03 0.  0.
          2    1    1    2  501    0 -0.27402514814E+02 -0.25646678180E+02 -0.82948708140E+03  0.83033575627E+03  0.00000000000E+00 0. -1.
          1    1    1    2  502    0  0.24088696725E+02 -0.24968673541E+02  0.81439526482E+03  0.81513394441E+03  0.00000000000E+00 0. -1.
         22    1    3    3    0    0  0.42811921465E+02 -0.50914718718E+01 -0.84110078648E+02  0.94516078186E+02  0.00000000000E+00 0.  1.
         22    1    3    3    0    0 -0.39498103376E+02  0.55706823593E+02 -0.78322096119E+01  0.68736408639E+02  0.00000000000E+00 0.  1.
</event>
<event>
 7    1  0.5736319E-006  0.2571516E+02  0.7818608E-02  0.1668879E+00
          2   -1    0    0  502    0  0.00000000000E+00  0.00000000000E+00  0.17394912467E+03  0.17394912467E+03  0.00000000000E+00 0. -1.
          1   -1    0    0  501    0 -0.00000000000E+00 -0.00000000000E+00 -0.77345205259E+02  0.77345205259E+02  0.00000000000E+00 0. -1.
         25    2    1    2    0    0  0.15334682214E+02  0.45711677487E+02  0.10190613217E+03  0.16833600726E+03  0.12500976613E+03 0.  0.
          2    1    1    2  501    0 -0.63453366360E+01 -0.24251950154E+02 -0.36352660894E+02  0.44158083488E+02  0.00000000000E+00 0. -1.
          1    1    1    2  502    0 -0.89893455776E+01 -0.21459727332E+02  0.31050448134E+02  0.38800239180E+02  0.00000000000E+00 0. -1.
         22    1    3    3    0    0  0.35128408251E+02  0.77400326628E+02  0.35446126353E+02  0.92093667002E+02  0.00000000000E+00 0. -1.
         22    1    3    3    0    0 -0.19793726038E+02 -0.31688649141E+02  0.66460005817E+02  0.76242340258E+02  0.00000000000E+00 0. -1.
</event>
<event>
 7    1  0.5736319E-006  0.2811101E+02  0.7818608E-02  0.1647470E+00
          2   -1    0    0  502    0  0.00000000000E+00  0.00000000000E+00  0.67928665099E+02  0.67928665099E+02  0.00000000000E+00 0. -1.
          1   -1    0    0  501    0 -0.00000000000E+00 -0.00000000000E+00 -0.51783837902E+03  0.51783837902E+03  0.00000000000E+00 0. -1.
         25    2    1    2    0    0 -0.57681884410E+01  0.88013366472E+01 -0.36564245054E+01  0.12549597372E+03  0.12500053782E+03 0.  0.
          2    1    1    2  501    0  0.92083905346E+01  0.26560012703E+02 -0.40438164773E+03  0.40535755297E+03  0.00000000000E+00 0. -1.
          1    1    1    2  502    0 -0.34402020936E+01 -0.35361349350E+02 -0.41871641682E+02  0.54913517420E+02  0.00000000000E+00 0. -1.
         22    1    3    3    0    0 -0.22622575687E+02 -0.48652792734E+02  0.24909638729E+02  0.59155433167E+02  0.00000000000E+00 0. -1.
         22    1    3    3    0    0  0.16854387246E+02  0.57454129381E+02 -0.28566063235E+02  0.66340540555E+02  0.00000000000E+00 0. -1.
</event>
<event>
 7    1  0.5736319E-006  0.3392387E+02  0.7818608E-02  0.1603670E+00
          2   -1    0    0  502    0  0.00000000000E+00  0.00000000000E+00  0.13132094831E+03  0.13132094831E+03  0.00000000000E+00 0. -1.
          1   -1    0    0  501    0 -0.00000000000E+00 -0.00000000000E+00 -0.62235100909E+03  0.62235100909E+03  0.00000000000E+00 0. -1.
         25    2    1    2    0    0  0.85587891532E+01 -0.55814996703E+01  0.57123768872E+01  0.12554766271E+03  0.12500071340E+03 0.  0.
          2    1    1    2  501    0  0.21099543293E+02 -0.14593892182E+02 -0.55721947582E+03  0.55780974951E+03  0.00000000000E+00 0. -1.
          1    1    1    2  502    0 -0.29658332447E+02  0.20175391852E+02  0.60477038160E+02  0.70314545185E+02  0.00000000000E+00 0. -1.
         22    1    3    3    0    0  0.50097891004E+02  0.18895994303E+02  0.39616617536E+02  0.66605808071E+02  0.00000000000E+00 0. -1.
         22    1    3    3    0    0 -0.41539101851E+02 -0.24477493973E+02 -0.33904240649E+02  0.58941854635E+02  0.00000000000E+00 0. -1.
</event>
<event>
 7    1  0.5736319E-006  0.1018454E+03  0.7818608E-02  0.1313449E+00
          2   -1    0    0  502    0  0.00000000000E+00  0.00000000000E+00  0.24840658656E+04  0.24840658656E+04  0.00000000000E+00 0. -1.
          1   -1    0    0  501    0 -0.00000000000E+00 -0.00000000000E+00 -0.21503618604E+03  0.21503618604E+03  0.00000000000E+00 0. -1.
         25    2    1    2    0    0  0.66977713991E+02  0.24558696997E+02  0.46014254182E+03  0.48213337829E+03  0.12502916418E+03 0.  0.
          2    1    1    2  501    0  0.33698462025E+02 -0.63876161198E+02 -0.19614881068E+03  0.20902178414E+03  0.00000000000E+00 0. -1.
          1    1    1    2  502    0 -0.10067617602E+03  0.39317464201E+02  0.20050359484E+04  0.20079468892E+04  0.00000000000E+00 0. -1.
         22    1    3    3    0    0 -0.36069293742E+02 -0.52410512379E+01  0.12897233460E+03  0.13402360113E+03  0.00000000000E+00 0. -1.
         22    1    3    3    0    0  0.10304700773E+03  0.29799748235E+02  0.33117020722E+03  0.34810977715E+03  0.00000000000E+00 0. -1.
</event>
<event>
 7    1  0.5736319E-006  0.1002456E+03  0.7818608E-02  0.1335760E+00
          2   -1    0    0  502    0  0.00000000000E+00  0.00000000000E+00  0.22742245567E+04  0.22742245567E+04  0.00000000000E+00 0. -1.
          1   -1    0    0  501    0 -0.00000000000E+00 -0.00000000000E+00 -0.32305685304E+04  0.32305685304E+04  0.00000000000E+00 0. -1.
         25    2    1    2    0    0  0.11305889087E+03  0.35343645148E+02  0.87225474057E+02  0.19304226960E+03  0.12500219386E+03 0.  0.
          2    1    1    2  501    0 -0.45868120052E+02  0.38985743945E+02 -0.31761986909E+04  0.31767690972E+04  0.00000000000E+00 0. -1.
          1    1    1    2  502    0 -0.67190770816E+02 -0.74329389092E+02  0.21326292431E+04  0.21349817204E+04  0.00000000000E+00 0. -1.
         22    1    3    3    0    0  0.19834610531E+02  0.67763595662E+02  0.19201371306E+02  0.73171096288E+02  0.00000000000E+00 0.  1.
         22    1    3    3    0    0  0.93224280336E+02 -0.32419950514E+02  0.68024102750E+02  0.11987117331E+03  0.00000000000E+00 0.  1.
</event>
<event>
 7    1  0.5736319E-006  0.1744164E+03  0.7818608E-02  0.1318963E+00
          2   -1    0    0  502    0  0.00000000000E+00  0.00000000000E+00  0.94064240826E+03  0.94064240826E+03  0.00000000000E+00 0. -1.
          1   -1    0    0  501    0 -0.00000000000E+00 -0.00000000000E+00 -0.52126331405E+03  0.52126331405E+03  0.00000000000E+00 0. -1.
         25    2    1    2    0    0 -0.11330995975E+03  0.88652035468E+02  0.70668638991E+02  0.20326640410E+03  0.12499937651E+03 0.  0.
          2    1    1    2  501    0  0.15335725110E+03 -0.91263051239E+02 -0.43693259707E+03  0.47197191163E+03  0.00000000000E+00 0. -1.
          1    1    1    2  502    0 -0.40047291350E+02  0.26110157711E+01  0.78564305230E+03  0.78666740658E+03  0.00000000000E+00 0. -1.
         22    1    3    3    0    0 -0.99223240907E+02  0.25950922026E+01  0.58514434927E+02  0.11522120089E+03  0.00000000000E+00 0. -1.
         22    1    3    3    0    0 -0.14086718844E+02  0.86056943265E+02  0.12154204064E+02  0.88045203211E+02  0.00000000000E+00 0. -1.
</event>
<event>
 7    1  0.5736319E-006  0.7781637E+02  0.7818608E-02  0.1385548E+00
          2   -1    0    0  502    0  0.00000000000E+00  0.00000000000E+00  0.29181503844E+02  0.29181503844E+02  0.00000000000E+00 0. -1.
          1   -1    0    0  501    0 -0.00000000000E+00 -0.00000000000E+00 -0.11233300759E+04  0.11233300759E+04  0.00000000000E+00 0. -1.
         25    2    1    2    0    0  0.27900739965E+02 -0.68504902802E+02 -0.26233638296E+03  0.29987477342E+03  0.12503251142E+03 0.  0.
          2    1    1    2  501    0 -0.48486178931E+02 -0.15973269095E+02 -0.64005047953E+03  0.64208307189E+03  0.00000000000E+00 0. -1.
          1    1    1    2  502    0  0.20585438966E+02  0.84478171897E+02 -0.19176170961E+03  0.21055373446E+03  0.00000000000E+00 0. -1.
         22    1    3    3    0    0  0.70079245221E+02 -0.73600920729E+02 -0.16686262785E+03  0.19537485180E+03  0.00000000000E+00 0.  1.
         22    1    3    3    0    0 -0.42178505256E+02  0.50960179278E+01 -0.95473755107E+02  0.10449992162E+03  0.00000000000E+00 0.  1.
</event>
<event>
 7    1  0.5736319E-006  0.4102559E+02  0.7818608E-02  0.1552659E+00
          2   -1    0    0  502    0  0.00000000000E+00  0.00000000000E+00  0.19557662345E+04  0.19557662345E+04  0.00000000000E+00 0. -1.
          1   -1    0    0  501    0 -0.00000000000E+00 -0.00000000000E+00 -0.66088061274E+03  0.66088061274E+03  0.00000000000E+00 0. -1.
         25    2    1    2    0    0 -0.15845380050E+02 -0.40615189272E+02  0.70406472058E+01  0.13257972761E+03  0.12500857487E+03 0.  0.
          2    1    1    2  501    0  0.36070859279E+02  0.19704511233E+02 -0.59729258085E+03  0.59870510419E+03  0.00000000000E+00 0. -1.
          1    1    1    2  502    0 -0.20225479229E+02  0.20910678039E+02  0.18851375554E+04  0.18853620155E+04  0.00000000000E+00 0. -1.
         22    1    3    3    0    0  0.29417384134E+02 -0.38378011631E+02  0.50410203576E+02  0.69853009174E+02  0.00000000000E+00 0.  1.
         22    1    3    3    0    0 -0.45262764185E+02 -0.22371776405E+01 -0.43369556370E+02  0.62726718431E+02  0.00000000000E+00 0.  1.
</event>
<event>
 7    1  0.5736319E-006  0.1398502E+03  0.7818608E-02  0.1233286E+00
          2   -1    0    0  502    0  0.00000000000E+00  0.00000000000E+00  0.57282500938E+02  0.57282500938E+02  0.00000000000E+00 0. -1.
          1   -1    0    0  501    0 -0.00000000000E+00 -0.00000000000E+00 -0.30949602249E+04  0.30949602249E+04  0.00000000000E+00 0. -1.
         25    2    1    2    0    0  0.31448878752E+02  0.40618825260E+02 -0.67144671450E+03  0.68491909754E+03  0.12503822943E+03 0.  0.
          2    1    1    2  501    0 -0.13787166206E+03  0.50113011326E+02 -0.23130592553E+04  0.23177064153E+04  0.00000000000E+00 0. -1.
          1    1    1    2  502    0  0.10642278331E+03 -0.90731836586E+02 -0.53171754155E+02  0.14961721297E+03  0.00000000000E+00 0. -1.
         22    1    3    3    0    0 -0.23471763070E+02 -0.90338791282E+00 -0.23160638911E+02  0.32987193971E+02  0.00000000000E+00 0. -1.
         22    1    3    3    0    0  0.54920641822E+02  0.41522213173E+02 -0.64828607559E+03  0.65193190357E+03  0.00000000000E+00 0. -1.
</event>
<event>
 7    1  0.5736319E-006  0.4055684E+02  0.7818608E-02  0.1552356E+00
          2   -1    0    0  502    0  0.00000000000E+00  0.00000000000E+00  0.13951229722E+04  0.13951229722E+04  0.00000000000E+00 0. -1.
          1   -1    0    0  501    0 -0.00000000000E+00 -0.00000000000E+00 -0.10629712670E+03  0.10629712670E+03  0.00000000000E+00 0. -1.
         25    2    1    2    0    0 -0.11563022470E+02 -0.14180496372E+02  0.16717139450E+03  0.20953661977E+03  0.12499811966E+03 0.  0.
          2    1    1    2  501    0 -0.28729939338E+02  0.66307255468E+01 -0.82201569910E+02  0.87329685854E+02  0.00000000000E+00 0. -1.
          1    1    1    2  502    0  0.40292961808E+02  0.75497708250E+01  0.12038560210E+04  0.12045537933E+04  0.00000000000E+00 0. -1.
         22    1    3    3    0    0 -0.10859291886E+02 -0.69474449623E+02  0.82424862023E+02  0.10834427188E+03  0.00000000000E+00 0.  1.
         22    1    3    3    0    0 -0.70373058429E+00  0.55293953251E+02  0.84746532477E+02  0.10119234788E+03  0.00000000000E+00 0.  1.
</event>
<event>
 7    1  0.5736319E-006  0.4709987E+02  0.7818608E-02  0.1480241E+00
          2   -1    0    0  502    0  0.00000000000E+00  0.00000000000E+00  0.24377138667E+03  0.24377138667E+03  0.00000000000E+00 0. -1.
          1   -1    0    0  501    0 -0.00000000000E+00 -0.00000000000E+00 -0.65746591079E+02  0.65746591079E+02  0.00000000000E+00 0. -1.
         25    2    1    2    0    0  0.25364704917E+02 -0.16119408729E+02  0.88119427724E+02  0.15586282172E+03  0.12499992823E+03 0.  0.
          2    1    1    2  501    0 -0.58447130233E+01  0.52438604344E+02 -0.21293224462E+01  0.52806267714E+02  0.00000000000E+00 0. -1.
          1    1    1    2  502    0 -0.19519991894E+02 -0.36319195615E+02  0.92034690313E+02  0.10084888832E+03  0.00000000000E+00 0. -1.
         22    1    3    3    0    0  0.33034518129E+02 -0.13783807666E+02 -0.24231980330E+02  0.43225705460E+02  0.00000000000E+00 0.  1.
         22    1    3    3    0    0 -0.76698132120E+01 -0.23356010630E+01  0.11235140805E+03  0.11263711626E+03  0.00000000000E+00 0.  1.
</event>
<event>
 7    1  0.5736319E-006  0.1239357E+03  0.7818608E-02  0.1366403E+00
          2   -1    0    0  502    0  0.00000000000E+00  0.00000000000E+00  0.15338303944E+04  0.15338303944E+04  0.00000000000E+00 0. -1.
          1   -1    0    0  501    0 -0.00000000000E+00 -0.00000000000E+00 -0.74822523976E+03  0.74822523976E+03  0.00000000000E+00 0. -1.
         25    2    1    2    0    0  0.54872071193E+02  0.78297041919E+02  0.96822389059E+02  0.18477242278E+03  0.12499960890E+03 0.  0.
          2    1    1    2  501    0 -0.91757033623E+02 -0.85086783537E+02 -0.69843598583E+03  0.70955756655E+03  0.00000000000E+00 0. -1.
          1    1    1    2  502    0  0.36884962430E+02  0.67897416179E+01  0.13872187514E+04  0.13877256449E+04  0.00000000000E+00 0. -1.
         22    1    3    3    0    0  0.42683876962E+02  0.10634683728E+03  0.10240627944E+03  0.15368347088E+03  0.00000000000E+00 0.  1.
         22    1    3    3    0    0  0.12188194231E+02 -0.28049795363E+02 -0.55838903764E+01  0.31088951900E+02  0.00000000000E+00 0.  1.
</event>
<event>
 7    1  0.5736319E-006  0.7078516E+02  0.7818608E-02  0.1429083E+00
          2   -1    0    0  502    0  0.00000000000E+00  0.00000000000E+00  0.81987551617E+02  0.81987551617E+02  0.00000000000E+00 0. -1.
          1   -1    0    0  501    0 -0.00000000000E+00 -0.00000000000E+00 -0.85661348271E+03  0.85661348271E+03  0.00000000000E+00 0. -1.
         25    2    1    2    0    0 -0.87055454260E+02  0.62240659516E+02 -0.31307566912E+03  0.35367392520E+03  0.12496527101E+03 0.  0.
          2    1    1    2  501    0  0.26407867951E+02 -0.29910695880E+02 -0.50305846833E+03  0.50463833364E+03  0.00000000000E+00 0. -1.
          1    1    1    2  502    0  0.60647586309E+02 -0.32329963635E+02  0.41508206361E+02  0.80288775486E+02  0.00000000000E+00 0. -1.
         22    1    3    3    0    0 -0.67937529678E+02  0.26657478696E+02 -0.30351273646E+03  0.31216359542E+03  0.00000000000E+00 0.  1.
         22    1    3    3    0    0 -0.19117924582E+02  0.35583180820E+02 -0.95629326578E+01  0.41510329782E+02  0.00000000000E+00 0.  1.
</event>
<event>
 7    1  0.5736319E-006  0.9062037E+02  0.7818608E-02  0.1343501E+00
          2   -1    0    0  502    0  0.00000000000E+00  0.00000000000E+00  0.60133439538E+03  0.60133439538E+03  0.00000000000E+00 0. -1.
          1   -1    0    0  501    0 -0.00000000000E+00 -0.00000000000E+00 -0.27212389750E+04  0.27212389750E+04  0.00000000000E+00 0. -1.
         25    2    1    2    0    0  0.13398484541E+03  0.65167621758E+02 -0.29668068394E+03  0.35474419119E+03  0.12500102093E+03 0.  0.
          2    1    1    2  501    0 -0.84820869540E+02 -0.26951120533E+02 -0.23930030028E+04  0.23946574524E+04  0.00000000000E+00 0. -1.
          1    1    1    2  502    0 -0.49163975868E+02 -0.38216501225E+02  0.56977910713E+03  0.57317172681E+03  0.00000000000E+00 0. -1.
         22    1    3    3    0    0  0.92610219654E+02  0.79650338475E+02 -0.28393086711E+03  0.30909151800E+03  0.00000000000E+00 0. -1.
         22    1    3    3    0    0  0.41374625754E+02 -0.14482716718E+02 -0.12749816834E+02  0.45652673187E+02  0.00000000000E+00 0. -1.
</event>
<event>
 7    1  0.5736319E-006  0.1190877E+03  0.7818608E-02  0.1416091E+00
          2   -1    0    0  502    0  0.00000000000E+00  0.00000000000E+00  0.28780529707E+03  0.28780529707E+03  0.00000000000E+00 0. -1.
          1   -1    0    0  501    0 -0.00000000000E+00 -0.00000000000E+00 -0.40475064765E+03  0.40475064765E+03  0.00000000000E+00 0. -1.
         25    2    1    2    0    0  0.99073264605E+02 -0.75678239810E+02 -0.50086190198E+02  0.18351063735E+03  0.12499927933E+03 0.  0.
          2    1    1    2  501    0  0.81622234096E+01  0.24894879531E+02 -0.27135670169E+03  0.27261848153E+03  0.00000000000E+00 0. -1.
          1    1    1    2  502    0 -0.10723548801E+03  0.50783360278E+02  0.20449754132E+03  0.23642682584E+03  0.00000000000E+00 0. -1.
         22    1    3    3    0    0 -0.15644635077E+02  0.18373005545E+02  0.60876808231E+01  0.24887382290E+02  0.00000000000E+00 0. -1.
         22    1    3    3    0    0  0.11471789968E+03 -0.94051245355E+02 -0.56173871021E+02  0.15862325506E+03  0.00000000000E+00 0. -1.
</event>
<event>
 7    1  0.5736319E-006  0.8937388E+02  0.7818608E-02  0.1414279E+00
          2   -1    0    0  502    0  0.00000000000E+00  0.00000000000E+00  0.11916616662E+04  0.11916616662E+04  0.00000000000E+00 0. -1.
          1   -1    0    0  501    0 -0.00000000000E+00 -0.00000000000E+00 -0.84014185193E+03  0.84014185193E+03  0.00000000000E+00 0. -1.
         25    2    1    2    0    0  0.73064052702E+02 -0.30885817486E+02 -0.42142850229E+03  0.44667649425E+03  0.12500247381E+03 0.  0.
          2    1    1    2  501    0 -0.95483454787E+02  0.34870464973E+01 -0.40019840863E+03  0.41144624910E+03  0.00000000000E+00 0. -1.
          1    1    1    2  502    0  0.22419402085E+02  0.27398770989E+02  0.11731467252E+04  0.11736807748E+04  0.00000000000E+00 0. -1.
         22    1    3    3    0    0 -0.20851861343E+02 -0.11759599093E+02 -0.24264422438E+03  0.24382228757E+03  0.00000000000E+00 0. -1.
         22    1    3    3    0    0  0.93915914045E+02 -0.19126218394E+02 -0.17878427791E+03  0.20285420668E+03  0.00000000000E+00 0. -1.
</event>
<event>
 7    1  0.5736319E-006  0.7556335E+02  0.7818608E-02  0.1362842E+00
          2   -1    0    0  502    0  0.00000000000E+00  0.00000000000E+00  0.39851960502E+03  0.39851960502E+03  0.00000000000E+00 0. -1.
          1   -1    0    0  501    0 -0.00000000000E+00 -0.00000000000E+00 -0.35579586320E+03  0.35579586320E+03  0.00000000000E+00 0. -1.
         25    2    1    2    0    0 -0.43820735358E+01  0.26550512880E+02 -0.25483749671E+02  0.13038383332E+03  0.12500556064E+03 0.  0.
          2    1    1    2  501    0 -0.40721303814E+02 -0.71062225972E+02 -0.26880889701E+03  0.28100940849E+03  0.00000000000E+00 0. -1.
          1    1    1    2  502    0  0.45103377350E+02  0.44511713092E+02  0.33701638850E+03  0.34292222642E+03  0.00000000000E+00 0. -1.
         22    1    3    3    0    0 -0.33021611392E+02  0.67820594710E+02 -0.33973312218E+01  0.75508951424E+02  0.00000000000E+00 0.  1.
         22    1    3    3    0    0  0.28639537856E+02 -0.41270081830E+02 -0.22086418449E+02  0.54874881893E+02  0.00000000000E+00 0.  1.
</event>
<event>
 7    1  0.5736319E-006  0.5084680E+02  0.7818608E-02  0.1486483E+00
          2   -1    0    0  502    0  0.00000000000E+00  0.00000000000E+00  0.88837302131E+03  0.88837302131E+03  0.00000000000E+00 0. -1.
          1   -1    0    0  501    0 -0.00000000000E+00 -0.00000000000E+00 -0.58344951294E+02  0.58344951294E+02  0.00000000000E+00 0. -1.
         25    2    1    2    0    0  0.64135871606E+02  0.46855076456E+02  0.17488048060E+03  0.22915912825E+03  0.12498766078E+03 0.  0.
          2    1    1    2  501    0 -0.36154897487E+02 -0.53885574296E+01 -0.19246834110E+02  0.41311666472E+02  0.00000000000E+00 0. -1.
          1    1    1    2  502    0 -0.27980974119E+02 -0.41466519027E+02  0.67439442352E+03  0.67624717788E+03  0.00000000000E+00 0. -1.
         22    1    3    3    0    0  0.73506294197E+01 -0.38483529625E+02  0.21532781184E+02  0.44706537227E+02  0.00000000000E+00 0. -1.
         22    1    3    3    0    0  0.56785242186E+02  0.85338606082E+02  0.15334769942E+03  0.18445259102E+03  0.00000000000E+00 0. -1.
</event>
<event>
 7    1  0.5736319E-006  0.6602235E+02  0.7818608E-02  0.1461513E+00
          2   -1    0    0  502    0  0.00000000000E+00  0.00000000000E+00  0.53842364067E+03  0.53842364067E+03  0.00000000000E+00 0. -1.
          1   -1    0    0  501    0 -0.00000000000E+00 -0.00000000000E+00 -0.98643759931E+02  0.98643759931E+02  0.00000000000E+00 0. -1.
         25    2    1    2    0    0  0.36257460309E+02  0.45384102381E+01  0.10509161163E+03  0.16734903853E+03  0.12500501296E+03 0.  0.
          2    1    1    2  501    0 -0.69886126712E+02 -0.40460700793E+01 -0.48432442055E+02  0.85124278753E+02  0.00000000000E+00 0. -1.
          1    1    1    2  502    0  0.33628666403E+02 -0.49234015884E+00  0.38312071116E+03  0.38459408332E+03  0.00000000000E+00 0. -1.
         22    1    3    3    0    0 -0.35884608050E+02  0.24296846352E+02  0.68519348611E+01  0.43874717650E+02  0.00000000000E+00 0.  1.
         22    1    3    3    0    0  0.72142068359E+02 -0.19758436114E+02  0.98239676773E+02  0.12347432088E+03  0.00000000000E+00 0.  1.
</event>
<event>
 7    1  0.5736319E-006  0.7285741E+02  0.7818608E-02  0.1430140E+00
          2   -1    0    0  502    0  0.00000000000E+00  0.00000000000E+00  0.24903344683E+04  0.24903344683E+04  0.00000000000E+00 0. -1.
          1   -1    0    0  501    0 -0.00000000000E+00 -0.00000000000E+00 -0.21179422732E+02  0.21179422732E+02  0.00000000000E+00 0. -1.
         25    2    1    2    0    0  0.38680227398E+02 -0.41458768490E+02  0.40965630173E+03  0.43203932899E+03  0.12499882705E+03 0.  0.
          2    1    1    2  501    0 -0.22638567883E+02 -0.31085873967E+02  0.30411387498E+02  0.49027429115E+02  0.00000000000E+00 0. -1.
          1    1    1    2  502    0 -0.16041659515E+02  0.72544642458E+02  0.20290873563E+04  0.20304471329E+04  0.00000000000E+00 0. -1.
         22    1    3    3    0    0  0.63114049358E+02  0.20219743833E+02  0.26043441527E+03  0.26873463849E+03  0.00000000000E+00 0.  1.
         22    1    3    3    0    0 -0.24433821960E+02 -0.61678512324E+02  0.14922188646E+03  0.16330469050E+03  0.00000000000E+00 0.  1.
</event>
<event>
 7    1  0.5736319E-006  0.1205263E+03  0.7818608E-02  0.1342877E+00
          2   -1    0    0  502    0  0.00000000000E+00  0.00000000000E+00  0.17300850645E+03  0.17300850645E+03  0.00000000000E+00 0. -1.
          1   -1    0    0  501    0 -0.00000000000E+00 -0.00000000000E+00 -0.16281846402E+04  0.16281846402E+04  0.00000000000E+00 0. -1.
         25    2    1    2    0    0  0.97275501077E+02 -0.61570415298E+02 -0.69022121125E+03  0.71083274998E+03  0.12499775534E+03 0.  0.
          2    1    1    2  501    0  0.22045879284E+02  0.41590146884E+02 -0.90447060770E+03  0.90569467333E+03  0.00000000000E+00 0. -1.
          1    1    1    2  502    0 -0.11932138036E+03  0.19980268414E+02  0.13951568523E+03  0.18466572330E+03  0.00000000000E+00 0. -1.
         22    1    3    3    0    0  0.58943911705E+02 -0.91858964838E+02 -0.33660695084E+03  0.35385970878E+03  0.00000000000E+00 0. -1.
         22    1    3    3    0    0  0.38331589373E+02  0.30288549540E+02 -0.35361426041E+03  0.35697304120E+03  0.00000000000E+00 0. -1.
</event>
<event>
 7    1  0.5736319E-006  0.1009248E+03  0.7818608E-02  0.1336783E+00
          2   -1    0    0  502    0  0.00000000000E+00  0.00000000000E+00  0.15751830776E+03  0.15751830776E+03  0.00000000000E+00 0. -1.
          1   -1    0    0  501    0 -0.00000000000E+00 -0.00000000000E+00 -0.89867701498E+03  0.89867701498E+03  0.00000000000E+00 0. -1.
         25    2    1    2    0    0 -0.89739027807E+02  0.26375490053E+01 -0.20450772944E+03  0.25594636404E+03  0.12500032036E+03 0.  0.
          2    1    1    2  501    0  0.84923666630E+02 -0.61703546699E+02 -0.65740692482E+03  0.66573509869E+03  0.00000000000E+00 0. -1.
          1    1    1    2  502    0  0.48153611771E+01  0.59065997694E+02  0.12075594704E+03  0.13451386000E+03  0.00000000000E+00 0. -1.
         22    1    3    3    0    0 -0.61940444738E+02  0.35910369204E+02 -0.32626012237E+02  0.78680556589E+02  0.00000000000E+00 0.  1.
         22    1    3    3    0    0 -0.27798583069E+02 -0.33272820199E+02 -0.17188171720E+03  0.17726580745E+03  0.00000000000E+00 0.  1.
</event>
<event>
 7    1  0.5736319E-006  0.2128009E+03  0.7818608E-02  0.1273726E+00
          2   -1    0    0  502    0  0.00000000000E+00  0.00000000000E+00  0.24037292654E+04  0.24037292654E+04  0.00000000000E+00 0. -1.
          1   -1    0    0  501    0 -0.00000000000E+00 -0.00000000000E+00 -0.22593098184E+03  0.22593098184E+03  0.00000000000E+00 0. -1.
         25    2    1    2    0    0 -0.96552312388E+01 -0.17848628458E+03  0.19775443585E+04  0.19895372187E+04  0.12500431079E+03 0.  0.
          2    1    1    2  501    0 -0.27502598951E+02  0.21200038391E+03 -0.16587977887E+03  0.27058576600E+03  0.00000000000E+00 0. -1.
          1    1    1    2  502    0  0.37157830189E+02 -0.33514099325E+02  0.36613370398E+03  0.36953726251E+03  0.00000000000E+00 0. -1.
         22    1    3    3    0    0  0.63140972255E+01 -0.19501313668E+03  0.17599767075E+04  0.17707591598E+04  0.00000000000E+00 0. -1.
         22    1    3    3    0    0 -0.15969328464E+02  0.16526852097E+02  0.21756765103E+03  0.21877805892E+03  0.00000000000E+00 0. -1.
</event>
<event>
 7    1  0.5736319E-006  0.1072011E+03  0.7818608E-02  0.1380807E+00
          2   -1    0    0  502    0  0.00000000000E+00  0.00000000000E+00  0.52490958874E+02  0.52490958874E+02  0.00000000000E+00 0. -1.
          1   -1    0    0  501    0 -0.00000000000E+00 -0.00000000000E+00 -0.19578988363E+04  0.19578988363E+04  0.00000000000E+00 0. -1.
         25    2    1    2    0    0 -0.74757198336E+02 -0.12164303629E+03 -0.30609665869E+03  0.36014912380E+03  0.12500623957E+03 0.  0.
          2    1    1    2  501    0  0.60175459585E+02  0.86000366597E+02 -0.16074555513E+04  0.16108787969E+04  0.00000000000E+00 0. -1.
          1    1    1    2  502    0  0.14581738751E+02  0.35642669690E+02  0.81443325570E+01  0.39361874453E+02  0.00000000000E+00 0. -1.
         22    1    3    3    0    0 -0.47287764771E+02 -0.43751254918E+02 -0.25503546119E+03  0.26304636753E+03  0.00000000000E+00 0.  1.
         22    1    3    3    0    0 -0.27469433564E+02 -0.77891781370E+02 -0.51061197497E+02  0.97102756270E+02  0.00000000000E+00 0.  1.
</event>
<event>
 7    1  0.5736319E-006  0.1251959E+03  0.7818608E-02  0.1329030E+00
          2   -1    0    0  502    0  0.00000000000E+00  0.00000000000E+00  0.13831515787E+03  0.13831515787E+03  0.00000000000E+00 0. -1.
          1   -1    0    0  501    0 -0.00000000000E+00 -0.00000000000E+00 -0.55711721502E+03  0.55711721502E+03  0.00000000000E+00 0. -1.
         25    2    1    2    0    0  0.13604924397E+03  0.82819419567E+02 -0.30052924554E+03  0.36237155428E+03  0.12500745134E+03 0.  0.
          2    1    1    2  501    0 -0.99683132130E+02 -0.46878865215E+02 -0.20480618042E+03  0.23255091136E+03  0.00000000000E+00 0. -1.
          1    1    1    2  502    0 -0.36366111836E+02 -0.35940554352E+02  0.86533368806E+02  0.10050990724E+03  0.00000000000E+00 0. -1.
         22    1    3    3    0    0  0.11088797643E+03  0.10933285502E+03 -0.28015268348E+03  0.32052354448E+03  0.00000000000E+00 0. -1.
         22    1    3    3    0    0  0.25161267533E+02 -0.26513435454E+02 -0.20376562061E+02  0.41848009808E+02  0.00000000000E+00 0. -1.
</event>
<event>
 7    1  0.5736319E-006  0.1300339E+03  0.7818608E-02  0.1290178E+00
          2   -1    0    0  502    0  0.00000000000E+00  0.00000000000E+00  0.14469499985E+04  0.14469499985E+04  0.00000000000E+00 0. -1.
          1   -1    0    0  501    0 -0.00000000000E+00 -0.00000000000E+00 -0.16888439108E+04  0.16888439108E+04  0.00000000000E+00 0. -1.
         25    2    1    2    0    0  0.12616284385E+03 -0.14772221100E+03  0.24211853470E+03  0.33464263310E+03  0.12500156900E+03 0.  0.
          2    1    1    2  501    0 -0.37280622971E+02  0.59312963098E+02 -0.16384398434E+04  0.16399368869E+04  0.00000000000E+00 0. -1.
          1    1    1    2  502    0 -0.88882220875E+02  0.88409247906E+02  0.11544273964E+04  0.11612143893E+04  0.00000000000E+00 0. -1.
         22    1    3    3    0    0  0.24312733617E+02  0.23752275353E+01 -0.79717557802E+01  0.25696295686E+02  0.00000000000E+00 0. -1.
         22    1    3    3    0    0  0.10185011023E+03 -0.15009743854E+03  0.25009029048E+03  0.30894633742E+03  0.00000000000E+00 0. -1.
</event>
<event>
 7    1  0.5736319E-006  0.6941150E+02  0.7818608E-02  0.1416989E+00
          2   -1    0    0  502    0  0.00000000000E+00  0.00000000000E+00  0.10545109831E+04  0.10545109831E+04  0.00000000000E+00 0. -1.
          1   -1    0    0  501    0 -0.00000000000E+00 -0.00000000000E+00 -0.12611805627E+04  0.12611805627E+04  0.00000000000E+00 0. -1.
         25    2    1    2    0    0 -0.30068956846E+01 -0.38923871010E+02 -0.10238640534E+03  0.16623098508E+03  0.12500262096E+03 0.  0.
          2    1    1    2  501    0 -0.35807464461E+02  0.60968917790E+02 -0.11252745985E+04  0.11274938162E+04  0.00000000000E+00 0. -1.
          1    1    1    2  502    0  0.38814360146E+02 -0.22045046780E+02  0.10209914243E+04  0.10219667446E+04  0.00000000000E+00 0. -1.
         22    1    3    3    0    0 -0.44639505771E+02 -0.11055894822E+02  0.64301213710E+01  0.46435597839E+02  0.00000000000E+00 0.  1.
         22    1    3    3    0    0  0.41632610086E+02 -0.27867976187E+02 -0.10881652671E+03  0.11979538724E+03  0.00000000000E+00 0.  1.
</event>
<event>
 7    1  0.5736319E-006  0.9727585E+02  0.7818608E-02  0.1317760E+00
          2   -1    0    0  502    0  0.00000000000E+00  0.00000000000E+00  0.41378448485E+03  0.41378448485E+03  0.00000000000E+00 0. -1.
          1   -1    0    0  501    0 -0.00000000000E+00 -0.00000000000E+00 -0.68961339569E+03  0.68961339569E+03  0.00000000000E+00 0. -1.
         25    2    1    2    0    0  0.15224949516E+03 -0.46280979673E+02 -0.29576475438E+03  0.35836437763E+03  0.12500559734E+03 0.  0.
          2    1    1    2  501    0 -0.81033589073E+02  0.31483972897E+02 -0.35378011657E+03  0.36430489152E+03  0.00000000000E+00 0. -1.
          1    1    1    2  502    0 -0.71215906083E+02  0.14797006776E+02  0.37371596011E+03  0.38072861139E+03  0.00000000000E+00 0. -1.
         22    1    3    3    0    0  0.14238120098E+03 -0.81567400095E+02 -0.22266650146E+03  0.27659721261E+03  0.00000000000E+00 0.  1.
         22    1    3    3    0    0  0.98682941808E+01  0.35286420422E+02 -0.73098252916E+02  0.81767165021E+02  0.00000000000E+00 0.  1.
</event>
<event>
 7    1  0.5736319E-006  0.8237890E+02  0.7818608E-02  0.1473984E+00
          2   -1    0    0  502    0  0.00000000000E+00  0.00000000000E+00  0.33668209968E+03  0.33668209968E+03  0.00000000000E+00 0. -1.
          1   -1    0    0  501    0 -0.00000000000E+00 -0.00000000000E+00 -0.94374787836E+03  0.94374787836E+03  0.00000000000E+00 0. -1.
         25    2    1    2    0    0 -0.30765148018E+02  0.50234815157E+02 -0.30478569186E+03  0.33464948097E+03  0.12500370458E+03 0.  0.
          2    1    1    2  501    0 -0.18499375300E+02  0.16282140983E+02 -0.61845720529E+03  0.61894801864E+03  0.00000000000E+00 0. -1.
          1    1    1    2  502    0  0.49264523319E+02 -0.66516956140E+02  0.31617711848E+03  0.32683247843E+03  0.00000000000E+00 0. -1.
         22    1    3    3    0    0  0.14746207068E+02 -0.36379558929E+02 -0.69294020281E+02  0.79640342650E+02  0.00000000000E+00 0.  1.
         22    1    3    3    0    0 -0.45511355086E+02  0.86614374086E+02 -0.23549167158E+03  0.25500913831E+03  0.00000000000E+00 0.  1.
</event>
<event>
 7    1  0.5736319E-006  0.1588585E+03  0.7818608E-02  0.1246966E+00
          2   -1    0    0  502    0  0.00000000000E+00  0.00000000000E+00  0.20324758143E+04  0.20324758143E+04  0.00000000000E+00 0. -1.
          1   -1    0    0  501    0 -0.00000000000E+00 -0.00000000000E+00 -0.82351867142E+03  0.82351867142E+03  0.00000000000E+00 0. -1.
         25    2    1    2    0    0 -0.96343627933E+02 -0.59993190792E+02  0.58532092817E+02  0.17871014296E+03  0.12502012527E+03 0.  0.
          2    1    1    2  501    0  0.16325382753E+03  0.41019354737E+01 -0.75368762968E+03  0.77117681579E+03  0.00000000000E+00 0. -1.
          1    1    1    2  502    0 -0.66910199601E+02  0.55891255318E+02  0.19041126797E+04  0.19061075270E+04  0.00000000000E+00 0. -1.
         22    1    3    3    0    0 -0.66153579293E+02 -0.96691985520E+02  0.59027874871E+02  0.13118660804E+03  0.00000000000E+00 0. -1.
         22    1    3    3    0    0 -0.30190048640E+02  0.36698794727E+02 -0.49578205405E+00  0.47523534919E+02  0.00000000000E+00 0. -1.
</event>
<event>
 7    1  0.5736319E-006  0.5846155E+02  0.7818608E-02  0.1449545E+00
          2   -1    0    0  502    0  0.00000000000E+00  0.00000000000E+00  0.15713124655E+04  0.15713124655E+04  0.00000000000E+00 0. -1.
          1   -1    0    0  501    0 -0.00000000000E+00 -0.00000000000E+00 -0.20281549547E+04  0.20281549547E+04  0.00000000000E+00 0. -1.
         25    2    1    2    0    0 -0.28087340944E+02  0.91370114533E+02  0.19486339628E+03  0.25046905744E+03  0.12500243587E+03 0.  0.
          2    1    1    2  501    0  0.30703607945E+01 -0.58315179511E+02 -0.19996072135E+04  0.20004597210E+04  0.00000000000E+00 0. -1.
          1    1    1    2  502    0  0.25016980149E+02 -0.33054935022E+02  0.13479013281E+04  0.13485386417E+04  0.00000000000E+00 0. -1.
         22    1    3    3    0    0  0.17495857482E+02 -0.24394782131E+02  0.59307533607E+02  0.66472505344E+02  0.00000000000E+00 0.  1.
         22    1    3    3    0    0 -0.45583198426E+02  0.11576489666E+03  0.13555586267E+03  0.18399655209E+03  0.00000000000E+00 0.  1.
</event>
<event>
 7    1  0.5736319E-006  0.3727910E+02  0.7818608E-02  0.1530422E+00
          2   -1    0    0  502    0  0.00000000000E+00  0.00000000000E+00  0.19836256005E+02  0.19836256005E+02  0.00000000000E+00 0. -1.
          1   -1    0    0  501    0 -0.00000000000E+00 -0.00000000000E+00 -0.16071563868E+04  0.16071563868E+04  0.00000000000E+00 0. -1.
         25    2    1    2    0    0  0.16664725162E+02 -0.11317575292E+02 -0.10160464610E+04  0.10239048432E+04  0.12499966565E+03 0.  0.
          2    1    1    2  501    0 -0.38493676180E+02 -0.18545763659E+02 -0.56371570072E+03  0.56533273361E+03  0.00000000000E+00 0. -1.
          1    1    1    2  502    0  0.21828951019E+02  0.29863338951E+02 -0.75579691290E+01  0.37755066061E+02  0.00000000000E+00 0. -1.
         22    1    3    3    0    0  0.13794510136E+02 -0.62563114778E+02 -0.34497509282E+03  0.35087354774E+03  0.00000000000E+00 0.  1.
         22    1    3    3    0    0  0.28702150254E+01  0.51245539486E+02 -0.67107136817E+03  0.67303129544E+03  0.00000000000E+00 0.  1.
</event>
<event>
 7    1  0.5736319E-006  0.9332570E+02  0.7818608E-02  0.1339842E+00
          2   -1    0    0  502    0  0.00000000000E+00  0.00000000000E+00  0.59695742076E+03  0.59695742076E+03  0.00000000000E+00 0. -1.
          1   -1    0    0  501    0 -0.00000000000E+00 -0.00000000000E+00 -0.42592790051E+03  0.42592790051E+03  0.00000000000E+00 0. -1.
         25    2    1    2    0    0 -0.41205657586E+02  0.37803780943E+02 -0.19643676199E+02  0.13834198683E+03  0.12500239692E+03 0.  0.
          2    1    1    2  501    0  0.20742036849E+02 -0.96760544521E+02 -0.33800553922E+03  0.35219395170E+03  0.00000000000E+00 0. -1.
          1    1    1    2  502    0  0.20463620737E+02  0.58956763578E+02  0.52867873568E+03  0.53234938274E+03  0.00000000000E+00 0. -1.
         22    1    3    3    0    0 -0.75636648081E+01  0.77699285271E+02 -0.32554026837E+02  0.84582224021E+02  0.00000000000E+00 0.  1.
         22    1    3    3    0    0 -0.33641992778E+02 -0.39895504329E+02  0.12910350638E+02  0.53759762809E+02  0.00000000000E+00 0.  1.
</event>
<event>
 7    1  0.5736319E-006  0.5584055E+02  0.7818608E-02  0.1449193E+00
          2   -1    0    0  502    0  0.00000000000E+00  0.00000000000E+00  0.91371722093E+03  0.91371722093E+03  0.00000000000E+00 0. -1.
          1   -1    0    0  501    0 -0.00000000000E+00 -0.00000000000E+00 -0.37438965386E+03  0.37438965386E+03  0.00000000000E+00 0. -1.
         25    2    1    2    0    0  0.33416389828E+02 -0.85336092326E+02 -0.18553649679E+02  0.15610113628E+03  0.12499769226E+03 0.  0.
          2    1    1    2  501    0 -0.35144259378E+02  0.41857422046E+02 -0.28389372180E+03  0.28910691453E+03  0.00000000000E+00 0. -1.
          1    1    1    2  502    0  0.17278695502E+01  0.43478670280E+02  0.84177493855E+03  0.84289882398E+03  0.00000000000E+00 0. -1.
         22    1    3    3    0    0 -0.62280594177E+01 -0.91139881204E+02  0.27169015199E+02  0.95306988500E+02  0.00000000000E+00 0.  1.
         22    1    3    3    0    0  0.39644449246E+02  0.58037888778E+01 -0.45722664878E+02  0.60794147785E+02  0.00000000000E+00 0.  1.
</event>
<event>
 7    1  0.5736319E-006  0.1612932E+03  0.7818608E-02  0.1249664E+00
          2   -1    0    0  502    0  0.00000000000E+00  0.00000000000E+00  0.60699871628E+03  0.60699871628E+03  0.00000000000E+00 0. -1.
          1   -1    0    0  501    0 -0.00000000000E+00 -0.00000000000E+00 -0.54691868159E+03  0.54691868159E+03  0.00000000000E+00 0. -1.
         25    2    1    2    0    0 -0.22899292575E+03 -0.78826163582E+01 -0.11795996886E+03  0.28642551228E+03  0.12500049659E+03 0.  0.
          2    1    1    2  501    0  0.14676032562E+03  0.22814610712E+02 -0.32511976251E+03  0.35743805003E+03  0.00000000000E+00 0. -1.
          1    1    1    2  502    0  0.82232600131E+02 -0.14931994354E+02  0.50315976606E+03  0.51005383555E+03  0.00000000000E+00 0. -1.
         22    1    3    3    0    0  0.13819461075E+02 -0.76879360611E+01 -0.17679657011E+02  0.23720289570E+02  0.00000000000E+00 0. -1.
         22    1    3    3    0    0 -0.24281238683E+03 -0.19468029713E+00 -0.10028031185E+03  0.26270522271E+03  0.00000000000E+00 0. -1.
</event>
<event>
 7    1  0.5736319E-006  0.1529198E+03  0.7818608E-02  0.1246172E+00
          2   -1    0    0  502    0  0.00000000000E+00  0.00000000000E+00  0.40448890727E+03  0.40448890727E+03  0.00000000000E+00 0. -1.
          1   -1    0    0  501    0 -0.00000000000E+00 -0.00000000000E+00 -0.40810844962E+03  0.40810844962E+03  0.00000000000E+00 0. -1.
         25    2    1    2    0    0 -0.19123951350E+03 -0.85601761852E+02  0.18578222282E+03  0.30666381758E+03  0.12500979778E+03 0.  0.
          2    1    1    2  501    0  0.14998023747E+03  0.41637210359E+01 -0.31602390955E+03  0.34983213062E+03  0.00000000000E+00 0. -1.
          1    1    1    2  502    0  0.41259276028E+02  0.81438040816E+02  0.12662214437E+03  0.15610140869E+03  0.00000000000E+00 0. -1.
         22    1    3    3    0    0 -0.16433158268E+03 -0.57126348145E+02  0.75544721252E+02  0.18967154143E+03  0.00000000000E+00 0. -1.
         22    1    3    3    0    0 -0.26907930819E+02 -0.28475413707E+02  0.11023750157E+03  0.11699227615E+03  0.00000000000E+00 0. -1.
</event>
<event>
 7    1  0.5736319E-006  0.9950953E+02  0.7818608E-02  0.1351924E+00
          2   -1    0    0  502    0  0.00000000000E+00  0.00000000000E+00  0.12292883265E+04  0.12292883265E+04  0.00000000000E+00 0. -1.
          1   -1    0    0  501    0 -0.00000000000E+00 -0.00000000000E+00 -0.11406635178E+03  0.11406635178E+03  0.00000000000E+00 0. -1.
         25    2    1    2    0    0  0.63628895192E+02  0.10988049561E+03  0.40376561600E+03  0.44133242794E+03  0.12500111867E+03 0.  0.
          2    1    1    2  501    0 -0.12307357135E+02 -0.97634133551E+02 -0.68743822660E+02  0.12004002761E+03  0.00000000000E+00 0. -1.
          1    1    1    2  502    0 -0.51321538056E+02 -0.12246362056E+02  0.78020018134E+03  0.78198222270E+03  0.00000000000E+00 0. -1.
         22    1    3    3    0    0 -0.24952341958E+01  0.14392265899E+02 -0.57245681415E+01  0.15688664437E+02  0.00000000000E+00 0.  1.
         22    1    3    3    0    0  0.66124129387E+02  0.95488229708E+02  0.40949018414E+03  0.42564376350E+03  0.00000000000E+00 0.  1.
</event>
<event>
 7    1  0.5736319E-006  0.7031515E+02  0.7818608E-02  0.1427852E+00
          2   -1    0    0  502    0  0.00000000000E+00  0.00000000000E+00  0.12071994758E+04  0.12071994758E+04  0.00000000000E+00 0. -1.
          1   -1    0    0  501    0 -0.00000000000E+00 -0.00000000000E+00 -0.51334982955E+03  0.51334982955E+03  0.00000000000E+00 0. -1.
         25    2    1    2    0    0 -0.41222103513E+02 -0.58740309408E+02  0.22473446086E+03  0.26698312720E+03  0.12499890618E+03 0.  0.
          2    1    1    2  501    0  0.65373520523E+02  0.26174393633E+02 -0.48927613475E+03  0.49431764292E+03  0.00000000000E+00 0. -1.
          1    1    1    2  502    0 -0.24151417010E+02  0.32565915775E+02  0.95839132014E+03  0.95924853522E+03  0.00000000000E+00 0. -1.
         22    1    3    3    0    0  0.38883459382E+02 -0.31177245211E+02  0.13341621032E+03  0.14242130883E+03  0.00000000000E+00 0.  1.
         22    1    3    3    0    0 -0.80105562895E+02 -0.27563064198E+02  0.91318250535E+02  0.12456181837E+03  0.00000000000E+00 0.  1.
</event>
<event>
 7    1  0.5736319E-006  0.1230817E+03  0.7818608E-02  0.1317857E+00
          2   -1    0    0  502    0  0.00000000000E+00  0.00000000000E+00  0.35957524466E+03  0.35957524466E+03  0.00000000000E+00 0. -1.
          1   -1    0    0  501    0 -0.00000000000E+00 -0.00000000000E+00 -0.18703488013E+04  0.18703488013E+04  0.00000000000E+00 0. -1.
         25    2    1    2    0    0  0.72378454705E+02 -0.63711468539E+01 -0.17233159345E+03  0.22495216605E+03  0.12500426669E+03 0.  0.
          2    1    1    2  501    0  0.52788447712E+02  0.22635040253E+02 -0.16592412630E+04  0.16602350840E+04  0.00000000000E+00 0. -1.
          1    1    1    2  502    0 -0.12516690242E+03 -0.16263893399E+02  0.32079929983E+03  0.34473679592E+03  0.00000000000E+00 0. -1.
         22    1    3    3    0    0 -0.27728479730E+02  0.22600452976E+02 -0.21884087442E+02  0.41935216060E+02  0.00000000000E+00 0.  1.
         22    1    3    3    0    0  0.10010693444E+03 -0.28971599830E+02 -0.15044750601E+03  0.18301694999E+03  0.00000000000E+00 0.  1.
</event>
<event>
 7    1  0.5736319E-006  0.5731150E+02  0.7818608E-02  0.1445902E+00
          2   -1    0    0  502    0  0.00000000000E+00  0.00000000000E+00  0.16394228096E+04  0.16394228096E+04  0.00000000000E+00 0. -1.
          1   -1    0    0  501    0 -0.00000000000E+00 -0.00000000000E+00 -0.23047688967E+03  0.23047688967E+03  0.00000000000E+00 0. -1.
         25    2    1    2    0    0  0.81227893657E+02 -0.30829695425E+01  0.49621014295E+03  0.51812825249E+03  0.12499961860E+03 0.  0.
          2    1    1    2  501    0 -0.50248077507E+02 -0.27368996886E+02 -0.21536413074E+03  0.22283545520E+03  0.00000000000E+00 0. -1.
          1    1    1    2  502    0 -0.30979816150E+02  0.30451966428E+02  0.11280999078E+04  0.11289359916E+04  0.00000000000E+00 0. -1.
         22    1    3    3    0    0  0.35911082988E+02  0.12156021745E+02  0.45013825105E+03  0.45173202211E+03  0.00000000000E+00 0. -1.
         22    1    3    3    0    0  0.45316810669E+02 -0.15238991288E+02  0.46071891908E+02  0.66396230379E+02  0.00000000000E+00 0. -1.
</event>
<event>
 7    1  0.5736319E-006  0.7241685E+02  0.7818608E-02  0.1366587E+00
          2   -1    0    0  502    0  0.00000000000E+00  0.00000000000E+00  0.11906634772E+03  0.11906634772E+03  0.00000000000E+00 0. -1.
          1   -1    0    0  501    0 -0.00000000000E+00 -0.00000000000E+00 -0.13842489840E+04  0.13842489840E+04  0.00000000000E+00 0. -1.
         25    2    1    2    0    0 -0.11800420984E+03 -0.38985740740E+02 -0.11385892328E+02  0.17663171901E+03  0.12499697634E+03 0.  0.
          2    1    1    2  501    0  0.71692349564E+02 -0.53136465623E+01 -0.12602255714E+04  0.12622743437E+04  0.00000000000E+00 0. -1.
          1    1    1    2  502    0  0.46311860277E+02  0.44299387303E+02  0.64288274530E+01  0.64409269054E+02  0.00000000000E+00 0. -1.
         22    1    3    3    0    0  0.24483305967E+02  0.78275968995E+01 -0.67670992725E+01  0.26580014613E+02  0.00000000000E+00 0.  1.
         22    1    3    3    0    0 -0.14248751581E+03 -0.46813337640E+02 -0.46187930556E+01  0.15005170439E+03  0.00000000000E+00 0.  1.
</event>
<event>
 7    1  0.5736319E-006  0.8026604E+02  0.7818608E-02  0.1352439E+00
          2   -1    0    0  502    0  0.00000000000E+00  0.00000000000E+00  0.91611766416E+03  0.91611766416E+03  0.00000000000E+00 0. -1.
          1   -1    0    0  501    0 -0.00000000000E+00 -0.00000000000E+00 -0.95028378137E+02  0.95028378137E+02  0.00000000000E+00 0. -1.
         25    2    1    2    0    0  0.79348052080E+02  0.42092389650E+02  0.22461416373E+03  0.27230598956E+03  0.12502458466E+03 0.  0.
          2    1    1    2  501    0 -0.93162367994E+00 -0.65119329439E+02 -0.53170175206E+02  0.84074148944E+02  0.00000000000E+00 0. -1.
          1    1    1    2  502    0 -0.78416428400E+02  0.23026939789E+02  0.64964529750E+03  0.65476590379E+03  0.00000000000E+00 0. -1.
         22    1    3    3    0    0 -0.34317545311E+02  0.11519774619E+02  0.55497602102E+02  0.66259965006E+02  0.00000000000E+00 0.  1.
         22    1    3    3    0    0  0.11366559739E+03  0.30572615031E+02  0.16911656162E+03  0.20604602456E+03  0.00000000000E+00 0.  1.
</event>
<event>
 7    1  0.5736319E-006  0.7522439E+02  0.7818608E-02  0.1385627E+00
          2   -1    0    0  502    0  0.00000000000E+00  0.00000000000E+00  0.26751643719E+03  0.26751643719E+03  0.00000000000E+00 0. -1.
          1   -1    0    0  501    0 -0.00000000000E+00 -0.00000000000E+00 -0.32401344839E+03  0.32401344839E+03  0.00000000000E+00 0. -1.
         25    2    1    2    0    0  0.34726576879E+02  0.11467781065E+02 -0.96089057256E+02  0.16186092896E+03  0.12501363228E+03 0.  0.
          2    1    1    2  501    0 -0.72797078457E+02 -0.48016802601E+02 -0.18203453340E+03  0.20184548376E+03  0.00000000000E+00 0. -1.
          1    1    1    2  502    0  0.38070501579E+02  0.36549021536E+02  0.22162657945E+03  0.22782347286E+03  0.00000000000E+00 0. -1.
         22    1    3    3    0    0  0.62521325793E+02  0.41406516104E+02 -0.94952347413E+02  0.12099323962E+03  0.00000000000E+00 0. -1.
         22    1    3    3    0    0 -0.27794748914E+02 -0.29938735039E+02 -0.11367098431E+01  0.40867689343E+02  0.00000000000E+00 0. -1.
</event>
<event>
 7    1  0.5736319E-006  0.2151788E+03  0.7818608E-02  0.1297214E+00
          2   -1    0    0  502    0  0.00000000000E+00  0.00000000000E+00  0.85096901795E+03  0.85096901795E+03  0.00000000000E+00 0. -1.
          1   -1    0    0  501    0 -0.00000000000E+00 -0.00000000000E+00 -0.78587941225E+03  0.78587941225E+03  0.00000000000E+00 0. -1.
         25    2    1    2    0    0 -0.96331410757E+02  0.15502865837E+03 -0.25065657865E+03  0.33431582252E+03  0.12499889261E+03 0.  0.
          2    1    1    2  501    0 -0.35899655210E+02  0.16835088499E+02 -0.47802917337E+03  0.47967082050E+03  0.00000000000E+00 0. -1.
          1    1    1    2  502    0  0.13223106597E+03 -0.17186374687E+03  0.79377535771E+03  0.82286178718E+03  0.00000000000E+00 0. -1.
         22    1    3    3    0    0 -0.72392428189E+02  0.87317492225E+01 -0.78992026913E+02  0.10750184845E+03  0.00000000000E+00 0.  1.
         22    1    3    3    0    0 -0.23938982568E+02  0.14629690915E+03 -0.17166455173E+03  0.22681397407E+03  0.00000000000E+00 0.  1.
</event>
<event>
 7    1  0.5736319E-006  0.6404725E+02  0.7818608E-02  0.1468153E+00
          2   -1    0    0  502    0  0.00000000000E+00  0.00000000000E+00  0.20330704817E+04  0.20330704817E+04  0.00000000000E+00 0. -1.
          1   -1    0    0  501    0 -0.00000000000E+00 -0.00000000000E+00 -0.23395976971E+03  0.23395976971E+03  0.00000000000E+00 0. -1.
         25    2    1    2    0    0 -0.62201880360E+02 -0.58779650902E+02  0.56612371467E+03  0.58604213355E+03  0.12500080283E+03 0.  0.
          2    1    1    2  501    0  0.50164623615E+01  0.32664911575E+02 -0.22209922171E+03  0.22454448473E+03  0.00000000000E+00 0. -1.
          1    1    1    2  502    0  0.57185417999E+02  0.26114739327E+02  0.14550862190E+04  0.14564436331E+04  0.00000000000E+00 0. -1.
         22    1    3    3    0    0 -0.47775224573E+02 -0.42894628002E+00  0.47167824897E+03  0.47409179136E+03  0.00000000000E+00 0.  1.
         22    1    3    3    0    0 -0.14426655787E+02 -0.58350704622E+02  0.94445465692E+02  0.11195034219E+03  0.00000000000E+00 0.  1.
</event>
<event>
 7    1  0.5736319E-006  0.7139634E+02  0.7818608E-02  0.1382735E+00
          2   -1    0    0  502    0  0.00000000000E+00  0.00000000000E+00  0.13676432789E+03  0.13676432789E+03  0.00000000000E+00 0. -1.
          1   -1    0    0  501    0 -0.00000000000E+00 -0.00000000000E+00 -0.20162558618E+04  0.20162558618E+04  0.00000000000E+00 0. -1.
         25    2    1    2    0    0 -0.33001782743E+02 -0.12105362784E+03 -0.22003630820E+03  0.28245808867E+03  0.12499398567E+03 0.  0.
          2    1    1    2  501    0  0.19884098335E+02  0.53337394324E+02 -0.17532290802E+04  0.17541529188E+04  0.00000000000E+00 0. -1.
          1    1    1    2  502    0  0.13117684409E+02  0.67716233515E+02  0.93773854455E+02  0.11640918222E+03  0.00000000000E+00 0. -1.
         22    1    3    3    0    0  0.38250805989E+02 -0.92244894048E+02 -0.11500317347E+03  0.15230881309E+03  0.00000000000E+00 0. -1.
         22    1    3    3    0    0 -0.71252588733E+02 -0.28808733792E+02 -0.10503313472E+03  0.13014927558E+03  0.00000000000E+00 0. -1.
</event>
<event>
 7    1  0.5736319E-006  0.4993522E+02  0.7818608E-02  0.1539560E+00
          2   -1    0    0  502    0  0.00000000000E+00  0.00000000000E+00  0.11396288401E+04  0.11396288401E+04  0.00000000000E+00 0. -1.
          1   -1    0    0  501    0 -0.00000000000E+00 -0.00000000000E+00 -0.29655133483E+03  0.29655133483E+03  0.00000000000E+00 0. -1.
         25    2    1    2    0    0  0.18001693551E+01 -0.32114682366E+02  0.38854820942E+03  0.40942534187E+03  0.12499922435E+03 0.  0.
          2    1    1    2  501    0 -0.25349640272E+02  0.43158160241E+02 -0.28369295188E+03  0.28807450773E+03  0.00000000000E+00 0. -1.
          1    1    1    2  502    0  0.23549470917E+02 -0.11043477874E+02  0.73822224770E+03  0.73868032530E+03  0.00000000000E+00 0. -1.
         22    1    3    3    0    0 -0.14712420349E+02 -0.68379156468E+02  0.12814219480E+03  0.14598830926E+03  0.00000000000E+00 0. -1.
         22    1    3    3    0    0  0.16512589704E+02  0.36264474102E+02  0.26040601462E+03  0.26343703261E+03  0.00000000000E+00 0. -1.
</event>
<event>
 7    1  0.5736319E-006  0.8956208E+02  0.7818608E-02  0.1311077E+00
          2   -1    0    0  502    0  0.00000000000E+00  0.00000000000E+00  0.58840769352E+03  0.58840769352E+03  0.00000000000E+00 0. -1.
          1   -1    0    0  501    0 -0.00000000000E+00 -0.00000000000E+00 -0.74135863242E+02  0.74135863242E+02  0.00000000000E+00 0. -1.
         25    2    1    2    0    0  0.67050040534E+02  0.40627581308E+02  0.22899820413E+03  0.27241775557E+03  0.12499979102E+03 0.  0.
          2    1    1    2  501    0  0.64914347578E+01 -0.91745256569E+02  0.89684455335E+00  0.91978993027E+02  0.00000000000E+00 0. -1.
          1    1    1    2  502    0 -0.73541475292E+02  0.51117675261E+02  0.28437678159E+03  0.29814680816E+03  0.00000000000E+00 0. -1.
         22    1    3    3    0    0  0.88657988595E+02  0.17870524070E+02  0.22276375813E+03  0.24042314055E+03  0.00000000000E+00 0.  1.
         22    1    3    3    0    0 -0.21607948061E+02  0.22757057238E+02  0.62344460017E+01  0.31994615023E+02  0.00000000000E+00 0.  1.
</event>
<event>
 7    1  0.5736319E-006  0.1986777E+03  0.7818608E-02  0.1309550E+00
          2   -1    0    0  502    0  0.00000000000E+00  0.00000000000E+00  0.16721305997E+04  0.16721305997E+04  0.00000000000E+00 0. -1.
          1   -1    0    0  501    0 -0.00000000000E+00 -0.00000000000E+00 -0.11319472378E+03  0.11319472378E+03  0.00000000000E+00 0. -1.
         25    2    1    2    0    0  0.10472668072E+03  0.14545353649E+03  0.56631086654E+03  0.60700724584E+03  0.12500156001E+03 0.  0.
          2    1    1    2  501    0 -0.14303617134E+03 -0.14366459840E+03  0.18645911608E+02  0.20358421639E+03  0.00000000000E+00 0. -1.
          1    1    1    2  502    0  0.38309490619E+02 -0.17889380904E+01  0.97397909777E+03  0.97473386125E+03  0.00000000000E+00 0. -1.
         22    1    3    3    0    0  0.69491311572E+02  0.16273203178E+03  0.42541012439E+03  0.46074345409E+03  0.00000000000E+00 0.  1.
         22    1    3    3    0    0  0.35235369147E+02 -0.17278495290E+02  0.14090074215E+03  0.14626379175E+03  0.00000000000E+00 0.  1.
</event>
<event>
 7    1  0.5736319E-006  0.7540808E+02  0.7818608E-02  0.1487839E+00
          2   -1    0    0  502    0  0.00000000000E+00  0.00000000000E+00  0.14737994170E+04  0.14737994170E+04  0.00000000000E+00 0. -1.
          1   -1    0    0  501    0 -0.00000000000E+00 -0.00000000000E+00 -0.75889341534E+02  0.75889341534E+02  0.00000000000E+00 0. -1.
         25    2    1    2    0    0 -0.13998322453E+02 -0.55622516551E+02  0.17857031032E+03  0.22539281764E+03  0.12499899654E+03 0.  0.
          2    1    1    2  501    0  0.33142233806E+02  0.70775719785E+02 -0.23195515114E+02  0.81520807737E+02  0.00000000000E+00 0. -1.
          1    1    1    2  502    0 -0.19143911354E+02 -0.15153203233E+02  0.12425352802E+04  0.12427751331E+04  0.00000000000E+00 0. -1.
         22    1    3    3    0    0  0.48735800559E+02 -0.38722290950E+02  0.13045874059E+03  0.14454783661E+03  0.00000000000E+00 0.  1.
         22    1    3    3    0    0 -0.62734123011E+02 -0.16900225601E+02  0.48111569732E+02  0.80844981028E+02  0.00000000000E+00 0.  1.
</event>
<event>
 7    1  0.5736319E-006  0.2669911E+03  0.7818608E-02  0.1313737E+00
          2   -1    0    0  502    0  0.00000000000E+00  0.00000000000E+00  0.51732273391E+03  0.51732273391E+03  0.00000000000E+00 0. -1.
          1   -1    0    0  501    0 -0.00000000000E+00 -0.00000000000E+00 -0.71036241675E+03  0.71036241675E+03  0.00000000000E+00 0. -1.
         25    2    1    2    0    0 -0.26215637023E+03  0.11979552535E+03 -0.16570807960E+03  0.35519216273E+03  0.12500149787E+03 0.  0.
          2    1    1    2  501    0  0.17678653462E+02 -0.21034942955E+02 -0.40827549141E+03  0.40919907197E+03  0.00000000000E+00 0. -1.
          1    1    1    2  502    0  0.24447771677E+03 -0.98760582393E+02  0.38094388817E+03  0.46329391596E+03  0.00000000000E+00 0. -1.
         22    1    3    3    0    0 -0.13074009192E+03  0.12432607258E+03 -0.74664144685E+02  0.19525541852E+03  0.00000000000E+00 0.  1.
         22    1    3    3    0    0 -0.13141627831E+03 -0.45305472295E+01 -0.91043934917E+02  0.15993674421E+03  0.00000000000E+00 0.  1.
</event>
<event>
 7    1  0.5736319E-006  0.1518941E+03  0.7818608E-02  0.1294597E+00
          2   -1    0    0  502    0  0.00000000000E+00  0.00000000000E+00  0.13230746277E+04  0.13230746277E+04  0.00000000000E+00 0. -1.
          1   -1    0    0  501    0 -0.00000000000E+00 -0.00000000000E+00 -0.12047432556E+03  0.12047432556E+03  0.00000000000E+00 0. -1.
         25    2    1    2    0    0  0.16708248901E+03 -0.35058261774E+02  0.32085982092E+03  0.38436325749E+03  0.12505378512E+03 0.  0.
          2    1    1    2  501    0 -0.38810681485E+02 -0.42495617210E+02 -0.72882902827E+02  0.92865838734E+02  0.00000000000E+00 0. -1.
          1    1    1    2  502    0 -0.12827180752E+03  0.77553878983E+02  0.95462338400E+03  0.96631985700E+03  0.00000000000E+00 0. -1.
         22    1    3    3    0    0  0.12932649586E+03  0.19835426410E+02  0.27171018179E+03  0.30157123464E+03  0.00000000000E+00 0.  1.
         22    1    3    3    0    0  0.37755993143E+02 -0.54893688183E+02  0.49149639133E+02  0.82792022850E+02  0.00000000000E+00 0.  1.
</event>
<event>
 7    1  0.5736319E-006  0.7251057E+02  0.7818608E-02  0.1468356E+00
          2   -1    0    0  502    0  0.00000000000E+00  0.00000000000E+00  0.18744058932E+04  0.18744058932E+04  0.00000000000E+00 0. -1.
          1   -1    0    0  501    0 -0.00000000000E+00 -0.00000000000E+00 -0.30320999195E+03  0.30320999195E+03  0.00000000000E+00 0. -1.
         25    2    1    2    0    0  0.42331842770E+02  0.44415896213E+02  0.99850875329E+03  0.10081714593E+04  0.12500081706E+03 0.  0.
          2    1    1    2  501    0 -0.66751559506E+02 -0.28501039099E+02 -0.29371600496E+03  0.30255110560E+03  0.00000000000E+00 0. -1.
          1    1    1    2  502    0  0.24419716736E+02 -0.15914857114E+02  0.86640315297E+03  0.86689332026E+03  0.00000000000E+00 0. -1.
         22    1    3    3    0    0  0.90744063260E+01  0.56884563561E+02  0.18217179361E+03  0.19106219095E+03  0.00000000000E+00 0. -1.
         22    1    3    3    0    0  0.33257436444E+02 -0.12468667348E+02  0.81633695968E+03  0.81710926839E+03  0.00000000000E+00 0. -1.
</event>
<event>
 7    1  0.5736319E-006  0.4018870E+02  0.7818608E-02  0.1595943E+00
          2   -1    0    0  502    0  0.00000000000E+00  0.00000000000E+00  0.12599816214E+04  0.12599816214E+04  0.00000000000E+00 0. -1.
          1   -1    0    0  501    0 -0.00000000000E+00 -0.00000000000E+00 -0.47893622475E+03  0.47893622475E+03  0.00000000000E+00 0. -1.
         25    2    1    2    0    0  0.31184915750E+02 -0.25407981197E+02  0.44433049146E+01  0.13138748679E+03  0.12499945699E+03 0.  0.
          2    1    1    2  501    0 -0.12508790142E+02  0.38287267214E+02 -0.41437960579E+03  0.41633261025E+03  0.00000000000E+00 0. -1.
          1    1    1    2  502    0 -0.18676125608E+02 -0.12879286016E+02  0.11909816975E+04  0.11911977491E+04  0.00000000000E+00 0. -1.
         22    1    3    3    0    0  0.59481781151E+02  0.63204858368E+01 -0.38359185543E+02  0.71059538034E+02  0.00000000000E+00 0. -1.
         22    1    3    3    0    0 -0.28296865401E+02 -0.31728467034E+02  0.42802490458E+02  0.60327948757E+02  0.00000000000E+00 0. -1.
</event>
<event>
 7    1  0.5736319E-006  0.1500488E+03  0.7818608E-02  0.1259342E+00
          2   -1    0    0  502    0  0.00000000000E+00  0.00000000000E+00  0.15020160454E+04  0.15020160454E+04  0.00000000000E+00 0. -1.
          1   -1    0    0  501    0 -0.00000000000E+00 -0.00000000000E+00 -0.38548048167E+03  0.38548048167E+03  0.00000000000E+00 0. -1.
         25    2    1    2    0    0  0.19689701107E+03  0.75485319811E+02  0.30340470811E+03  0.39005986285E+03  0.12500325287E+03 0.  0.
          2    1    1    2  501    0 -0.14724534282E+03 -0.10705078717E+02 -0.32469727268E+03  0.35668488695E+03  0.00000000000E+00 0. -1.
          1    1    1    2  502    0 -0.49651668253E+02 -0.64780241094E+02  0.11378281283E+04  0.11407517772E+04  0.00000000000E+00 0. -1.
         22    1    3    3    0    0  0.18310665549E+02 -0.31733367272E+02  0.51178028994E+02  0.62940271075E+02  0.00000000000E+00 0. -1.
         22    1    3    3    0    0  0.17858634552E+03  0.10721868708E+03  0.25222667912E+03  0.32711959178E+03  0.00000000000E+00 0. -1.
</event>
<event>
 7    1  0.5736319E-006  0.1503948E+03  0.7818608E-02  0.1298509E+00
          2   -1    0    0  502    0  0.00000000000E+00  0.00000000000E+00  0.10962755270E+04  0.10962755270E+04  0.00000000000E+00 0. -1.
          1   -1    0    0  501    0 -0.00000000000E+00 -0.00000000000E+00 -0.30653942079E+03  0.30653942079E+03  0.00000000000E+00 0. -1.
         25    2    1    2    0    0 -0.15079072737E+03 -0.13278976750E+03  0.30265160999E+03  0.38418215591E+03  0.12500786405E+03 0.  0.
          2    1    1    2  501    0  0.10065392851E+03  0.10771940922E+03 -0.24417392580E+03  0.28522901411E+03  0.00000000000E+00 0. -1.
          1    1    1    2  502    0  0.50136798863E+02  0.25070358287E+02  0.73125842207E+03  0.73340377781E+03  0.00000000000E+00 0. -1.
         22    1    3    3    0    0 -0.10878517929E+03 -0.34687233407E+02  0.86928790735E+02  0.14350621608E+03  0.00000000000E+00 0.  1.
         22    1    3    3    0    0 -0.42005548081E+02 -0.98102534098E+02  0.21572281926E+03  0.24067593983E+03  0.00000000000E+00 0.  1.
</event>
<event>
 7    1  0.5736319E-006  0.1042163E+03  0.7818608E-02  0.1287735E+00
          2   -1    0    0  502    0  0.00000000000E+00  0.00000000000E+00  0.19485649421E+03  0.19485649421E+03  0.00000000000E+00 0. -1.
          1   -1    0    0  501    0 -0.00000000000E+00 -0.00000000000E+00 -0.32770757514E+04  0.32770757514E+04  0.00000000000E+00 0. -1.
         25    2    1    2    0    0  0.21572247938E+01  0.10494221369E+01 -0.64348403206E+02  0.14061314880E+03  0.12500234284E+03 0.  0.
          2    1    1    2  501    0 -0.27203526270E+02  0.10060325098E+03 -0.31561545448E+04  0.31578746898E+04  0.00000000000E+00 0. -1.
          1    1    1    2  502    0  0.25046301477E+02 -0.10165267312E+03  0.13828369081E+03  0.17344440699E+03  0.00000000000E+00 0. -1.
         22    1    3    3    0    0  0.16402956279E+02  0.59499871637E+02 -0.48232753322E+02  0.78330646573E+02  0.00000000000E+00 0.  1.
         22    1    3    3    0    0 -0.14245731485E+02 -0.58450449501E+02 -0.16115649883E+02  0.62282502226E+02  0.00000000000E+00 0.  1.
</event>
<event>
 7    1  0.5736319E-006  0.1409455E+03  0.7818608E-02  0.1408732E+00
          2   -1    0    0  502    0  0.00000000000E+00  0.00000000000E+00  0.63365542638E+03  0.63365542638E+03  0.00000000000E+00 0. -1.
          1   -1    0    0  501    0 -0.00000000000E+00 -0.00000000000E+00 -0.13146588685E+04  0.13146588685E+04  0.00000000000E+00 0. -1.
         25    2    1    2    0    0 -0.15163733003E+03 -0.30007349182E+02  0.14291273097E+03  0.24483405106E+03  0.12500137209E+03 0.  0.
          2    1    1    2  501    0  0.13339638171E+03  0.44727234012E+02 -0.12594659979E+04  0.12673001697E+04  0.00000000000E+00 0. -1.
          1    1    1    2  502    0  0.18240948319E+02 -0.14719884830E+02  0.43554982481E+03  0.43618007417E+03  0.00000000000E+00 0. -1.
         22    1    3    3    0    0 -0.14997788262E+03 -0.64457970039E+02  0.12711788674E+03  0.20689889392E+03  0.00000000000E+00 0. -1.
         22    1    3    3    0    0 -0.16594474071E+01  0.34450620858E+02  0.15794844232E+02  0.37935157143E+02  0.00000000000E+00 0. -1.
</event>
<event>
 7    1  0.5736319E-006  0.1609669E+03  0.7818608E-02  0.1329394E+00
          2   -1    0    0  502    0  0.00000000000E+00  0.00000000000E+00  0.46377700220E+03  0.46377700220E+03  0.00000000000E+00 0. -1.
          1   -1    0    0  501    0 -0.00000000000E+00 -0.00000000000E+00 -0.10729598753E+04  0.10729598753E+04  0.00000000000E+00 0. -1.
         25    2    1    2    0    0  0.11202860116E+03  0.10391880395E+03 -0.23458728321E+03  0.30660426912E+03  0.12500183641E+03 0.  0.
          2    1    1    2  501    0 -0.14317030775E+03 -0.79393153636E+02 -0.79306707577E+03  0.80978787132E+03  0.00000000000E+00 0. -1.
          1    1    1    2  502    0  0.31141706594E+02 -0.24525650317E+02  0.41847148592E+03  0.42034473703E+03  0.00000000000E+00 0. -1.
         22    1    3    3    0    0  0.48473403612E+02  0.76619470510E+02 -0.38186550425E+02  0.98378995484E+02  0.00000000000E+00 0. -1.
         22    1    3    3    0    0  0.63555197548E+02  0.27299333442E+02 -0.19640073279E+03  0.20822527364E+03  0.00000000000E+00 0. -1.
</event>
<event>
 7    1  0.5736319E-006  0.1554966E+03  0.7818608E-02  0.1292345E+00
          2   -1    0    0  502    0  0.00000000000E+00  0.00000000000E+00  0.95472739359E+03  0.95472739359E+03  0.00000000000E+00 0. -1.
          1   -1    0    0  501    0 -0.00000000000E+00 -0.00000000000E+00 -0.28132423296E+04  0.28132423296E+04  0.00000000000E+00 0. -1.
         25    2    1    2    0    0 -0.62852956595E+02  0.13949258842E+03 -0.85845281342E+02  0.21541042031E+03  0.12499424176E+03 0.  0.
          2    1    1    2  501    0  0.11150670520E+03 -0.10901770380E+03 -0.26594020874E+04  0.26639703579E+04  0.00000000000E+00 0. -1.
          1    1    1    2  502    0 -0.48653748610E+02 -0.30474884622E+02  0.88673243276E+03  0.88858894499E+03  0.00000000000E+00 0. -1.
         22    1    3    3    0    0 -0.20543478394E+01  0.28150498304E+02  0.31713539311E+02  0.42454911087E+02  0.00000000000E+00 0.  1.
         22    1    3    3    0    0 -0.60798608755E+02  0.11134209011E+03 -0.11755882065E+03  0.17295550922E+03  0.00000000000E+00 0.  1.
</event>
<event>
 7    1  0.5736319E-006  0.3736477E+03  0.7818608E-02  0.1199119E+00
          2   -1    0    0  502    0  0.00000000000E+00  0.00000000000E+00  0.38012892158E+03  0.38012892158E+03  0.00000000000E+00 0. -1.
          1   -1    0    0  501    0 -0.00000000000E+00 -0.00000000000E+00 -0.14634796466E+04  0.14634796466E+04  0.00000000000E+00 0. -1.
         25    2    1    2    0    0  0.31669916835E+03  0.75476030292E+02  0.39992034462E+02  0.35102095623E+03  0.12498541720E+03 0.  0.
          2    1    1    2  501    0 -0.36253043031E+03 -0.11589725543E+03 -0.12741966780E+04  0.13298261770E+04  0.00000000000E+00 0. -1.
          1    1    1    2  502    0  0.45831261961E+02  0.40421225142E+02  0.15085391847E+03  0.16276143503E+03  0.00000000000E+00 0. -1.
         22    1    3    3    0    0  0.11234314651E+03 -0.30997986101E+02 -0.31646439682E+01  0.11658418710E+03  0.00000000000E+00 0.  1.
         22    1    3    3    0    0  0.20435602184E+03  0.10647401639E+03  0.43156678431E+02  0.23443676913E+03  0.00000000000E+00 0.  1.
</event>
<event>
 7    1  0.5736319E-006  0.7958547E+02  0.7818608E-02  0.1383991E+00
          2   -1    0    0  502    0  0.00000000000E+00  0.00000000000E+00  0.75191814977E+03  0.75191814977E+03  0.00000000000E+00 0. -1.
          1   -1    0    0  501    0 -0.00000000000E+00 -0.00000000000E+00 -0.10398564258E+04  0.10398564258E+04  0.00000000000E+00 0. -1.
         25    2    1    2    0    0  0.38847082458E+02 -0.10452964765E+03 -0.39198722423E+03  0.42627606705E+03  0.12498703261E+03 0.  0.
          2    1    1    2  501    0  0.16707393265E+02  0.47706891921E+02 -0.62755691706E+03  0.62958936512E+03  0.00000000000E+00 0. -1.
          1    1    1    2  502    0 -0.55554475723E+02  0.56822755734E+02  0.73160586523E+03  0.73590914343E+03  0.00000000000E+00 0. -1.
         22    1    3    3    0    0 -0.35295675596E+02 -0.17064658838E+02 -0.39684830588E+02  0.55784165100E+02  0.00000000000E+00 0.  1.
         22    1    3    3    0    0  0.74142758054E+02 -0.87464988817E+02 -0.35230239364E+03  0.37049190195E+03  0.00000000000E+00 0.  1.
</event>
<event>
 7    1  0.5736319E-006  0.1583933E+03  0.7818608E-02  0.1325978E+00
          2   -1    0    0  502    0  0.00000000000E+00  0.00000000000E+00  0.21730858198E+04  0.21730858198E+04  0.00000000000E+00 0. -1.
          1   -1    0    0  501    0 -0.00000000000E+00 -0.00000000000E+00 -0.36878706032E+02  0.36878706032E+02  0.00000000000E+00 0. -1.
         25    2    1    2    0    0  0.12746930837E+03 -0.12638359931E+03  0.12031835417E+04  0.12229064275E+04  0.12501302584E+03 0.  0.
          2    1    1    2  501    0 -0.40772958522E+02  0.78273909287E+01 -0.10273744997E+01  0.41530202187E+02  0.00000000000E+00 0. -1.
          1    1    1    2  502    0 -0.86696349852E+02  0.11855620838E+03  0.93405094655E+03  0.94552789613E+03  0.00000000000E+00 0. -1.
         22    1    3    3    0    0  0.10030418059E+03 -0.84419759380E+02  0.46773384781E+03  0.48575979332E+03  0.00000000000E+00 0. -1.
         22    1    3    3    0    0  0.27165127784E+02 -0.41963839926E+02  0.73544969387E+03  0.73714663416E+03  0.00000000000E+00 0. -1.
</event>
<event>
 7    1  0.5736319E-006  0.1043276E+03  0.7818608E-02  0.1288398E+00
          2   -1    0    0  502    0  0.00000000000E+00  0.00000000000E+00  0.16338294225E+04  0.16338294225E+04  0.00000000000E+00 0. -1.
          1   -1    0    0  501    0 -0.00000000000E+00 -0.00000000000E+00 -0.15111321117E+03  0.15111321117E+03  0.00000000000E+00 0. -1.
         25    2    1    2    0    0  0.79637767283E+01  0.12837681238E+03  0.36179504693E+02  0.18297342734E+03  0.12500516332E+03 0.  0.
          2    1    1    2  501    0  0.68254590058E+02 -0.56784036335E+02 -0.49923396419E+02  0.10186000862E+03  0.00000000000E+00 0. -1.
          1    1    1    2  502    0 -0.76218366787E+02 -0.71592776044E+02  0.14964601030E+04  0.15001091977E+04  0.00000000000E+00 0. -1.
         22    1    3    3    0    0  0.43462848332E+02  0.11802288268E+03  0.59625026695E+02  0.13918895010E+03  0.00000000000E+00 0.  1.
         22    1    3    3    0    0 -0.35499071604E+02  0.10353929694E+02 -0.23445522002E+02  0.43784477236E+02  0.00000000000E+00 0.  1.
</event>
<event>
 7    1  0.5736319E-006  0.1707994E+03  0.7818608E-02  0.1322016E+00
          2   -1    0    0  502    0  0.00000000000E+00  0.00000000000E+00  0.24541896675E+03  0.24541896675E+03  0.00000000000E+00 0. -1.
          1   -1    0    0  501    0 -0.00000000000E+00 -0.00000000000E+00 -0.22010271451E+03  0.22010271451E+03  0.00000000000E+00 0. -1.
         25    2    1    2    0    0 -0.11268633046E+03 -0.10085967929E+03  0.28285238081E+02  0.19823297490E+03  0.12500149465E+03 0.  0.
          2    1    1    2  501    0 -0.38841342956E+02 -0.90425818489E+01 -0.59609404921E+02  0.71719588427E+02  0.00000000000E+00 0. -1.
          1    1    1    2  502    0  0.15152767342E+03  0.10990226114E+03  0.56640419074E+02  0.19556911793E+03  0.00000000000E+00 0. -1.
         22    1    3    3    0    0 -0.10289012338E+02 -0.92680501575E+01 -0.41779488139E+02  0.44014613002E+02  0.00000000000E+00 0. -1.
         22    1    3    3    0    0 -0.10239731813E+03 -0.91591629134E+02  0.70064726220E+02  0.15421836190E+03  0.00000000000E+00 0. -1.
</event>
<event>
 7    1  0.5736319E-006  0.8113505E+02  0.7818608E-02  0.1399080E+00
          2   -1    0    0  502    0  0.00000000000E+00  0.00000000000E+00  0.24248744252E+03  0.24248744252E+03  0.00000000000E+00 0. -1.
          1   -1    0    0  501    0 -0.00000000000E+00 -0.00000000000E+00 -0.16555819718E+04  0.16555819718E+04  0.00000000000E+00 0. -1.
         25    2    1    2    0    0  0.75091332539E+01 -0.68483969787E+02 -0.53801513470E+03  0.55662538832E+03  0.12500038622E+03 0.  0.
          2    1    1    2  501    0  0.43634487196E+02  0.51126503890E+01 -0.11007002357E+04  0.11015766503E+04  0.00000000000E+00 0. -1.
          1    1    1    2  502    0 -0.51143620450E+02  0.63371319398E+02  0.22562084105E+03  0.23986737576E+03  0.00000000000E+00 0. -1.
         22    1    3    3    0    0 -0.23676177721E+02 -0.70179751567E+02 -0.14934412184E+03  0.16670160662E+03  0.00000000000E+00 0.  1.
         22    1    3    3    0    0  0.31185310974E+02  0.16957817794E+01 -0.38867101286E+03  0.38992378170E+03  0.00000000000E+00 0.  1.
</event>
<event>
 7    1  0.5736319E-006  0.6644963E+02  0.7818608E-02  0.1465055E+00
          2   -1    0    0  502    0  0.00000000000E+00  0.00000000000E+00  0.18770199962E+03  0.18770199962E+03  0.00000000000E+00 0. -1.
          1   -1    0    0  501    0 -0.00000000000E+00 -0.00000000000E+00 -0.91444041266E+02  0.91444041266E+02  0.00000000000E+00 0. -1.
         25    2    1    2    0    0 -0.33061055759E+02  0.32759601591E+02  0.31053735896E+02  0.13695289836E+03  0.12500214779E+03 0.  0.
          2    1    1    2  501    0  0.63952941234E+02 -0.43082760938E+02  0.95386473714E+01  0.77698705113E+02  0.00000000000E+00 0. -1.
          1    1    1    2  502    0 -0.30891885475E+02  0.10323159347E+02  0.55665575087E+02  0.64494437410E+02  0.00000000000E+00 0. -1.
         22    1    3    3    0    0 -0.46058733005E+02  0.24726302093E+02  0.74435733495E+02  0.90958646220E+02  0.00000000000E+00 0. -1.
         22    1    3    3    0    0  0.12997677245E+02  0.80332994974E+01 -0.43381997599E+02  0.45994252144E+02  0.00000000000E+00 0. -1.
</event>
<event>
 7    1  0.5736319E-006  0.6727448E+02  0.7818608E-02  0.1452163E+00
          2   -1    0    0  502    0  0.00000000000E+00  0.00000000000E+00  0.57430160767E+02  0.57430160767E+02  0.00000000000E+00 0. -1.
          1   -1    0    0  501    0 -0.00000000000E+00 -0.00000000000E+00 -0.33722706249E+04  0.33722706249E+04  0.00000000000E+00 0. -1.
         25    2    1    2    0    0  0.55978784213E+02 -0.42350687995E+02 -0.77490073380E+03  0.78805048122E+03  0.12500083465E+03 0.  0.
          2    1    1    2  501    0  0.10900390219E+02  0.33613500136E+02 -0.25682566251E+04  0.25684997135E+04  0.00000000000E+00 0. -1.
          1    1    1    2  502    0 -0.66879174432E+02  0.87371878592E+01  0.28316894770E+02  0.73150590933E+02  0.00000000000E+00 0. -1.
         22    1    3    3    0    0  0.84484775080E+02 -0.28577502853E+02 -0.71267599157E+03  0.71823493361E+03  0.00000000000E+00 0.  1.
         22    1    3    3    0    0 -0.28505990866E+02 -0.13773185142E+02 -0.62224742223E+02  0.69815547616E+02  0.00000000000E+00 0.  1.
</event>
<event>
 7    1  0.5736319E-006  0.7217796E+02  0.7818608E-02  0.1372572E+00
          2   -1    0    0  502    0  0.00000000000E+00  0.00000000000E+00  0.26213006823E+03  0.26213006823E+03  0.00000000000E+00 0. -1.
          1   -1    0    0  501    0 -0.00000000000E+00 -0.00000000000E+00 -0.73541012742E+03  0.73541012742E+03  0.00000000000E+00 0. -1.
         25    2    1    2    0    0 -0.54388454661E+02 -0.62313336478E+02 -0.40993858826E+02  0.15539269162E+03  0.12500134497E+03 0.  0.
          2    1    1    2  501    0 -0.18543506604E+02  0.58312706215E+02 -0.62917672842E+03  0.63214522772E+03  0.00000000000E+00 0. -1.
          1    1    1    2  502    0  0.72931961265E+02  0.40006302638E+01  0.19689052806E+03  0.21000227631E+03  0.00000000000E+00 0. -1.
         22    1    3    3    0    0 -0.67884926225E+02  0.12668315794E+02 -0.38721911694E+02  0.79172191323E+02  0.00000000000E+00 0. -1.
         22    1    3    3    0    0  0.13496471563E+02 -0.74981652272E+02 -0.22719471311E+01  0.76220500300E+02  0.00000000000E+00 0. -1.
</event>
<event>
 7    1  0.5736319E-006  0.1095813E+03  0.7818608E-02  0.1455142E+00
          2   -1    0    0  502    0  0.00000000000E+00  0.00000000000E+00  0.29696921755E+02  0.29696921755E+02  0.00000000000E+00 0. -1.
          1   -1    0    0  501    0 -0.00000000000E+00 -0.00000000000E+00 -0.13447820081E+04  0.13447820081E+04  0.00000000000E+00 0. -1.
         25    2    1    2    0    0  0.10839031466E+03 -0.31789867038E+02 -0.56877228209E+03  0.59320022977E+03  0.12500219107E+03 0.  0.
          2    1    1    2  501    0 -0.11352902719E+02 -0.17934155281E+02 -0.59173006019E+03  0.59211062012E+03  0.00000000000E+00 0. -1.
          1    1    1    2  502    0 -0.97037411937E+02  0.49724022319E+02 -0.15458274403E+03  0.18916807992E+03  0.00000000000E+00 0. -1.
         22    1    3    3    0    0 -0.18504197739E+02  0.34085635919E+01 -0.21316139386E+03  0.21399019481E+03  0.00000000000E+00 0.  1.
         22    1    3    3    0    0  0.12689451240E+03 -0.35198430630E+02 -0.35561088823E+03  0.37921003497E+03  0.00000000000E+00 0.  1.
</event>
<event>
 7    1  0.5736319E-006  0.5904461E+02  0.7818608E-02  0.1451102E+00
          2   -1    0    0  502    0  0.00000000000E+00  0.00000000000E+00  0.78108276162E+02  0.78108276162E+02  0.00000000000E+00 0. -1.
          1   -1    0    0  501    0 -0.00000000000E+00 -0.00000000000E+00 -0.21274019289E+04  0.21274019289E+04  0.00000000000E+00 0. -1.
         25    2    1    2    0    0  0.89498119357E+02  0.15298142028E+02 -0.14999805890E+04  0.15079158497E+04  0.12499798280E+03 0.  0.
          2    1    1    2  501    0 -0.50648378419E+02 -0.35843342335E+01 -0.61677924989E+03  0.61886569527E+03  0.00000000000E+00 0. -1.
          1    1    1    2  502    0 -0.38849740938E+02 -0.11713807794E+02  0.67466186121E+02  0.78728660180E+02  0.00000000000E+00 0. -1.
         22    1    3    3    0    0  0.10490381286E+03  0.41302065928E+02 -0.87908074661E+03  0.88628078489E+03  0.00000000000E+00 0.  1.
         22    1    3    3    0    0 -0.15405693502E+02 -0.26003923901E+02 -0.62089984240E+03  0.62163506476E+03  0.00000000000E+00 0.  1.
</event>
<event>
 7    1  0.5736319E-006  0.1016197E+04  0.7818608E-02  0.1009058E+00
          2   -1    0    0  502    0  0.00000000000E+00  0.00000000000E+00  0.23127082616E+04  0.23127082616E+04  0.00000000000E+00 0. -1.
          1   -1    0    0  501    0 -0.00000000000E+00 -0.00000000000E+00 -0.98286866426E+03  0.98286866426E+03  0.00000000000E+00 0. -1.
         25    2    1    2    0    0 -0.60209137393E+03 -0.93258701045E+03 -0.59633485035E+02  0.11186663539E+04  0.12500281633E+03 0.  0.
          2    1    1    2  501    0  0.34851742818E+03  0.85712209608E+03  0.18481910606E+03  0.94354691844E+03  0.00000000000E+00 0. -1.
          1    1    1    2  502    0  0.25357394575E+03  0.75464914371E+02  0.12046539763E+04  0.12333636535E+04  0.00000000000E+00 0. -1.
         22    1    3    3    0    0 -0.52897815663E+03 -0.74296340249E+03 -0.73289497807E+02  0.91497751782E+03  0.00000000000E+00 0. -1.
         22    1    3    3    0    0 -0.73113217300E+02 -0.18962360796E+03  0.13656012772E+02  0.20368883603E+03  0.00000000000E+00 0. -1.
</event>
<event>
 7    1  0.5736319E-006  0.8217525E+02  0.7818608E-02  0.1498448E+00
          2   -1    0    0  502    0  0.00000000000E+00  0.00000000000E+00  0.40310332994E+03  0.40310332994E+03  0.00000000000E+00 0. -1.
          1   -1    0    0  501    0 -0.00000000000E+00 -0.00000000000E+00 -0.57467033750E+03  0.57467033750E+03  0.00000000000E+00 0. -1.
         25    2    1    2    0    0  0.41853553578E+02 -0.55354950525E+02 -0.82145911551E+02  0.16488944022E+03  0.12499874486E+03 0.  0.
          2    1    1    2  501    0 -0.69227467917E+01 -0.19630436627E+02 -0.44617753204E+03  0.44666281305E+03  0.00000000000E+00 0. -1.
          1    1    1    2  502    0 -0.34930806786E+02  0.74985387152E+02  0.35675643603E+03  0.36622141417E+03  0.00000000000E+00 0. -1.
         22    1    3    3    0    0  0.93535467062E+01  0.36005426544E+02 -0.50831161701E+02  0.62989575141E+02  0.00000000000E+00 0.  1.
         22    1    3    3    0    0  0.32500006872E+02 -0.91360377069E+02 -0.31314749850E+02  0.10189986508E+03  0.00000000000E+00 0.  1.
</event>
<event>
 7    1  0.5736319E-006  0.2750725E+03  0.7818608E-02  0.1115116E+00
          2   -1    0    0  502    0  0.00000000000E+00  0.00000000000E+00  0.87893246264E+03  0.87893246264E+03  0.00000000000E+00 0. -1.
          1   -1    0    0  501    0 -0.00000000000E+00 -0.00000000000E+00 -0.10621299995E+04  0.10621299995E+04  0.00000000000E+00 0. -1.
         25    2    1    2    0    0  0.26415349852E+03 -0.17099097252E+02 -0.41140175971E+03  0.50492237478E+03  0.12500298696E+03 0.  0.
          2    1    1    2  501    0 -0.90639414242E+02 -0.20273101136E+03 -0.55852308085E+03  0.60105190976E+03  0.00000000000E+00 0. -1.
          1    1    1    2  502    0 -0.17351408428E+03  0.21983010861E+03  0.78672730367E+03  0.83508817764E+03  0.00000000000E+00 0. -1.
         22    1    3    3    0    0  0.26195417369E+03 -0.35431750631E+02 -0.40800002025E+03  0.48614752349E+03  0.00000000000E+00 0. -1.
         22    1    3    3    0    0  0.21993248272E+01  0.18332653378E+02 -0.34017394589E+01  0.18774851289E+02  0.00000000000E+00 0. -1.
</event>
<event>
 7    1  0.5736319E-006  0.9920861E+02  0.7818608E-02  0.1369877E+00
          2   -1    0    0  502    0  0.00000000000E+00  0.00000000000E+00  0.50630814994E+03  0.50630814994E+03  0.00000000000E+00 0. -1.
          1   -1    0    0  501    0 -0.00000000000E+00 -0.00000000000E+00 -0.11367546665E+04  0.11367546665E+04  0.00000000000E+00 0. -1.
         25    2    1    2    0    0 -0.48414181807E+02  0.68687977555E+02  0.17514958539E+03  0.23100558017E+03  0.12499691815E+03 0.  0.
          2    1    1    2  501    0  0.88046353766E+02 -0.46296157134E+02 -0.11048710892E+04  0.11093401725E+04  0.00000000000E+00 0. -1.
          1    1    1    2  502    0 -0.39632171959E+02 -0.22391820421E+02  0.29927498727E+03  0.30271706375E+03  0.00000000000E+00 0. -1.
         22    1    3    3    0    0 -0.10747824211E+02 -0.50445065419E+01  0.14090918274E+03  0.14140848826E+03  0.00000000000E+00 0.  1.
         22    1    3    3    0    0 -0.37666357597E+02  0.73732484097E+02  0.34240402650E+02  0.89597091913E+02  0.00000000000E+00 0.  1.
</event>
<event>
 7    1  0.5736319E-006  0.5637120E+02  0.7818608E-02  0.1463850E+00
          2   -1    0    0  502    0  0.00000000000E+00  0.00000000000E+00  0.87591639150E+03  0.87591639150E+03  0.00000000000E+00 0. -1.
          1   -1    0    0  501    0 -0.00000000000E+00 -0.00000000000E+00 -0.30917775060E+03  0.30917775060E+03  0.00000000000E+00 0. -1.
         25    2    1    2    0    0 -0.17879507665E+01  0.29364293170E+02 -0.27934170884E+02  0.13141868345E+03  0.12500037590E+03 0.  0.
          2    1    1    2  501    0  0.34919950512E+02  0.16751307470E+02 -0.22688031387E+03  0.23016230375E+03  0.00000000000E+00 0. -1.
          1    1    1    2  502    0 -0.33131999746E+02 -0.46115600640E+02  0.82155312565E+03  0.82351315490E+03  0.00000000000E+00 0. -1.
         22    1    3    3    0    0 -0.42713080542E+02  0.49152327404E+02  0.17208965422E+02  0.67353597005E+02  0.00000000000E+00 0. -1.
         22    1    3    3    0    0  0.40925129776E+02 -0.19788034233E+02 -0.45143136307E+02  0.64065086448E+02  0.00000000000E+00 0. -1.
</event>
<event>
 7    1  0.5736319E-006  0.7144011E+02  0.7818608E-02  0.1367445E+00
          2   -1    0    0  502    0  0.00000000000E+00  0.00000000000E+00  0.89957507846E+03  0.89957507846E+03  0.00000000000E+00 0. -1.
          1   -1    0    0  501    0 -0.00000000000E+00 -0.00000000000E+00 -0.70556733782E+02  0.70556733782E+02  0.00000000000E+00 0. -1.
         25    2    1    2    0    0 -0.22661592634E+02 -0.27854497802E+02  0.21816561763E+03  0.25398856269E+03  0.12499812971E+03 0.  0.
          2    1    1    2  501    0  0.43882350469E+02 -0.47274584971E+02 -0.29585944914E+02  0.70963900705E+02  0.00000000000E+00 0. -1.
          1    1    1    2  502    0 -0.21220757835E+02  0.75129082773E+02  0.64043867196E+03  0.64517934885E+03  0.00000000000E+00 0. -1.
         22    1    3    3    0    0 -0.59642588877E+02  0.19599780937E+02  0.69750014232E+02  0.93842710458E+02  0.00000000000E+00 0.  1.
         22    1    3    3    0    0  0.36980996243E+02 -0.47454278739E+02  0.14841560340E+03  0.16014585223E+03  0.00000000000E+00 0.  1.
</event>
<event>
 7    1  0.5736319E-006  0.6457334E+02  0.7818608E-02  0.1413182E+00
          2   -1    0    0  502    0  0.00000000000E+00  0.00000000000E+00  0.81739905545E+03  0.81739905545E+03  0.00000000000E+00 0. -1.
          1   -1    0    0  501    0 -0.00000000000E+00 -0.00000000000E+00 -0.13575699613E+04  0.13575699613E+04  0.00000000000E+00 0. -1.
         25    2    1    2    0    0  0.22124465815E+02 -0.84340638088E+02  0.38294617032E+02  0.15714392970E+03  0.12499960691E+03 0.  0.
          2    1    1    2  501    0  0.21363800169E+02  0.60868780529E+02 -0.12964940688E+04  0.12980979512E+04  0.00000000000E+00 0. -1.
          1    1    1    2  502    0 -0.43488265984E+02  0.23471857559E+02  0.71802854592E+03  0.71972713588E+03  0.00000000000E+00 0. -1.
         22    1    3    3    0    0 -0.32482177063E+02 -0.71377603461E+02  0.58131493118E+02  0.97617235131E+02  0.00000000000E+00 0.  1.
         22    1    3    3    0    0  0.54606642878E+02 -0.12963034627E+02 -0.19836876086E+02  0.59526694566E+02  0.00000000000E+00 0.  1.
</event>
<event>
 7    1  0.5736319E-006  0.5591570E+02  0.7818608E-02  0.1433567E+00
          2   -1    0    0  502    0  0.00000000000E+00  0.00000000000E+00  0.19774038976E+04  0.19774038976E+04  0.00000000000E+00 0. -1.
          1   -1    0    0  501    0 -0.00000000000E+00 -0.00000000000E+00 -0.92547118511E+03  0.92547118511E+03  0.00000000000E+00 0. -1.
         25    2    1    2    0    0 -0.36282759306E+02 -0.84406515649E+02  0.10272551078E+03  0.18606392853E+03  0.12500542559E+03 0.  0.
          2    1    1    2  501    0 -0.61738884815E+01  0.48433696740E+02 -0.88270481625E+03  0.88405414569E+03  0.00000000000E+00 0. -1.
          1    1    1    2  502    0  0.42456647788E+02  0.35972818909E+02  0.18319120180E+04  0.18327570085E+04  0.00000000000E+00 0. -1.
         22    1    3    3    0    0 -0.31495735632E+02 -0.96895596702E+02  0.21995055620E+02  0.10423301058E+03  0.00000000000E+00 0.  1.
         22    1    3    3    0    0 -0.47870236738E+01  0.12489081053E+02  0.80730455163E+02  0.81830917947E+02  0.00000000000E+00 0.  1.
</event>
<event>
 7    1  0.5736319E-006  0.1879106E+03  0.7818608E-02  0.1287476E+00
          2   -1    0    0  502    0  0.00000000000E+00  0.00000000000E+00  0.28697248804E+04  0.28697248804E+04  0.00000000000E+00 0. -1.
          1   -1    0    0  501    0 -0.00000000000E+00 -0.00000000000E+00 -0.20960081526E+04  0.20960081526E+04  0.00000000000E+00 0. -1.
         25    2    1    2    0    0 -0.19349184726E+03 -0.13343503969E+03  0.75912674897E+03  0.80445129312E+03  0.12499782891E+03 0.  0.
          2    1    1    2  501    0  0.14644446394E+03  0.11734342399E+03 -0.20688024245E+04  0.20772960626E+04  0.00000000000E+00 0. -1.
          1    1    1    2  502    0  0.47047383321E+02  0.16091615704E+02  0.20833924033E+04  0.20839856772E+04  0.00000000000E+00 0. -1.
         22    1    3    3    0    0 -0.17860850367E+03 -0.10744641333E+03  0.47461646393E+03  0.51836909356E+03  0.00000000000E+00 0.  1.
         22    1    3    3    0    0 -0.14883343593E+02 -0.25988626364E+02  0.28451028503E+03  0.28608219956E+03  0.00000000000E+00 0.  1.
</event>
<event>
 7    1  0.5736319E-006  0.1100358E+03  0.7818608E-02  0.1264461E+00
          2   -1    0    0  502    0  0.00000000000E+00  0.00000000000E+00  0.38899837492E+03  0.38899837492E+03  0.00000000000E+00 0. -1.
          1   -1    0    0  501    0 -0.00000000000E+00 -0.00000000000E+00 -0.21771918242E+03  0.21771918242E+03  0.00000000000E+00 0. -1.
         25    2    1    2    0    0  0.35872385929E+02 -0.33563600311E+02  0.63457927283E+01  0.13445820974E+03  0.12500159096E+03 0.  0.
          2    1    1    2  501    0 -0.51841258376E+02 -0.92291669365E+02 -0.12020609887E+03  0.16017107888E+03  0.00000000000E+00 0. -1.
          1    1    1    2  502    0  0.15968872447E+02  0.12585526968E+03  0.28513949864E+03  0.31208826873E+03  0.00000000000E+00 0. -1.
         22    1    3    3    0    0 -0.39794448668E+02 -0.35608685493E+02 -0.15625828013E+02  0.55639402660E+02  0.00000000000E+00 0. -1.
         22    1    3    3    0    0  0.75666834597E+02  0.20450851825E+01  0.21971620741E+02  0.78818807079E+02  0.00000000000E+00 0. -1.
</event>
<event>
 7    1  0.5736319E-006  0.9461248E+02  0.7818608E-02  0.1379074E+00
          2   -1    0    0  502    0  0.00000000000E+00  0.00000000000E+00  0.16579531761E+04  0.16579531761E+04  0.00000000000E+00 0. -1.
          1   -1    0    0  501    0 -0.00000000000E+00 -0.00000000000E+00 -0.14568941368E+02  0.14568941368E+02  0.00000000000E+00 0. -1.
         25    2    1    2    0    0  0.67699593194E+02  0.14751393284E+02  0.74832502421E+03  0.76185060274E+03  0.12500064209E+03 0.  0.
          2    1    1    2  501    0 -0.10148738082E+03 -0.43333117863E+02  0.44649966737E+03  0.45993412630E+03  0.00000000000E+00 0. -1.
          1    1    1    2  502    0  0.33787787630E+02  0.28581724578E+02  0.44855954316E+03  0.45073738843E+03  0.00000000000E+00 0. -1.
         22    1    3    3    0    0 -0.20460065327E+02  0.24304295843E+02  0.43670876939E+03  0.43786283507E+03  0.00000000000E+00 0. -1.
         22    1    3    3    0    0  0.88159658521E+02 -0.95529025591E+01  0.31161625481E+03  0.32398776767E+03  0.00000000000E+00 0. -1.
</event>
<event>
 7    1  0.5736319E-006  0.9187773E+02  0.7818608E-02  0.1350478E+00
          2   -1    0    0  502    0  0.00000000000E+00  0.00000000000E+00  0.48640066111E+03  0.48640066111E+03  0.00000000000E+00 0. -1.
          1   -1    0    0  501    0 -0.00000000000E+00 -0.00000000000E+00 -0.23635498773E+03  0.23635498773E+03  0.00000000000E+00 0. -1.
         25    2    1    2    0    0 -0.88638522412E+02 -0.80148936434E+02  0.20783249538E+02  0.17417694169E+03  0.12500009555E+03 0.  0.
          2    1    1    2  501    0  0.86976755046E+02  0.22319826474E+02 -0.14462942403E+03  0.17023748373E+03  0.00000000000E+00 0. -1.
          1    1    1    2  502    0  0.16617673669E+01  0.57829109960E+02  0.37389184788E+03  0.37834122342E+03  0.00000000000E+00 0. -1.
         22    1    3    3    0    0 -0.31761876068E+02 -0.10554006705E+03  0.19160405017E+02  0.11186886807E+03  0.00000000000E+00 0.  1.
         22    1    3    3    0    0 -0.56876646344E+02  0.25391130614E+02  0.16228445202E+01  0.62308073614E+02  0.00000000000E+00 0.  1.
</event>
<event>
 7    1  0.5736319E-006  0.1335427E+03  0.7818608E-02  0.1305993E+00
          2   -1    0    0  502    0  0.00000000000E+00  0.00000000000E+00  0.22234339856E+04  0.22234339856E+04  0.00000000000E+00 0. -1.
          1   -1    0    0  501    0 -0.00000000000E+00 -0.00000000000E+00 -0.24495104340E+04  0.24495104340E+04  0.00000000000E+00 0. -1.
         25    2    1    2    0    0  0.15340343187E+03 -0.22124990030E+01  0.11741712688E+03  0.23010521530E+03  0.12499648140E+03 0.  0.
          2    1    1    2  501    0 -0.12415017676E+03 -0.48950054284E+02 -0.23908815867E+04  0.23946031270E+04  0.00000000000E+00 0. -1.
          1    1    1    2  502    0 -0.29253255115E+02  0.51162553286E+02  0.20473880113E+04  0.20482360774E+04  0.00000000000E+00 0. -1.
         22    1    3    3    0    0  0.83285907208E+02  0.30243277390E+02  0.12417315486E+03  0.15254563433E+03  0.00000000000E+00 0. -1.
         22    1    3    3    0    0  0.70117524666E+02 -0.32455776393E+02 -0.67560279714E+01  0.77559580972E+02  0.00000000000E+00 0. -1.
</event>
<event>
 7    1  0.5736319E-006  0.1037802E+03  0.7818608E-02  0.1402135E+00
          2   -1    0    0  502    0  0.00000000000E+00  0.00000000000E+00  0.27618328604E+03  0.27618328604E+03  0.00000000000E+00 0. -1.
          1   -1    0    0  501    0 -0.00000000000E+00 -0.00000000000E+00 -0.81257498236E+03  0.81257498236E+03  0.00000000000E+00 0. -1.
         25    2    1    2    0    0 -0.13168572189E+03  0.18674269709E+02 -0.17253721204E+03  0.25116589690E+03  0.12500144211E+03 0.  0.
          2    1    1    2  501    0  0.29421786019E+02 -0.16074591967E+02 -0.58917980868E+03  0.59013293498E+03  0.00000000000E+00 0. -1.
          1    1    1    2  502    0  0.10226393587E+03 -0.25996777423E+01  0.22532532440E+03  0.24745943651E+03  0.00000000000E+00 0. -1.
         22    1    3    3    0    0 -0.50064490699E+02  0.36337509222E+02 -0.15352317851E+03  0.16551807800E+03  0.00000000000E+00 0.  1.
         22    1    3    3    0    0 -0.81621231189E+02 -0.17663239512E+02 -0.19014033526E+02  0.85647818897E+02  0.00000000000E+00 0.  1.
</event>
<event>
 7    1  0.5736319E-006  0.1322542E+03  0.7818608E-02  0.1290115E+00
          2   -1    0    0  502    0  0.00000000000E+00  0.00000000000E+00  0.15924432972E+04  0.15924432972E+04  0.00000000000E+00 0. -1.
          1   -1    0    0  501    0 -0.00000000000E+00 -0.00000000000E+00 -0.30392198613E+03  0.30392198613E+03  0.00000000000E+00 0. -1.
         25    2    1    2    0    0 -0.19506207329E+03  0.21453273576E+02  0.25330189882E+03  0.34394305532E+03  0.12500207187E+03 0.  0.
          2    1    1    2  501    0  0.68913814900E+02 -0.97918882356E+00 -0.25078512859E+03  0.26008316635E+03  0.00000000000E+00 0. -1.
          1    1    1    2  502    0  0.12614825839E+03 -0.20474084752E+02  0.12860045408E+04  0.12923390617E+04  0.00000000000E+00 0. -1.
         22    1    3    3    0    0 -0.11617154404E+02 -0.32622812160E+02  0.13384523137E+02  0.37126158020E+02  0.00000000000E+00 0. -1.
         22    1    3    3    0    0 -0.18344491889E+03  0.54076085736E+02  0.23991737568E+03  0.30681689730E+03  0.00000000000E+00 0. -1.
</event>
<event>
 7    1  0.5736319E-006  0.6993180E+02  0.7818608E-02  0.1426614E+00
          2   -1    0    0  502    0  0.00000000000E+00  0.00000000000E+00  0.34851548494E+04  0.34851548494E+04  0.00000000000E+00 0. -1.
          1   -1    0    0  501    0 -0.00000000000E+00 -0.00000000000E+00 -0.79348069001E+03  0.79348069001E+03  0.00000000000E+00 0. -1.
         25    2    1    2    0    0  0.69391289592E+02  0.51565585856E+01  0.72722730468E+03  0.74116603388E+03  0.12500318372E+03 0.  0.
          2    1    1    2  501    0 -0.60552841410E+02  0.35035622839E+02 -0.78480138130E+03  0.78791328810E+03  0.00000000000E+00 0. -1.
          1    1    1    2  502    0 -0.88384481811E+01 -0.40192181425E+02  0.27492482360E+04  0.27495562175E+04  0.00000000000E+00 0. -1.
         22    1    3    3    0    0  0.48646570361E+01  0.38896472028E+02  0.72645974851E+02  0.82547187029E+02  0.00000000000E+00 0. -1.
         22    1    3    3    0    0  0.64526632555E+02 -0.33739913443E+02  0.65458132983E+03  0.65861884686E+03  0.00000000000E+00 0. -1.
</event>
<event>
 7    1  0.5736319E-006  0.4520033E+02  0.7818608E-02  0.1489856E+00
          2   -1    0    0  502    0  0.00000000000E+00  0.00000000000E+00  0.17819131053E+04  0.17819131053E+04  0.00000000000E+00 0. -1.
          1   -1    0    0  501    0 -0.00000000000E+00 -0.00000000000E+00 -0.81399664142E+03  0.81399664142E+03  0.00000000000E+00 0. -1.
         25    2    1    2    0    0  0.16032270654E+02  0.10024097345E+01  0.34316121879E+02  0.13061660337E+03  0.12500024931E+03 0.  0.
          2    1    1    2  501    0  0.35278079740E+01  0.40007940491E+02 -0.76501583582E+03  0.76606938967E+03  0.00000000000E+00 0. -1.
          1    1    1    2  502    0 -0.19560078628E+02 -0.41010350225E+02  0.16986161778E+04  0.16992237536E+04  0.00000000000E+00 0. -1.
         22    1    3    3    0    0  0.18764019900E+02 -0.60335144007E+02  0.27256330446E+02  0.68813702084E+02  0.00000000000E+00 0.  1.
         22    1    3    3    0    0 -0.27317492456E+01  0.61337553741E+02  0.70597914337E+01  0.61802901291E+02  0.00000000000E+00 0.  1.
</event>
<event>
 7    1  0.5736319E-006  0.1296825E+03  0.7818608E-02  0.1244549E+00
          2   -1    0    0  502    0  0.00000000000E+00  0.00000000000E+00  0.49007640281E+03  0.49007640281E+03  0.00000000000E+00 0. -1.
          1   -1    0    0  501    0 -0.00000000000E+00 -0.00000000000E+00 -0.40382812278E+03  0.40382812278E+03  0.00000000000E+00 0. -1.
         25    2    1    2    0    0 -0.29945962703E+01 -0.20727360864E+03 -0.24688104525E+02  0.24332172089E+03  0.12499856362E+03 0.  0.
          2    1    1    2  501    0  0.52582207444E+02  0.10972825680E+03 -0.24751238136E+03  0.27580347678E+03  0.00000000000E+00 0. -1.
          1    1    1    2  502    0 -0.49587611174E+02  0.97545351840E+02  0.35844876592E+03  0.37477932792E+03  0.00000000000E+00 0. -1.
         22    1    3    3    0    0 -0.25029296339E+02 -0.20077897526E+03  0.90156819418E+01  0.20253381224E+03  0.00000000000E+00 0. -1.
         22    1    3    3    0    0  0.22034700069E+02 -0.64946333843E+01 -0.33703786467E+02  0.40787908651E+02  0.00000000000E+00 0. -1.
</event>
<event>
 7    1  0.5736319E-006  0.1129181E+03  0.7818608E-02  0.1270907E+00
          2   -1    0    0  502    0  0.00000000000E+00  0.00000000000E+00  0.23640360263E+04  0.23640360263E+04  0.00000000000E+00 0. -1.
          1   -1    0    0  501    0 -0.00000000000E+00 -0.00000000000E+00 -0.73756989067E+03  0.73756989067E+03  0.00000000000E+00 0. -1.
         25    2    1    2    0    0  0.47227123726E+02 -0.85953732139E+02 -0.40264048847E+03  0.43285335078E+03  0.12499686014E+03 0.  0.
          2    1    1    2  501    0 -0.13674071070E+03  0.48854070602E+02 -0.30228299691E+03  0.33535019367E+03  0.00000000000E+00 0. -1.
          1    1    1    2  502    0  0.89513586969E+02  0.37099661537E+02  0.23313896210E+04  0.23334023725E+04  0.00000000000E+00 0. -1.
         22    1    3    3    0    0 -0.34220962237E+02 -0.43798092904E+02 -0.79870204402E+02  0.97306714823E+02  0.00000000000E+00 0. -1.
         22    1    3    3    0    0  0.81448085963E+02 -0.42155639234E+02 -0.32277028407E+03  0.33554663596E+03  0.00000000000E+00 0. -1.
</event>
<event>
 7    1  0.5736319E-006  0.7580015E+02  0.7818608E-02  0.1450158E+00
          2   -1    0    0  502    0  0.00000000000E+00  0.00000000000E+00  0.18048546603E+04  0.18048546603E+04  0.00000000000E+00 0. -1.
          1   -1    0    0  501    0 -0.00000000000E+00 -0.00000000000E+00 -0.55186199178E+02  0.55186199178E+02  0.00000000000E+00 0. -1.
         25    2    1    2    0    0 -0.54298101732E+02  0.81496984371E+02  0.15136805475E+03  0.21939508135E+03  0.12502748261E+03 0.  0.
          2    1    1    2  501    0  0.47542674236E+02 -0.50394107851E+02  0.36101951521E+02  0.78123126430E+02  0.00000000000E+00 0. -1.
          1    1    1    2  502    0  0.67554274951E+01 -0.31102876520E+02  0.15621984549E+04  0.15625226517E+04  0.00000000000E+00 0. -1.
         22    1    3    3    0    0 -0.61665807421E+02  0.98334968305E+02  0.16113065990E+03  0.19858380437E+03  0.00000000000E+00 0. -1.
         22    1    3    3    0    0  0.73677056892E+01 -0.16837983934E+02 -0.97626051551E+01  0.20811276979E+02  0.00000000000E+00 0. -1.
</event>
<event>
 7    1  0.5736319E-006  0.8868456E+02  0.7818608E-02  0.1399643E+00
          2   -1    0    0  502    0  0.00000000000E+00  0.00000000000E+00  0.35245240980E+03  0.35245240980E+03  0.00000000000E+00 0. -1.
          1   -1    0    0  501    0 -0.00000000000E+00 -0.00000000000E+00 -0.24863998617E+03  0.24863998617E+03  0.00000000000E+00 0. -1.
         25    2    1    2    0    0 -0.45790441772E+02 -0.35495217981E+02  0.14832500237E+03  0.20243922402E+03  0.12499863213E+03 0.  0.
          2    1    1    2  501    0  0.50210495992E+02  0.75264707233E+02 -0.20986020912E+03  0.22853266164E+03  0.00000000000E+00 0. -1.
          1    1    1    2  502    0 -0.44200542201E+01 -0.39769489251E+02  0.16534763038E+03  0.17012051031E+03  0.00000000000E+00 0. -1.
         22    1    3    3    0    0  0.30118464684E+02 -0.51046855969E+02  0.76600128483E+02  0.96852894138E+02  0.00000000000E+00 0.  1.
         22    1    3    3    0    0 -0.75908906456E+02  0.15551637988E+02  0.71724873885E+02  0.10558632988E+03  0.00000000000E+00 0.  1.
</event>
<event>
 7    1  0.5736319E-006  0.6082297E+02  0.7818608E-02  0.1494083E+00
          2   -1    0    0  502    0  0.00000000000E+00  0.00000000000E+00  0.18473341672E+04  0.18473341672E+04  0.00000000000E+00 0. -1.
          1   -1    0    0  501    0 -0.00000000000E+00 -0.00000000000E+00 -0.24906192358E+02  0.24906192358E+02  0.00000000000E+00 0. -1.
         25    2    1    2    0    0 -0.46702063512E+02 -0.33123604003E+02  0.61733980738E+03  0.63246479813E+03  0.12500010889E+03 0.  0.
          2    1    1    2  501    0  0.61164687972E+02  0.80066330534E+01  0.38261597768E+02  0.72589083830E+02  0.00000000000E+00 0. -1.
          1    1    1    2  502    0 -0.14462624459E+02  0.25116970950E+02  0.11668265697E+04  0.11671864776E+04  0.00000000000E+00 0. -1.
         22    1    3    3    0    0  0.98423514803E+01 -0.20980009900E+02  0.15561945263E+02  0.27914276606E+02  0.00000000000E+00 0.  1.
         22    1    3    3    0    0 -0.56544414992E+02 -0.12143594103E+02  0.60177786211E+03  0.60455052152E+03  0.00000000000E+00 0.  1.
</event>
<event>
 7    1  0.5736319E-006  0.3514011E+02  0.7818608E-02  0.1579530E+00
          2   -1    0    0  502    0  0.00000000000E+00  0.00000000000E+00  0.10691664526E+04  0.10691664526E+04  0.00000000000E+00 0. -1.
          1   -1    0    0  501    0 -0.00000000000E+00 -0.00000000000E+00 -0.11396686394E+03  0.11396686394E+03  0.00000000000E+00 0. -1.
         25    2    1    2    0    0 -0.61257573830E+02 -0.23363184292E+00  0.48267423010E+03  0.50234668111E+03  0.12500092272E+03 0.  0.
          2    1    1    2  501    0  0.27959658480E+02  0.64054071547E+01 -0.10164688094E+03  0.10561657137E+03  0.00000000000E+00 0. -1.
          1    1    1    2  502    0  0.33297915350E+02 -0.61717753117E+01  0.57417223949E+03  0.57517006405E+03  0.00000000000E+00 0. -1.
         22    1    3    3    0    0 -0.69322987461E+02  0.74811383975E+01  0.11488588686E+03  0.13438902865E+03  0.00000000000E+00 0. -1.
         22    1    3    3    0    0  0.80654136311E+01 -0.77147702404E+01  0.36778834324E+03  0.36795765245E+03  0.00000000000E+00 0. -1.
</event>
<event>
 7    1  0.5736319E-006  0.9000398E+02  0.7818608E-02  0.1349067E+00
          2   -1    0    0  502    0  0.00000000000E+00  0.00000000000E+00  0.57210344143E+03  0.57210344143E+03  0.00000000000E+00 0. -1.
          1   -1    0    0  501    0 -0.00000000000E+00 -0.00000000000E+00 -0.28751070587E+03  0.28751070587E+03  0.00000000000E+00 0. -1.
         25    2    1    2    0    0  0.98951326433E+02 -0.10338111375E+03  0.64146491746E+02  0.20054496788E+03  0.12499796821E+03 0.  0.
          2    1    1    2  501    0 -0.47965431061E+02  0.72184522819E+02 -0.20859561906E+03  0.22588364306E+03  0.00000000000E+00 0. -1.
          1    1    1    2  502    0 -0.50985895373E+02  0.31196590933E+02  0.42904186287E+03  0.43318553636E+03  0.00000000000E+00 0. -1.
         22    1    3    3    0    0  0.86853858783E+02 -0.10216337984E+03  0.97009634413E+02  0.16550473750E+03  0.00000000000E+00 0.  1.
         22    1    3    3    0    0  0.12097467650E+02 -0.12177339132E+01 -0.32863142667E+02  0.35040230385E+02  0.00000000000E+00 0.  1.
</event>
<event>
 7    1  0.5736319E-006  0.8020951E+02  0.7818608E-02  0.1407462E+00
          2   -1    0    0  502    0  0.00000000000E+00  0.00000000000E+00  0.24752165127E+04  0.24752165127E+04  0.00000000000E+00 0. -1.
          1   -1    0    0  501    0 -0.00000000000E+00 -0.00000000000E+00 -0.36719310367E+04  0.36719310367E+04  0.00000000000E+00 0. -1.
         25    2    1    2    0    0 -0.11623811479E+03  0.78608568922E+01 -0.15258800579E+03  0.22908614992E+03  0.12499708866E+03 0.  0.
          2    1    1    2  501    0  0.76890998925E+02 -0.21363791813E+02 -0.34804590004E+04  0.34813737937E+04  0.00000000000E+00 0. -1.
          1    1    1    2  502    0  0.39347115869E+02  0.13502934921E+02  0.24363324822E+04  0.24366876059E+04  0.00000000000E+00 0. -1.
         22    1    3    3    0    0 -0.25903059131E+02 -0.54050244682E+02 -0.68450776035E+02  0.90982999304E+02  0.00000000000E+00 0. -1.
         22    1    3    3    0    0 -0.90335055663E+02  0.61911101575E+02 -0.84137229751E+02  0.13810315062E+03  0.00000000000E+00 0. -1.
</event>
<event>
 7    1  0.5736319E-006  0.8260439E+02  0.7818608E-02  0.1453667E+00
          2   -1    0    0  502    0  0.00000000000E+00  0.00000000000E+00  0.12120534122E+04  0.12120534122E+04  0.00000000000E+00 0. -1.
          1   -1    0    0  501    0 -0.00000000000E+00 -0.00000000000E+00 -0.38232824730E+03  0.38232824730E+03  0.00000000000E+00 0. -1.
         25    2    1    2    0    0 -0.91007395003E+02 -0.44727432436E+02  0.13411253931E+03  0.20950804376E+03  0.12499823216E+03 0.  0.
          2    1    1    2  501    0  0.11234959114E+02  0.26151899015E+02 -0.34242683421E+03  0.34360774571E+03  0.00000000000E+00 0. -1.
          1    1    1    2  502    0  0.79772435888E+02  0.18575533421E+02  0.10380394598E+04  0.10412658700E+04  0.00000000000E+00 0. -1.
         22    1    3    3    0    0 -0.18606564169E+02  0.43392751302E+01  0.11927730964E+03  0.12079780683E+03  0.00000000000E+00 0. -1.
         22    1    3    3    0    0 -0.72400830834E+02 -0.49066707566E+02  0.14835229664E+02  0.88710236929E+02  0.00000000000E+00 0. -1.
</event>
<event>
 7    1  0.5736319E-006  0.1242161E+03  0.7818608E-02  0.1249558E+00
          2   -1    0    0  502    0  0.00000000000E+00  0.00000000000E+00  0.17612260372E+03  0.17612260372E+03  0.00000000000E+00 0. -1.
          1   -1    0    0  501    0 -0.00000000000E+00 -0.00000000000E+00 -0.11031879857E+04  0.11031879857E+04  0.00000000000E+00 0. -1.
         25    2    1    2    0    0 -0.17274046812E+03  0.30013782553E+02 -0.64723807596E+02  0.22484248743E+03  0.12499950565E+03 0.  0.
          2    1    1    2  501    0  0.68225805744E+02 -0.84543638196E+02 -0.91778757281E+03  0.92419500980E+03  0.00000000000E+00 0. -1.
          1    1    1    2  502    0  0.10451466238E+03  0.54529855642E+02  0.55445998428E+02  0.13027309219E+03  0.00000000000E+00 0. -1.
         22    1    3    3    0    0 -0.10185965846E+03  0.49739395931E+02  0.17286738266E+02  0.11466572657E+03  0.00000000000E+00 0.  1.
         22    1    3    3    0    0 -0.70880809659E+02 -0.19725613378E+02 -0.82010545862E+02  0.11017676086E+03  0.00000000000E+00 0.  1.
</event>
<event>
 7    1  0.5736319E-006  0.3262945E+02  0.7818608E-02  0.1577100E+00
          2   -1    0    0  502    0  0.00000000000E+00  0.00000000000E+00  0.76115276839E+02  0.76115276839E+02  0.00000000000E+00 0. -1.
          1   -1    0    0  501    0 -0.00000000000E+00 -0.00000000000E+00 -0.98917677402E+03  0.98917677402E+03  0.00000000000E+00 0. -1.
         25    2    1    2    0    0 -0.99353029052E+01  0.11514040371E+02 -0.22513132411E+03  0.25795414819E+03  0.12499978441E+03 0.  0.
          2    1    1    2  501    0  0.31172434437E+02  0.11559054440E+02 -0.74311881874E+03  0.74386215872E+03  0.00000000000E+00 0. -1.
          1    1    1    2  502    0 -0.21237131532E+02 -0.23073094811E+02  0.55188645666E+02  0.63475743953E+02  0.00000000000E+00 0. -1.
         22    1    3    3    0    0 -0.51050228118E+02  0.38735668716E+02 -0.18015668469E+03  0.19121456237E+03  0.00000000000E+00 0.  1.
         22    1    3    3    0    0  0.41114925213E+02 -0.27221628345E+02 -0.44974639415E+02  0.66739585821E+02  0.00000000000E+00 0.  1.
</event>
<event>
 7    1  0.5736319E-006  0.9632851E+02  0.7818608E-02  0.1410184E+00
          2   -1    0    0  502    0  0.00000000000E+00  0.00000000000E+00  0.32574668045E+04  0.32574668045E+04  0.00000000000E+00 0. -1.
          1   -1    0    0  501    0 -0.00000000000E+00 -0.00000000000E+00 -0.63409334388E+02  0.63409334388E+02  0.00000000000E+00 0. -1.
         25    2    1    2    0    0 -0.10633100777E+03  0.22515633351E+02  0.68992862704E+03  0.70953414973E+03  0.12499584898E+03 0.  0.
          2    1    1    2  501    0  0.11180041581E+02 -0.32013441825E+02 -0.47257327167E+02  0.58164497403E+02  0.00000000000E+00 0. -1.
          1    1    1    2  502    0  0.95150966185E+02  0.94978084734E+01  0.25513861702E+04  0.25531774917E+04  0.00000000000E+00 0. -1.
         22    1    3    3    0    0 -0.12089190962E+03  0.51039667178E+02  0.59667707028E+03  0.61093651686E+03  0.00000000000E+00 0.  1.
         22    1    3    3    0    0  0.14560901856E+02 -0.28524033827E+02  0.93251556764E+02  0.98597632870E+02  0.00000000000E+00 0.  1.
</event>
<event>
 7    1  0.5736319E-006  0.6351158E+02  0.7818608E-02  0.1395339E+00
          2   -1    0    0  502    0  0.00000000000E+00  0.00000000000E+00  0.28179168288E+03  0.28179168288E+03  0.00000000000E+00 0. -1.
          1   -1    0    0  501    0 -0.00000000000E+00 -0.00000000000E+00 -0.28060673599E+03  0.28060673599E+03  0.00000000000E+00 0. -1.
         25    2    1    2    0    0  0.24534000477E+02 -0.87812823598E+02 -0.14938175551E+03  0.21506085468E+03  0.12499301247E+03 0.  0.
          2    1    1    2  501    0  0.27062773477E+02  0.51093386620E+02 -0.85338168551E+02  0.10308021574E+03  0.00000000000E+00 0. -1.
          1    1    1    2  502    0 -0.51596773955E+02  0.36719436978E+02  0.23590487095E+03  0.24425734845E+03  0.00000000000E+00 0. -1.
         22    1    3    3    0    0  0.25049638382E+02  0.28605414321E+02 -0.42394725178E+02  0.56947930906E+02  0.00000000000E+00 0.  1.
         22    1    3    3    0    0 -0.51563790507E+00 -0.11641823792E+03 -0.10698703034E+03  0.15811292377E+03  0.00000000000E+00 0.  1.
</event>
<event>
 7    1  0.5736319E-006  0.1113156E+03  0.7818608E-02  0.1448311E+00
          2   -1    0    0  502    0  0.00000000000E+00  0.00000000000E+00  0.12286719632E+04  0.12286719632E+04  0.00000000000E+00 0. -1.
          1   -1    0    0  501    0 -0.00000000000E+00 -0.00000000000E+00 -0.26398891624E+04  0.26398891624E+04  0.00000000000E+00 0. -1.
         25    2    1    2    0    0 -0.93446663672E+02 -0.34317000371E+02 -0.34259023594E+02  0.16347163593E+03  0.12505742517E+03 0.  0.
          2    1    1    2  501    0  0.96447019185E+02  0.56081617079E+02 -0.25396953844E+04  0.25421447285E+04  0.00000000000E+00 0. -1.
          1    1    1    2  502    0 -0.30003555135E+01 -0.21764616708E+02  0.11627372088E+04  0.11629447611E+04  0.00000000000E+00 0. -1.
         22    1    3    3    0    0  0.89815459275E+01 -0.35815944059E+02 -0.47517777430E+02  0.60177979261E+02  0.00000000000E+00 0. -1.
         22    1    3    3    0    0 -0.10242820960E+03  0.14989436880E+01  0.13258753837E+02  0.10329365666E+03  0.00000000000E+00 0. -1.
</event>
<event>
 7    1  0.5736319E-006  0.8047146E+02  0.7818608E-02  0.1393045E+00
          2   -1    0    0  502    0  0.00000000000E+00  0.00000000000E+00  0.32318472936E+02  0.32318472936E+02  0.00000000000E+00 0. -1.
          1   -1    0    0  501    0 -0.00000000000E+00 -0.00000000000E+00 -0.13323192565E+04  0.13323192565E+04  0.00000000000E+00 0. -1.
         25    2    1    2    0    0 -0.22617054205E+02  0.34559443049E+02 -0.29578697204E+03  0.32375908817E+03  0.12499651235E+03 0.  0.
          2    1    1    2  501    0  0.29766217138E+02 -0.80482693444E+02 -0.98790356944E+03  0.99162339330E+03  0.00000000000E+00 0. -1.
          1    1    1    2  502    0 -0.71491629329E+01  0.45923250395E+02 -0.16310242117E+02  0.49255247999E+02  0.00000000000E+00 0. -1.
         22    1    3    3    0    0  0.20934066078E+02 -0.54491055325E+01 -0.24457086565E+03  0.24552563247E+03  0.00000000000E+00 0. -1.
         22    1    3    3    0    0 -0.43551120283E+02  0.40008548581E+02 -0.51216106391E+02  0.78233455704E+02  0.00000000000E+00 0. -1.
</event>
<event>
 7    1  0.5736319E-006  0.1405830E+03  0.7818608E-02  0.1277442E+00
          2   -1    0    0  502    0  0.00000000000E+00  0.00000000000E+00  0.14987684086E+04  0.14987684086E+04  0.00000000000E+00 0. -1.
          1   -1    0    0  501    0 -0.00000000000E+00 -0.00000000000E+00 -0.75956487417E+03  0.75956487417E+03  0.00000000000E+00 0. -1.
         25    2    1    2    0    0 -0.12092811920E+03 -0.16890394461E+03 -0.81327565029E+02  0.25571755095E+03  0.12500056205E+03 0.  0.
          2    1    1    2  501    0  0.79779975414E+02  0.10849192892E+03 -0.58240760798E+03  0.59777417555E+03  0.00000000000E+00 0. -1.
          1    1    1    2  502    0  0.41148143788E+02  0.60412015688E+02  0.14029387074E+04  0.14048415563E+04  0.00000000000E+00 0. -1.
         22    1    3    3    0    0 -0.14005264967E+03 -0.17214476877E+03 -0.67718031875E+02  0.23202219277E+03  0.00000000000E+00 0.  1.
         22    1    3    3    0    0  0.19124530466E+02  0.32408241643E+01 -0.13609533154E+02  0.23695358185E+02  0.00000000000E+00 0.  1.
</event>
<event>
 7    1  0.5736319E-006  0.7772649E+02  0.7818608E-02  0.1349688E+00
          2   -1    0    0  502    0  0.00000000000E+00  0.00000000000E+00  0.18118792604E+04  0.18118792604E+04  0.00000000000E+00 0. -1.
          1   -1    0    0  501    0 -0.00000000000E+00 -0.00000000000E+00 -0.41882353473E+03  0.41882353473E+03  0.00000000000E+00 0. -1.
         25    2    1    2    0    0  0.43267469825E+02  0.15848244642E+02  0.78031765538E+03  0.79160790723E+03  0.12499677873E+03 0.  0.
          2    1    1    2  501    0  0.13615795320E+02 -0.76524614696E+02 -0.40781623551E+03  0.41515718528E+03  0.00000000000E+00 0. -1.
          1    1    1    2  502    0 -0.56883265145E+02  0.60676370054E+02  0.10205543058E+04  0.10239377026E+04  0.00000000000E+00 0. -1.
         22    1    3    3    0    0  0.47159403467E+02 -0.47754304875E+02  0.47441803754E+03  0.47914189684E+03  0.00000000000E+00 0.  1.
         22    1    3    3    0    0 -0.38919336421E+01  0.63602549517E+02  0.30589961784E+03  0.31246601039E+03  0.00000000000E+00 0.  1.
</event>
<event>
 7    1  0.5736319E-006  0.1156093E+03  0.7818608E-02  0.1261436E+00
          2   -1    0    0  502    0  0.00000000000E+00  0.00000000000E+00  0.40586436484E+03  0.40586436484E+03  0.00000000000E+00 0. -1.
          1   -1    0    0  501    0 -0.00000000000E+00 -0.00000000000E+00 -0.66563162419E+03  0.66563162419E+03  0.00000000000E+00 0. -1.
         25    2    1    2    0    0  0.81692409158E+02 -0.29923349273E+02 -0.19395511297E+03  0.24660413408E+03  0.12500382614E+03 0.  0.
          2    1    1    2  501    0 -0.48834578378E+02  0.12836146426E+03 -0.42728658069E+03  0.44881544491E+03  0.00000000000E+00 0. -1.
          1    1    1    2  502    0 -0.32857830780E+02 -0.98438114986E+02  0.36147443432E+03  0.37607641004E+03  0.00000000000E+00 0. -1.
         22    1    3    3    0    0  0.62451794207E+02 -0.63103767903E+02 -0.18783938362E+03  0.20776415995E+03  0.00000000000E+00 0.  1.
         22    1    3    3    0    0  0.19240614952E+02  0.33180418630E+02 -0.61157293540E+01  0.38839974121E+02  0.00000000000E+00 0.  1.
</event>
<event>
 7    1  0.5736319E-006  0.1139541E+03  0.7818608E-02  0.1365190E+00
          2   -1    0    0  502    0  0.00000000000E+00  0.00000000000E+00  0.77091656009E+03  0.77091656009E+03  0.00000000000E+00 0. -1.
          1   -1    0    0  501    0 -0.00000000000E+00 -0.00000000000E+00 -0.69815254216E+03  0.69815254216E+03  0.00000000000E+00 0. -1.
         25    2    1    2    0    0  0.25934744120E+02 -0.13872009317E+03 -0.11495057852E+03  0.22077829528E+03  0.12495417145E+03 0.  0.
          2    1    1    2  501    0 -0.44591392629E+02  0.10198174648E+03 -0.52384499754E+03  0.53553921458E+03  0.00000000000E+00 0. -1.
          1    1    1    2  502    0  0.18656648509E+02  0.36738346692E+02  0.71155959398E+03  0.71275159238E+03  0.00000000000E+00 0. -1.
         22    1    3    3    0    0  0.71180635511E+02 -0.12000797780E+03 -0.85088086960E+02  0.16342759911E+03  0.00000000000E+00 0. -1.
         22    1    3    3    0    0 -0.45245891391E+02 -0.18712115367E+02 -0.29862491555E+02  0.57350696170E+02  0.00000000000E+00 0. -1.
</event>
<event>
 7    1  0.5736319E-006  0.7673945E+02  0.7818608E-02  0.1458289E+00
          2   -1    0    0  502    0  0.00000000000E+00  0.00000000000E+00  0.62382841346E+02  0.62382841346E+02  0.00000000000E+00 0. -1.
          1   -1    0    0  501    0 -0.00000000000E+00 -0.00000000000E+00 -0.14588618000E+04  0.14588618000E+04  0.00000000000E+00 0. -1.
         25    2    1    2    0    0  0.87935425245E+02  0.50800033712E+02 -0.18721002041E+03  0.24695410061E+03  0.12500181450E+03 0.  0.
          2    1    1    2  501    0 -0.27025392210E+02 -0.12125814088E+02 -0.12013403667E+04  0.12017054897E+04  0.00000000000E+00 0. -1.
          1    1    1    2  502    0 -0.60910033035E+02 -0.38674219624E+02 -0.79285714901E+01  0.72585051035E+02  0.00000000000E+00 0. -1.
         22    1    3    3    0    0  0.38037370147E+02  0.29609307599E+02 -0.18661452758E+03  0.19273955102E+03  0.00000000000E+00 0. -1.
         22    1    3    3    0    0  0.49898055098E+02  0.21190726113E+02 -0.59549283647E+00  0.54214549592E+02  0.00000000000E+00 0. -1.
</event>
<event>
 7    1  0.5736319E-006  0.2219945E+03  0.7818608E-02  0.1278971E+00
          2   -1    0    0  502    0  0.00000000000E+00  0.00000000000E+00  0.84723389425E+03  0.84723389425E+03  0.00000000000E+00 0. -1.
          1   -1    0    0  501    0 -0.00000000000E+00 -0.00000000000E+00 -0.31665036723E+03  0.31665036723E+03  0.00000000000E+00 0. -1.
         25    2    1    2    0    0 -0.12447708322E+03  0.13940959642E+03  0.30812817240E+03  0.38144319462E+03  0.12500544096E+03 0.  0.
          2    1    1    2  501    0  0.13209227770E+03 -0.18438733062E+03 -0.23272892169E+03  0.32497662763E+03  0.00000000000E+00 0. -1.
          1    1    1    2  502    0 -0.76151944783E+01  0.44977734192E+02  0.45518427630E+03  0.45746443922E+03  0.00000000000E+00 0. -1.
         22    1    3    3    0    0 -0.10947138906E+03  0.74300529259E+02  0.27854788720E+03  0.30837230604E+03  0.00000000000E+00 0.  1.
         22    1    3    3    0    0 -0.15005694156E+02  0.65109067164E+02  0.29580285205E+02  0.73070888573E+02  0.00000000000E+00 0.  1.
</event>
<event>
 7    1  0.5736319E-006  0.5283125E+02  0.7818608E-02  0.1522509E+00
          2   -1    0    0  502    0  0.00000000000E+00  0.00000000000E+00  0.69536653760E+03  0.69536653760E+03  0.00000000000E+00 0. -1.
          1   -1    0    0  501    0 -0.00000000000E+00 -0.00000000000E+00 -0.81411588699E+02  0.81411588699E+02  0.00000000000E+00 0. -1.
         25    2    1    2    0    0 -0.78649450588E+02 -0.51131484477E+01  0.53577068981E+03  0.55577554451E+03  0.12499737376E+03 0.  0.
          2    1    1    2  501    0  0.52300648517E+02 -0.27858660803E+01 -0.60267096085E+02  0.79845111032E+02  0.00000000000E+00 0. -1.
          1    1    1    2  502    0  0.26348802071E+02  0.78990145280E+01  0.13845135518E+03  0.14115747076E+03  0.00000000000E+00 0. -1.
         22    1    3    3    0    0  0.58910061906E+01 -0.26245141759E+02  0.22234117166E+02  0.34897956760E+02  0.00000000000E+00 0. -1.
         22    1    3    3    0    0 -0.84540456779E+02  0.21131993311E+02  0.51353657264E+03  0.52087758775E+03  0.00000000000E+00 0. -1.
</event>
<event>
 7    1  0.5736319E-006  0.6617458E+02  0.7818608E-02  0.1394380E+00
          2   -1    0    0  502    0  0.00000000000E+00  0.00000000000E+00  0.50441871867E+02  0.50441871867E+02  0.00000000000E+00 0. -1.
          1   -1    0    0  501    0 -0.00000000000E+00 -0.00000000000E+00 -0.16227739210E+04  0.16227739210E+04  0.00000000000E+00 0. -1.
         25    2    1    2    0    0  0.45124114967E+02  0.16318818365E+02 -0.32882636930E+03  0.35504116964E+03  0.12499984563E+03 0.  0.
          2    1    1    2  501    0 -0.19486279069E+02 -0.66012679191E+02 -0.12584210717E+04  0.12603019410E+04  0.00000000000E+00 0. -1.
          1    1    1    2  502    0 -0.25637835898E+02  0.49693860826E+02  0.14915391839E+02  0.57872682217E+02  0.00000000000E+00 0. -1.
         22    1    3    3    0    0 -0.26484307697E+02 -0.33631847223E+02 -0.71824805601E+02  0.83614128002E+02  0.00000000000E+00 0.  1.
         22    1    3    3    0    0  0.71608422664E+02  0.49950665588E+02 -0.25700156370E+03  0.27142704164E+03  0.00000000000E+00 0.  1.
</event>
<event>
 7    1  0.5736319E-006  0.1487443E+03  0.7818608E-02  0.1362272E+00
          2   -1    0    0  502    0  0.00000000000E+00  0.00000000000E+00  0.19821447451E+04  0.19821447451E+04  0.00000000000E+00 0. -1.
          1   -1    0    0  501    0 -0.00000000000E+00 -0.00000000000E+00 -0.10451314134E+04  0.10451314134E+04  0.00000000000E+00 0. -1.
         25    2    1    2    0    0  0.12420961334E+02  0.11710938724E+03  0.38831400261E+02  0.17607318694E+03  0.12500000261E+03 0.  0.
          2    1    1    2  501    0  0.43567357566E+01  0.32050930614E+02 -0.97323687838E+03  0.97377423705E+03  0.00000000000E+00 0. -1.
          1    1    1    2  502    0 -0.16777697091E+02 -0.14916031785E+03  0.18714188098E+04  0.18774287346E+04  0.00000000000E+00 0. -1.
         22    1    3    3    0    0  0.41679453816E+02  0.99428692221E+02 -0.18438058183E+02  0.10937643118E+03  0.00000000000E+00 0.  1.
         22    1    3    3    0    0 -0.29258492483E+02  0.17680695016E+02  0.57269458444E+02  0.66696755761E+02  0.00000000000E+00 0.  1.
</event>
<event>
 7    1  0.5736319E-006  0.1250490E+03  0.7818608E-02  0.1264826E+00
          2   -1    0    0  502    0  0.00000000000E+00  0.00000000000E+00  0.91962087068E+03  0.91962087068E+03  0.00000000000E+00 0. -1.
          1   -1    0    0  501    0 -0.00000000000E+00 -0.00000000000E+00 -0.18729709643E+03  0.18729709643E+03  0.00000000000E+00 0. -1.
         25    2    1    2    0    0  0.17326756442E+03 -0.50689068618E+02  0.22658610226E+03  0.31552699841E+03  0.12499997772E+03 0.  0.
          2    1    1    2  501    0 -0.86943862738E+02  0.84789647006E+02 -0.11290809077E+03  0.16582145961E+03  0.00000000000E+00 0. -1.
          1    1    1    2  502    0 -0.86323701683E+02 -0.34100578387E+02  0.61864576276E+03  0.62556950909E+03  0.00000000000E+00 0. -1.
         22    1    3    3    0    0 -0.11353098265E+02 -0.55334522299E+01 -0.69566557060E+01  0.14418980283E+02  0.00000000000E+00 0. -1.
         22    1    3    3    0    0  0.18462066269E+03 -0.45155616388E+02  0.23354275796E+03  0.30110801813E+03  0.00000000000E+00 0. -1.
</event>
<event>
 7    1  0.5736319E-006  0.7075222E+02  0.7818608E-02  0.1441298E+00
          2   -1    0    0  502    0  0.00000000000E+00  0.00000000000E+00  0.57507966745E+03  0.57507966745E+03  0.00000000000E+00 0. -1.
          1   -1    0    0  501    0 -0.00000000000E+00 -0.00000000000E+00 -0.29060476464E+03  0.29060476464E+03  0.00000000000E+00 0. -1.
         25    2    1    2    0    0 -0.45751141008E+02  0.27657775064E+02 -0.12411375528E+03  0.18410998276E+03  0.12503656296E+03 0.  0.
          2    1    1    2  501    0  0.77928128440E+02 -0.10611558269E+02 -0.12449084627E+03  0.14725273911E+03  0.00000000000E+00 0. -1.
          1    1    1    2  502    0 -0.32176987433E+02 -0.17046216796E+02  0.53307950437E+03  0.53432171021E+03  0.00000000000E+00 0. -1.
         22    1    3    3    0    0 -0.79315743926E+02  0.46771130890E+01 -0.11903531388E+03  0.14311627640E+03  0.00000000000E+00 0. -1.
         22    1    3    3    0    0  0.33564602918E+02  0.22980661976E+02 -0.50784414013E+01  0.40993706358E+02  0.00000000000E+00 0. -1.
</event>
<event>
 7    1  0.5736319E-006  0.7031457E+02  0.7818608E-02  0.1410148E+00
          2   -1    0    0  502    0  0.00000000000E+00  0.00000000000E+00  0.73228843707E+03  0.73228843707E+03  0.00000000000E+00 0. -1.
          1   -1    0    0  501    0 -0.00000000000E+00 -0.00000000000E+00 -0.10399451680E+03  0.10399451680E+03  0.00000000000E+00 0. -1.
         25    2    1    2    0    0 -0.20290166465E+02  0.94916557130E+02  0.30738408742E+02  0.16121476998E+03  0.12499803444E+03 0.  0.
          2    1    1    2  501    0  0.38025824228E+02 -0.51966792506E+02 -0.10496437985E+02  0.65243283501E+02  0.00000000000E+00 0. -1.
          1    1    1    2  502    0 -0.17735657764E+02 -0.42949764624E+02  0.60805194951E+03  0.60982490039E+03  0.00000000000E+00 0. -1.
         22    1    3    3    0    0  0.43373150000E+02  0.25636303113E+02 -0.20129467674E+02  0.54255374361E+02  0.00000000000E+00 0.  1.
         22    1    3    3    0    0 -0.63663316464E+02  0.69280254017E+02  0.50867876416E+02  0.10695939562E+03  0.00000000000E+00 0.  1.
</event>
<event>
 7    1  0.5736319E-006  0.6709747E+02  0.7818608E-02  0.1380134E+00
          2   -1    0    0  502    0  0.00000000000E+00  0.00000000000E+00  0.11497198640E+04  0.11497198640E+04  0.00000000000E+00 0. -1.
          1   -1    0    0  501    0 -0.00000000000E+00 -0.00000000000E+00 -0.14508206902E+03  0.14508206902E+03  0.00000000000E+00 0. -1.
         25    2    1    2    0    0  0.20156179279E+02 -0.82219694143E+01  0.91945739435E+00  0.12688742537E+03  0.12500280385E+03 0.  0.
          2    1    1    2  501    0 -0.62578929261E+02  0.53252179436E+02 -0.60411646206E+02  0.10198766592E+03  0.00000000000E+00 0. -1.
          1    1    1    2  502    0  0.42422749982E+02 -0.45030210022E+02  0.10641299838E+04  0.10659268418E+04  0.00000000000E+00 0. -1.
         22    1    3    3    0    0 -0.37329066139E+02 -0.16397104917E+02 -0.39003238204E+02  0.56423193979E+02  0.00000000000E+00 0.  1.
         22    1    3    3    0    0  0.57485245418E+02  0.81751355024E+01  0.39922695598E+02  0.70464231388E+02  0.00000000000E+00 0.  1.
</event>
<event>
 7    1  0.5736319E-006  0.8835798E+02  0.7818608E-02  0.1385022E+00
          2   -1    0    0  502    0  0.00000000000E+00  0.00000000000E+00  0.21298397574E+04  0.21298397574E+04  0.00000000000E+00 0. -1.
          1   -1    0    0  501    0 -0.00000000000E+00 -0.00000000000E+00 -0.10720219743E+03  0.10720219743E+03  0.00000000000E+00 0. -1.
         25    2    1    2    0    0 -0.22004843739E+01 -0.46519879700E+02  0.20364203317E+02  0.13494057822E+03  0.12500127014E+03 0.  0.
          2    1    1    2  501    0 -0.22739204666E+02 -0.39006673419E+02 -0.38528949839E+02  0.59355471321E+02  0.00000000000E+00 0. -1.
          1    1    1    2  502    0  0.24939689040E+02  0.85526553119E+02  0.20408023065E+04  0.20427459053E+04  0.00000000000E+00 0. -1.
         22    1    3    3    0    0 -0.24422538424E+02  0.37490968359E+02 -0.33307040777E+01  0.44867880284E+02  0.00000000000E+00 0. -1.
         22    1    3    3    0    0  0.22222054050E+02 -0.84010848059E+02  0.23694907395E+02  0.90072697940E+02  0.00000000000E+00 0. -1.
</event>
<event>
 7    1  0.5736319E-006  0.1685040E+03  0.7818608E-02  0.1370856E+00
          2   -1    0    0  502    0  0.00000000000E+00  0.00000000000E+00  0.21562478371E+04  0.21562478371E+04  0.00000000000E+00 0. -1.
          1   -1    0    0  501    0 -0.00000000000E+00 -0.00000000000E+00 -0.80354730972E+02  0.80354730972E+02  0.00000000000E+00 0. -1.
         25    2    1    2    0    0  0.18545576398E+03  0.43338160503E+02  0.32985767429E+03  0.40087727887E+03  0.12499788351E+03 0.  0.
          2    1    1    2  501    0 -0.26250880633E+02  0.41980096043E+01 -0.36670715275E+02  0.45293193500E+02  0.00000000000E+00 0. -1.
          1    1    1    2  502    0 -0.15920488334E+03 -0.47536170107E+02  0.17827061471E+04  0.17904320957E+04  0.00000000000E+00 0. -1.
         22    1    3    3    0    0  0.11614431129E+03  0.95886163342E+01  0.29320438584E+03  0.31551585457E+03  0.00000000000E+00 0.  1.
         22    1    3    3    0    0  0.69311452683E+02  0.33749544169E+02  0.36653288444E+02  0.85361424299E+02  0.00000000000E+00 0.  1.
</event>
<event>
 7    1  0.5736319E-006  0.7280646E+02  0.7818608E-02  0.1386295E+00
          2   -1    0    0  502    0  0.00000000000E+00  0.00000000000E+00  0.13055982594E+04  0.13055982594E+04  0.00000000000E+00 0. -1.
          1   -1    0    0  501    0 -0.00000000000E+00 -0.00000000000E+00 -0.19975958588E+03  0.19975958588E+03  0.00000000000E+00 0. -1.
         25    2    1    2    0    0  0.55531152742E+02 -0.91835256041E+01  0.30303591086E+03  0.33259187855E+03  0.12497419070E+03 0.  0.
          2    1    1    2  501    0 -0.11735123633E+02 -0.52949171372E+02 -0.17950616689E+03  0.18752011046E+03  0.00000000000E+00 0. -1.
          1    1    1    2  502    0 -0.43796029109E+02  0.62132696976E+02  0.98230892958E+03  0.98524585629E+03  0.00000000000E+00 0. -1.
         22    1    3    3    0    0  0.33671467886E+02  0.48906559669E+02  0.22596575862E+03  0.23363677663E+03  0.00000000000E+00 0. -1.
         22    1    3    3    0    0  0.21859684856E+02 -0.58090085274E+02  0.77070152241E+02  0.98955101917E+02  0.00000000000E+00 0. -1.
</event>
<event>
 7    1  0.5736319E-006  0.4232702E+02  0.7818608E-02  0.1526650E+00
          2   -1    0    0  502    0  0.00000000000E+00  0.00000000000E+00  0.14347454352E+04  0.14347454352E+04  0.00000000000E+00 0. -1.
          1   -1    0    0  501    0 -0.00000000000E+00 -0.00000000000E+00 -0.88324933881E+03  0.88324933881E+03  0.00000000000E+00 0. -1.
         25    2    1    2    0    0  0.69022392088E+02  0.28349242905E+02  0.10487490957E+03  0.17942009902E+03  0.12500022037E+03 0.  0.
          2    1    1    2  501    0 -0.32567657585E+02 -0.74175837705E+01 -0.84530505448E+03  0.84596472030E+03  0.00000000000E+00 0. -1.
          1    1    1    2  502    0 -0.36454734503E+02 -0.20931659134E+02  0.12919262413E+04  0.12926099547E+04  0.00000000000E+00 0. -1.
         22    1    3    3    0    0 -0.35499334084E+02  0.62689379165E+01  0.42444527015E+02  0.55686983906E+02  0.00000000000E+00 0. -1.
         22    1    3    3    0    0  0.10452172617E+03  0.22080304988E+02  0.62430382559E+02  0.12373311512E+03  0.00000000000E+00 0. -1.
</event>
<event>
 7    1  0.5736319E-006  0.4097490E+02  0.7818608E-02  0.1518066E+00
          2   -1    0    0  502    0  0.00000000000E+00  0.00000000000E+00  0.15343444093E+03  0.15343444093E+03  0.00000000000E+00 0. -1.
          1   -1    0    0  501    0 -0.00000000000E+00 -0.00000000000E+00 -0.22748432362E+03  0.22748432362E+03  0.00000000000E+00 0. -1.
         25    2    1    2    0    0 -0.18628202455E+02 -0.25577350356E+02 -0.10263655524E+03  0.16479215521E+03  0.12498392365E+03 0.  0.
          2    1    1    2  501    0 -0.13721357051E+02  0.42558623968E+02 -0.85415903434E+02  0.96412596028E+02  0.00000000000E+00 0. -1.
          1    1    1    2  502    0  0.32349559507E+02 -0.16981273613E+02  0.11400257598E+03  0.11971401331E+03  0.00000000000E+00 0. -1.
         22    1    3    3    0    0 -0.21984161905E+02 -0.63665162477E+02 -0.10686908843E+03  0.12632322965E+03  0.00000000000E+00 0. -1.
         22    1    3    3    0    0  0.33559594501E+01  0.38087812121E+02  0.42325331974E+01  0.38468925554E+02  0.00000000000E+00 0. -1.
</event>
<event>
 7    1  0.5736319E-006  0.5492503E+02  0.7818608E-02  0.1519228E+00
          2   -1    0    0  502    0  0.00000000000E+00  0.00000000000E+00  0.16907250784E+04  0.16907250784E+04  0.00000000000E+00 0. -1.
          1   -1    0    0  501    0 -0.00000000000E+00 -0.00000000000E+00 -0.12271761075E+04  0.12271761075E+04  0.00000000000E+00 0. -1.
         25    2    1    2    0    0 -0.33252306007E+02  0.15487254184E+02  0.79285437907E+03  0.80348869548E+03  0.12502178388E+03 0.  0.
          2    1    1    2  501    0  0.54937827040E+02  0.67337711367E+00 -0.12210362061E+04  0.12222716698E+04  0.00000000000E+00 0. -1.
          1    1    1    2  502    0 -0.21685521033E+02 -0.16160631297E+02  0.89173079789E+03  0.89214082057E+03  0.00000000000E+00 0. -1.
         22    1    3    3    0    0  0.18934379012E+02  0.56614145040E+02  0.27608488423E+03  0.28246510480E+03  0.00000000000E+00 0. -1.
         22    1    3    3    0    0 -0.52186685019E+02 -0.41126890856E+02  0.51676949484E+03  0.52102359068E+03  0.00000000000E+00 0. -1.
</event>
<event>
 7    1  0.5736319E-006  0.6460188E+02  0.7818608E-02  0.1529024E+00
          2   -1    0    0  502    0  0.00000000000E+00  0.00000000000E+00  0.13982109096E+04  0.13982109096E+04  0.00000000000E+00 0. -1.
          1   -1    0    0  501    0 -0.00000000000E+00 -0.00000000000E+00 -0.12634828684E+03  0.12634828684E+03  0.00000000000E+00 0. -1.
         25    2    1    2    0    0  0.76446275498E+02  0.37894302037E+02  0.47180684935E+03  0.49548896879E+03  0.12501041532E+03 0.  0.
          2    1    1    2  501    0 -0.59105647781E+02 -0.25110120351E+02 -0.10536521552E+03  0.12339296733E+03  0.00000000000E+00 0. -1.
          1    1    1    2  502    0 -0.17340627717E+02 -0.12784181686E+02  0.90542098889E+03  0.90567726028E+03  0.00000000000E+00 0. -1.
         22    1    3    3    0    0  0.76014986395E+02  0.26287882199E+02  0.12597711180E+03  0.14946425527E+03  0.00000000000E+00 0.  1.
         22    1    3    3    0    0  0.43128910295E+00  0.11606419838E+02  0.34582973755E+03  0.34602471352E+03  0.00000000000E+00 0.  1.
</event>
<event>
 7    1  0.5736319E-006  0.1213841E+03  0.7818608E-02  0.1243121E+00
          2   -1    0    0  502    0  0.00000000000E+00  0.00000000000E+00  0.16995784599E+04  0.16995784599E+04  0.00000000000E+00 0. -1.
          1   -1    0    0  501    0 -0.00000000000E+00 -0.00000000000E+00 -0.35883061434E+02  0.35883061434E+02  0.00000000000E+00 0. -1.
         25    2    1    2    0    0  0.67298322250E+02  0.45009670597E+02  0.20087658582E+03  0.25003559096E+03  0.12494582583E+03 0.  0.
          2    1    1    2  501    0 -0.73029305655E+02  0.93453105450E+02  0.61042204794E+03  0.62183746993E+03  0.00000000000E+00 0. -1.
          1    1    1    2  502    0  0.57309834054E+01 -0.13846277605E+03  0.85239676470E+03  0.86358846043E+03  0.00000000000E+00 0. -1.
         22    1    3    3    0    0 -0.22666179353E+02 -0.19187936216E+02  0.13791129514E+02  0.32743363236E+02  0.00000000000E+00 0.  1.
         22    1    3    3    0    0  0.89964501603E+02  0.64197606813E+02  0.18708545631E+03  0.21729222773E+03  0.00000000000E+00 0.  1.
</event>
<event>
 7    1  0.5736319E-006  0.8481133E+02  0.7818608E-02  0.1349775E+00
          2   -1    0    0  502    0  0.00000000000E+00  0.00000000000E+00  0.16548622458E+04  0.16548622458E+04  0.00000000000E+00 0. -1.
          1   -1    0    0  501    0 -0.00000000000E+00 -0.00000000000E+00 -0.13100316526E+03  0.13100316526E+03  0.00000000000E+00 0. -1.
         25    2    1    2    0    0  0.10275296167E+03 -0.80200964430E+02 -0.40328303296E+02  0.18506305042E+03  0.12502637625E+03 0.  0.
          2    1    1    2  501    0 -0.62782485402E+02  0.58069008234E+01  0.40852838742E+02  0.75128656342E+02  0.00000000000E+00 0. -1.
          1    1    1    2  502    0 -0.39970476269E+02  0.74394063606E+02  0.15233345451E+04  0.15256737042E+04  0.00000000000E+00 0. -1.
         22    1    3    3    0    0  0.24872892058E+02  0.12304862229E+02  0.33408671856E+02  0.43430516333E+02  0.00000000000E+00 0.  1.
         22    1    3    3    0    0  0.77880069613E+02 -0.92505826658E+02 -0.73736975152E+02  0.14163253409E+03  0.00000000000E+00 0.  1.
</event>
<event>
 7    1  0.5736319E-006  0.7668740E+02  0.7818608E-02  0.1451587E+00
          2   -1    0    0  502    0  0.00000000000E+00  0.00000000000E+00  0.15160502185E+03  0.15160502185E+03  0.00000000000E+00 0. -1.
          1   -1    0    0  501    0 -0.00000000000E+00 -0.00000000000E+00 -0.98328221852E+03  0.98328221852E+03  0.00000000000E+00 0. -1.
         25    2    1    2    0    0 -0.83804783765E+02  0.36157524058E+02 -0.60793885866E+02  0.16628780980E+03  0.12500052321E+03 0.  0.
          2    1    1    2  501    0  0.87048120845E+01 -0.29888996432E+02 -0.85505458315E+03  0.85562109957E+03  0.00000000000E+00 0. -1.
          1    1    1    2  502    0  0.75099971681E+02 -0.62685276259E+01  0.84171272353E+02  0.11297833100E+03  0.00000000000E+00 0. -1.
         22    1    3    3    0    0 -0.99358142891E+02  0.52016273634E+02 -0.79317898543E+02  0.13736470548E+03  0.00000000000E+00 0. -1.
         22    1    3    3    0    0  0.15553359126E+02 -0.15858749576E+02  0.18524012677E+02  0.28923104327E+02  0.00000000000E+00 0. -1.
</event>
<event>
 7    1  0.5736319E-006  0.1836165E+03  0.7818608E-02  0.1166293E+00
          2   -1    0    0  502    0  0.00000000000E+00  0.00000000000E+00  0.16957583189E+04  0.16957583189E+04  0.00000000000E+00 0. -1.
          1   -1    0    0  501    0 -0.00000000000E+00 -0.00000000000E+00 -0.11116623356E+03  0.11116623356E+03  0.00000000000E+00 0. -1.
         25    2    1    2    0    0 -0.40043651851E+02 -0.93819266342E+02  0.48736761314E+03  0.51337891476E+03  0.12500068394E+03 0.  0.
          2    1    1    2  501    0 -0.12868107546E+03  0.16625542138E+03  0.32056204631E+02  0.21266707449E+03  0.00000000000E+00 0. -1.
          1    1    1    2  502    0  0.16872472731E+03 -0.72436155034E+02  0.10651682676E+04  0.10808785632E+04  0.00000000000E+00 0. -1.
         22    1    3    3    0    0  0.11214029516E+02 -0.34291516437E+02  0.37235812490E+03  0.37410190555E+03  0.00000000000E+00 0.  1.
         22    1    3    3    0    0 -0.51257681366E+02 -0.59527749905E+02  0.11500948825E+03  0.13927700921E+03  0.00000000000E+00 0.  1.
</event>
<event>
 7    1  0.5736319E-006  0.1741072E+03  0.7818608E-02  0.1311535E+00
          2   -1    0    0  502    0  0.00000000000E+00  0.00000000000E+00  0.13263935399E+04  0.13263935399E+04  0.00000000000E+00 0. -1.
          1   -1    0    0  501    0 -0.00000000000E+00 -0.00000000000E+00 -0.22008961174E+04  0.22008961174E+04  0.00000000000E+00 0. -1.
         25    2    1    2    0    0 -0.57235757442E+01  0.21367267181E+03 -0.23012594635E+03  0.33804699224E+03  0.12501619008E+03 0.  0.
          2    1    1    2  501    0  0.14163622154E+02 -0.40582329783E+02 -0.19106664092E+04  0.19111498269E+04  0.00000000000E+00 0. -1.
          1    1    1    2  502    0 -0.84400464097E+01 -0.17309034203E+03  0.12662897781E+04  0.12780928382E+04  0.00000000000E+00 0. -1.
         22    1    3    3    0    0 -0.16666240291E+02  0.83042231713E+02 -0.14835774687E+02  0.85987650415E+02  0.00000000000E+00 0.  1.
         22    1    3    3    0    0  0.10942664547E+02  0.13063044010E+03 -0.21529017166E+03  0.25205934182E+03  0.00000000000E+00 0.  1.
</event>
<event>
 7    1  0.5736319E-006  0.7801700E+02  0.7818608E-02  0.1425404E+00
          2   -1    0    0  502    0  0.00000000000E+00  0.00000000000E+00  0.24326688937E+04  0.24326688937E+04  0.00000000000E+00 0. -1.
          1   -1    0    0  501    0 -0.00000000000E+00 -0.00000000000E+00 -0.75785638455E+02  0.75785638455E+02  0.00000000000E+00 0. -1.
         25    2    1    2    0    0  0.31572086910E+01 -0.42499838714E+02  0.78256822750E+03  0.79363352368E+03  0.12499973985E+03 0.  0.
          2    1    1    2  501    0  0.47113783701E+01  0.78888415007E+02 -0.47746301250E+02  0.92332488277E+02  0.00000000000E+00 0. -1.
          1    1    1    2  502    0 -0.78685870611E+01 -0.36388576293E+02  0.16220613290E+04  0.16224885202E+04  0.00000000000E+00 0. -1.
         22    1    3    3    0    0  0.43967802473E+02  0.18584717473E+02  0.47594205003E+03  0.47832979666E+03  0.00000000000E+00 0. -1.
         22    1    3    3    0    0 -0.40810593782E+02 -0.61084556187E+02  0.30662617746E+03  0.31530372702E+03  0.00000000000E+00 0. -1.
</event>
<event>
 7    1  0.5736319E-006  0.8384388E+02  0.7818608E-02  0.1462801E+00
          2   -1    0    0  502    0  0.00000000000E+00  0.00000000000E+00  0.99963676017E+03  0.99963676017E+03  0.00000000000E+00 0. -1.
          1   -1    0    0  501    0 -0.00000000000E+00 -0.00000000000E+00 -0.28985487239E+02  0.28985487239E+02  0.00000000000E+00 0. -1.
         25    2    1    2    0    0 -0.83681128644E+02  0.16833799583E+02  0.44912999977E+03  0.47395246629E+03  0.12500910170E+03 0.  0.
          2    1    1    2  501    0  0.10054792334E+02  0.24234651842E+02 -0.14202535433E+00  0.26238090060E+02  0.00000000000E+00 0. -1.
          1    1    1    2  502    0  0.73626336310E+02 -0.41068451425E+02  0.52166329852E+03  0.52843169106E+03  0.00000000000E+00 0. -1.
         22    1    3    3    0    0 -0.49235811169E+02 -0.41860910401E+02  0.10606693744E+03  0.12420425169E+03  0.00000000000E+00 0.  1.
         22    1    3    3    0    0 -0.34445317475E+02  0.58694709984E+02  0.34306306233E+03  0.34974821460E+03  0.00000000000E+00 0.  1.
</event>
<event>
 7    1  0.5736319E-006  0.3510003E+02  0.7818608E-02  0.1586972E+00
          2   -1    0    0  502    0  0.00000000000E+00  0.00000000000E+00  0.53491824932E+02  0.53491824932E+02  0.00000000000E+00 0. -1.
          1   -1    0    0  501    0 -0.00000000000E+00 -0.00000000000E+00 -0.70159675993E+03  0.70159675993E+03  0.00000000000E+00 0. -1.
         25    2    1    2    0    0  0.20951182856E+02 -0.48815325979E+02 -0.35855885696E+03  0.38342141049E+03  0.12500254399E+03 0.  0.
          2    1    1    2  501    0  0.22035599556E+01  0.34105167354E+02 -0.32502665273E+03  0.32681851708E+03  0.00000000000E+00 0. -1.
          1    1    1    2  502    0 -0.23154742812E+02  0.14710158625E+02  0.35480574690E+02  0.44848657302E+02  0.00000000000E+00 0. -1.
         22    1    3    3    0    0  0.51249694823E+02  0.14580838216E+02 -0.79876533096E+02  0.96017668176E+02  0.00000000000E+00 0.  1.
         22    1    3    3    0    0 -0.30298511966E+02 -0.63396164195E+02 -0.27868232386E+03  0.28740374231E+03  0.00000000000E+00 0.  1.
</event>
<event>
 7    1  0.5736319E-006  0.8676473E+02  0.7818608E-02  0.1485445E+00
          2   -1    0    0  502    0  0.00000000000E+00  0.00000000000E+00  0.90983876717E+02  0.90983876717E+02  0.00000000000E+00 0. -1.
          1   -1    0    0  501    0 -0.00000000000E+00 -0.00000000000E+00 -0.31591357274E+03  0.31591357274E+03  0.00000000000E+00 0. -1.
         25    2    1    2    0    0 -0.57428962724E+02 -0.71136302802E+02 -0.89652662311E+02  0.17894299871E+03  0.12499815036E+03 0.  0.
          2    1    1    2  501    0  0.20576375250E+02 -0.64987867246E+01 -0.14022374602E+03  0.14187431197E+03  0.00000000000E+00 0. -1.
          1    1    1    2  502    0  0.36852587475E+02  0.77635089526E+02  0.49467123089E+01  0.86080138778E+02  0.00000000000E+00 0. -1.
         22    1    3    3    0    0 -0.33635071391E+02 -0.10365323843E+03 -0.85353567449E+02  0.13842161443E+03  0.00000000000E+00 0. -1.
         22    1    3    3    0    0 -0.23793891333E+02  0.32516935632E+02 -0.42990948620E+01  0.40521384284E+02  0.00000000000E+00 0. -1.
</event>
<event>
 7    1  0.5736319E-006  0.2347739E+03  0.7818608E-02  0.1277363E+00
          2   -1    0    0  502    0  0.00000000000E+00  0.00000000000E+00  0.18595788618E+04  0.18595788618E+04  0.00000000000E+00 0. -1.
          1   -1    0    0  501    0 -0.00000000000E+00 -0.00000000000E+00 -0.16543117665E+04  0.16543117665E+04  0.00000000000E+00 0. -1.
         25    2    1    2    0    0  0.18566251602E+03 -0.18598972861E+03 -0.66092107972E+03  0.72215256199E+03  0.12499960069E+03 0.  0.
          2    1    1    2  501    0 -0.14504928264E+03  0.16958290889E+03 -0.94957651183E+03  0.97544513387E+03  0.00000000000E+00 0. -1.
          1    1    1    2  502    0 -0.40613233379E+02  0.16406819714E+02  0.18157646868E+04  0.18162929324E+04  0.00000000000E+00 0. -1.
         22    1    3    3    0    0  0.14122473012E+03 -0.59563949893E+02 -0.40956453616E+03  0.43730469676E+03  0.00000000000E+00 0.  1.
         22    1    3    3    0    0  0.44437785893E+02 -0.12642577871E+03 -0.25135654356E+03  0.28484786524E+03  0.00000000000E+00 0.  1.
</event>
<event>
 7    1  0.5736319E-006  0.9808800E+02  0.7818608E-02  0.1389292E+00
          2   -1    0    0  502    0  0.00000000000E+00  0.00000000000E+00  0.11732682291E+04  0.11732682291E+04  0.00000000000E+00 0. -1.
          1   -1    0    0  501    0 -0.00000000000E+00 -0.00000000000E+00 -0.51005203118E+02  0.51005203118E+02  0.00000000000E+00 0. -1.
         25    2    1    2    0    0  0.21979661595E+02 -0.59345702061E+02  0.53711827872E+03  0.55509241833E+03  0.12500611854E+03 0.  0.
          2    1    1    2  501    0 -0.28292137567E+02  0.98129825337E+02  0.21749586619E+02  0.10441720254E+03  0.00000000000E+00 0. -1.
          1    1    1    2  502    0  0.63124759727E+01 -0.38784123276E+02  0.56339516065E+03  0.56476381135E+03  0.00000000000E+00 0. -1.
         22    1    3    3    0    0 -0.16328985627E+02 -0.89704069113E+02  0.34217639117E+03  0.35411599577E+03  0.00000000000E+00 0.  1.
         22    1    3    3    0    0  0.38308647221E+02  0.30358367052E+02  0.19494188755E+03  0.20097642256E+03  0.00000000000E+00 0.  1.
</event>
<event>
 7    1  0.5736319E-006  0.1633404E+03  0.7818608E-02  0.1302985E+00
          2   -1    0    0  502    0  0.00000000000E+00  0.00000000000E+00  0.25443654688E+04  0.25443654688E+04  0.00000000000E+00 0. -1.
          1   -1    0    0  501    0 -0.00000000000E+00 -0.00000000000E+00 -0.58114081294E+02  0.58114081294E+02  0.00000000000E+00 0. -1.
         25    2    1    2    0    0 -0.23179871775E+02 -0.18467058381E+03  0.89944594469E+03  0.92696744839E+03  0.12500044785E+03 0.  0.
          2    1    1    2  501    0  0.41104399653E+02  0.27632489851E+02 -0.25341484665E+02  0.55635573254E+02  0.00000000000E+00 0. -1.
          1    1    1    2  502    0 -0.17924527878E+02  0.15703809396E+03  0.16121469275E+04  0.16198765285E+04  0.00000000000E+00 0. -1.
         22    1    3    3    0    0 -0.59726797417E+02 -0.16034278496E+03  0.80257667996E+03  0.82061344507E+03  0.00000000000E+00 0. -1.
         22    1    3    3    0    0  0.36546925643E+02 -0.24327798851E+02  0.96869264731E+02  0.10635400331E+03  0.00000000000E+00 0. -1.
</event>
<event>
 7    1  0.5736319E-006  0.7716014E+02  0.7818608E-02  0.1424447E+00
          2   -1    0    0  502    0  0.00000000000E+00  0.00000000000E+00  0.83150884439E+03  0.83150884439E+03  0.00000000000E+00 0. -1.
          1   -1    0    0  501    0 -0.00000000000E+00 -0.00000000000E+00 -0.92997798985E+03  0.92997798985E+03  0.00000000000E+00 0. -1.
         25    2    1    2    0    0  0.26630261765E+02  0.91333108603E+02 -0.16750878727E+03  0.22966447803E+03  0.12504267707E+03 0.  0.
          2    1    1    2  501    0 -0.34943727806E+02 -0.14724085652E+02 -0.72904283921E+03  0.73002830371E+03  0.00000000000E+00 0. -1.
          1    1    1    2  502    0  0.83134660413E+01 -0.76609022952E+02  0.79808248101E+03  0.80179405250E+03  0.00000000000E+00 0. -1.
         22    1    3    3    0    0  0.49191815480E+02  0.11209595289E+03 -0.15241804447E+03  0.19549065871E+03  0.00000000000E+00 0.  1.
         22    1    3    3    0    0 -0.22561553715E+02 -0.20762844284E+02 -0.15090742796E+02  0.34173819320E+02  0.00000000000E+00 0.  1.
</event>
<event>
 7    1  0.5736319E-006  0.6449947E+02  0.7818608E-02  0.1530975E+00
          2   -1    0    0  502    0  0.00000000000E+00  0.00000000000E+00  0.25934641631E+04  0.25934641631E+04  0.00000000000E+00 0. -1.
          1   -1    0    0  501    0 -0.00000000000E+00 -0.00000000000E+00 -0.18615163895E+03  0.18615163895E+03  0.00000000000E+00 0. -1.
         25    2    1    2    0    0 -0.66681970980E+02  0.55218052997E+01  0.20083968320E+04  0.20133946090E+04  0.12499216407E+03 0.  0.
          2    1    1    2  501    0  0.76953044094E+01  0.19863411984E+02 -0.18125745337E+03  0.18250489651E+03  0.00000000000E+00 0. -1.
          1    1    1    2  502    0  0.58986666571E+02 -0.25385217284E+02  0.58017314551E+03  0.58371629656E+03  0.00000000000E+00 0. -1.
         22    1    3    3    0    0 -0.10232558235E+03  0.15243796425E+02  0.15941978007E+04  0.15975511028E+04  0.00000000000E+00 0.  1.
         22    1    3    3    0    0  0.35643611367E+02 -0.97219911251E+01  0.41419903123E+03  0.41584350616E+03  0.00000000000E+00 0.  1.
</event>
<event>
 7    1  0.5736319E-006  0.1278000E+03  0.7818608E-02  0.1248471E+00
          2   -1    0    0  502    0  0.00000000000E+00  0.00000000000E+00  0.82031619117E+03  0.82031619117E+03  0.00000000000E+00 0. -1.
          1   -1    0    0  501    0 -0.00000000000E+00 -0.00000000000E+00 -0.68393620028E+02  0.68393620028E+02  0.00000000000E+00 0. -1.
         25    2    1    2    0    0 -0.71512877392E+01  0.62595516435E+02  0.34085676296E+03  0.36847997100E+03  0.12499926630E+03 0.  0.
          2    1    1    2  501    0  0.96806755777E+02 -0.12053338612E+03  0.83489609457E+02  0.17569963011E+03  0.00000000000E+00 0. -1.
          1    1    1    2  502    0 -0.89655468038E+02  0.57937869688E+02  0.32757619872E+03  0.34453021008E+03  0.00000000000E+00 0. -1.
         22    1    3    3    0    0  0.47213158792E+02 -0.79094472701E+01  0.15813940202E+03  0.16522624546E+03  0.00000000000E+00 0.  1.
         22    1    3    3    0    0 -0.54364446531E+02  0.70504963705E+02  0.18271736095E+03  0.20325372554E+03  0.00000000000E+00 0.  1.
</event>
<event>
 7    1  0.5736319E-006  0.1908865E+03  0.7818608E-02  0.1239713E+00
          2   -1    0    0  502    0  0.00000000000E+00  0.00000000000E+00  0.26077171234E+04  0.26077171234E+04  0.00000000000E+00 0. -1.
          1   -1    0    0  501    0 -0.00000000000E+00 -0.00000000000E+00 -0.11239308465E+04  0.11239308465E+04  0.00000000000E+00 0. -1.
         25    2    1    2    0    0 -0.41122206605E+02  0.14984641665E+03  0.40352947892E+02  0.20346504026E+03  0.12499871096E+03 0.  0.
          2    1    1    2  501    0 -0.78041680665E+02  0.20446686284E+01 -0.10371572059E+04  0.10400912240E+04  0.00000000000E+00 0. -1.
          1    1    1    2  502    0  0.11916388727E+03 -0.15189108528E+03  0.24805905349E+04  0.24880917056E+04  0.00000000000E+00 0. -1.
         22    1    3    3    0    0 -0.70949908778E+02  0.98483873121E+02  0.66688485718E+02  0.13849302130E+03  0.00000000000E+00 0.  1.
         22    1    3    3    0    0  0.29827702173E+02  0.51362543533E+02 -0.26335537826E+02  0.64972018959E+02  0.00000000000E+00 0.  1.
</event>
<event>
 7    1  0.5736319E-006  0.4556211E+03  0.7818608E-02  0.1234875E+00
          2   -1    0    0  502    0  0.00000000000E+00  0.00000000000E+00  0.19878803546E+04  0.19878803546E+04  0.00000000000E+00 0. -1.
          1   -1    0    0  501    0 -0.00000000000E+00 -0.00000000000E+00 -0.46468134040E+03  0.46468134040E+03  0.00000000000E+00 0. -1.
         25    2    1    2    0    0  0.42648376303E+03  0.99619908924E+02  0.51881231088E+03  0.69036843461E+03  0.12501933932E+03 0.  0.
          2    1    1    2  501    0  0.29892950379E+02 -0.16946348654E+02 -0.33913330003E+03  0.34086971471E+03  0.00000000000E+00 0. -1.
          1    1    1    2  502    0 -0.45637671341E+03 -0.82673560270E+02  0.13435200033E+04  0.14213235456E+04  0.00000000000E+00 0. -1.
         22    1    3    3    0    0  0.35629668996E+03  0.45441952286E+02  0.46145926979E+03  0.58477086108E+03  0.00000000000E+00 0.  1.
         22    1    3    3    0    0  0.70187073071E+02  0.54177956638E+02  0.57353041097E+02  0.10559757353E+03  0.00000000000E+00 0.  1.
</event>
<event>
 7    1  0.5736319E-006  0.7602201E+02  0.7818608E-02  0.1413446E+00
          2   -1    0    0  502    0  0.00000000000E+00  0.00000000000E+00  0.81346640716E+03  0.81346640716E+03  0.00000000000E+00 0. -1.
          1   -1    0    0  501    0 -0.00000000000E+00 -0.00000000000E+00 -0.10701884080E+04  0.10701884080E+04  0.00000000000E+00 0. -1.
         25    2    1    2    0    0  0.63298818851E+02  0.46231191256E+01  0.32037302394E+03  0.34970204296E+03  0.12499812271E+03 0.  0.
          2    1    1    2  501    0  0.87927863194E+01 -0.40956961777E+02 -0.10516983627E+04  0.10525322949E+04  0.00000000000E+00 0. -1.
          1    1    1    2  502    0 -0.72091605171E+02  0.36333842651E+02  0.47460333786E+03  0.48142047731E+03  0.00000000000E+00 0. -1.
         22    1    3    3    0    0  0.68089247606E+01  0.42896467938E+02  0.33572267900E+02  0.54895952400E+02  0.00000000000E+00 0.  1.
         22    1    3    3    0    0  0.56489894091E+02 -0.38273348812E+02  0.28680075604E+03  0.29480609056E+03  0.00000000000E+00 0.  1.
</event>
<event>
 7    1  0.5736319E-006  0.4487627E+02  0.7818608E-02  0.1531817E+00
          2   -1    0    0  502    0  0.00000000000E+00  0.00000000000E+00  0.23375833341E+04  0.23375833341E+04  0.00000000000E+00 0. -1.
          1   -1    0    0  501    0 -0.00000000000E+00 -0.00000000000E+00 -0.20248532898E+03  0.20248532898E+03  0.00000000000E+00 0. -1.
         25    2    1    2    0    0  0.15446445264E+02 -0.14275506493E+02  0.17904753526E+04  0.17949562851E+04  0.12499477669E+03 0.  0.
          2    1    1    2  501    0 -0.89328346272E+01  0.44018183421E+02 -0.19729347777E+03  0.20234157353E+03  0.00000000000E+00 0. -1.
          1    1    1    2  502    0 -0.65136106366E+01 -0.29742676928E+02  0.54191613027E+03  0.54277080448E+03  0.00000000000E+00 0. -1.
         22    1    3    3    0    0 -0.43277934201E+02 -0.42557997599E+02  0.96897528408E+03  0.97087448412E+03  0.00000000000E+00 0. -1.
         22    1    3    3    0    0  0.58724379464E+02  0.28282491106E+02  0.82150006854E+03  0.82408180095E+03  0.00000000000E+00 0. -1.
</event>
<event>
 7    1  0.5736319E-006  0.1535759E+03  0.7818608E-02  0.1280190E+00
          2   -1    0    0  502    0  0.00000000000E+00  0.00000000000E+00  0.34008702512E+04  0.34008702512E+04  0.00000000000E+00 0. -1.
          1   -1    0    0  501    0 -0.00000000000E+00 -0.00000000000E+00 -0.55469928469E+03  0.55469928469E+03  0.00000000000E+00 0. -1.
         25    2    1    2    0    0  0.86959031286E+02  0.43775369233E+02  0.38849930088E+03  0.41956611090E+03  0.12500343418E+03 0.  0.
          2    1    1    2  501    0 -0.15141742500E+03 -0.34102200959E+02 -0.52763264355E+03  0.54998763918E+03  0.00000000000E+00 0. -1.
          1    1    1    2  502    0  0.64458393715E+02 -0.96731682736E+01  0.29853043092E+04  0.29860157858E+04  0.00000000000E+00 0. -1.
         22    1    3    3    0    0  0.10211225164E+03  0.58441528163E+02  0.21759750765E+03  0.24736814565E+03  0.00000000000E+00 0. -1.
         22    1    3    3    0    0 -0.15153220351E+02 -0.14666158930E+02  0.17090179324E+03  0.17219796525E+03  0.00000000000E+00 0. -1.
</event>
<event>
 7    1  0.5736319E-006  0.1747153E+03  0.7818608E-02  0.1250248E+00
          2   -1    0    0  502    0  0.00000000000E+00  0.00000000000E+00  0.17252577685E+04  0.17252577685E+04  0.00000000000E+00 0. -1.
          1   -1    0    0  501    0 -0.00000000000E+00 -0.00000000000E+00 -0.17578405254E+03  0.17578405254E+03  0.00000000000E+00 0. -1.
         25    2    1    2    0    0  0.12693827136E+03 -0.21160750237E+03  0.78036654046E+03  0.82794211591E+03  0.12500060014E+03 0.  0.
          2    1    1    2  501    0 -0.92770038926E+02  0.14292989550E+03 -0.10201891230E+03  0.19860285400E+03  0.00000000000E+00 0. -1.
          1    1    1    2  502    0 -0.34168232431E+02  0.68677606869E+02  0.87112608782E+03  0.87449685115E+03  0.00000000000E+00 0. -1.
         22    1    3    3    0    0  0.96832544077E+01  0.12655624434E+02  0.11456675197E+03  0.11566966285E+03  0.00000000000E+00 0. -1.
         22    1    3    3    0    0  0.11725501695E+03 -0.22426312680E+03  0.66579978849E+03  0.71227245306E+03  0.00000000000E+00 0. -1.
</event>
<event>
 7    1  0.5736319E-006  0.1019066E+03  0.7818608E-02  0.1289340E+00
          2   -1    0    0  502    0  0.00000000000E+00  0.00000000000E+00  0.47195768620E+03  0.47195768620E+03  0.00000000000E+00 0. -1.
          1   -1    0    0  501    0 -0.00000000000E+00 -0.00000000000E+00 -0.77468454679E+03  0.77468454679E+03  0.00000000000E+00 0. -1.
         25    2    1    2    0    0 -0.37269257020E+02 -0.70311061269E+02  0.31053722072E+03  0.34407982289E+03  0.12499966487E+03 0.  0.
          2    1    1    2  501    0 -0.49917970313E+02 -0.75004717013E+02 -0.70440508523E+03  0.71014367238E+03  0.00000000000E+00 0. -1.
          1    1    1    2  502    0  0.87187227333E+02  0.14531577828E+03  0.91141003920E+02  0.19241873771E+03  0.00000000000E+00 0. -1.
         22    1    3    3    0    0 -0.60205889901E+02 -0.72191691614E+02  0.30665727656E+03  0.32074144538E+03  0.00000000000E+00 0.  1.
         22    1    3    3    0    0  0.22936632881E+02  0.18806303450E+01  0.38799441590E+01  0.23338377517E+02  0.00000000000E+00 0.  1.
</event>
<event>
 7    1  0.5736319E-006  0.4118101E+02  0.7818608E-02  0.1538711E+00
          2   -1    0    0  502    0  0.00000000000E+00  0.00000000000E+00  0.24359887611E+03  0.24359887611E+03  0.00000000000E+00 0. -1.
          1   -1    0    0  501    0 -0.00000000000E+00 -0.00000000000E+00 -0.13052217636E+03  0.13052217636E+03  0.00000000000E+00 0. -1.
         25    2    1    2    0    0 -0.76763120332E+01 -0.33521243909E+02  0.81909831608E+01  0.12990312560E+03  0.12500052110E+03 0.  0.
          2    1    1    2  501    0  0.31703255000E+02 -0.84590175194E+00 -0.63344541335E+02  0.70840262876E+02  0.00000000000E+00 0. -1.
          1    1    1    2  502    0 -0.24026942967E+02  0.34367145661E+02  0.16823025793E+03  0.17337766400E+03  0.00000000000E+00 0. -1.
         22    1    3    3    0    0  0.91725951750E+01 -0.59585311644E+02 -0.40166958991E+02  0.72442601145E+02  0.00000000000E+00 0. -1.
         22    1    3    3    0    0 -0.16848907208E+02  0.26064067735E+02  0.48357942152E+02  0.57460524451E+02  0.00000000000E+00 0. -1.
</event>
<event>
 7    1  0.5736319E-006  0.1297420E+03  0.7818608E-02  0.1228944E+00
          2   -1    0    0  502    0  0.00000000000E+00  0.00000000000E+00  0.14205902888E+04  0.14205902888E+04  0.00000000000E+00 0. -1.
          1   -1    0    0  501    0 -0.00000000000E+00 -0.00000000000E+00 -0.41195470663E+03  0.41195470663E+03  0.00000000000E+00 0. -1.
         25    2    1    2    0    0 -0.11609540984E+03  0.36362603340E+02  0.10490094269E+03  0.20354493562E+03  0.12500379967E+03 0.  0.
          2    1    1    2  501    0  0.27113273782E+02 -0.13078274741E+03 -0.34686341700E+03  0.37169004115E+03  0.00000000000E+00 0. -1.
          1    1    1    2  502    0  0.88982136058E+02  0.94420144072E+02  0.12505980565E+04  0.12573100186E+04  0.00000000000E+00 0. -1.
         22    1    3    3    0    0  0.19914615833E+01  0.43271738878E+01  0.78155831930E+02  0.78300858346E+02  0.00000000000E+00 0. -1.
         22    1    3    3    0    0 -0.11808687142E+03  0.32035429452E+02  0.26745110761E+02  0.12524407727E+03  0.00000000000E+00 0. -1.
</event>
<event>
 7    1  0.5736319E-006  0.6225269E+02  0.7818608E-02  0.1471251E+00
          2   -1    0    0  502    0  0.00000000000E+00  0.00000000000E+00  0.98640742576E+03  0.98640742576E+03  0.00000000000E+00 0. -1.
          1   -1    0    0  501    0 -0.00000000000E+00 -0.00000000000E+00 -0.16926790835E+03  0.16926790835E+03  0.00000000000E+00 0. -1.
         25    2    1    2    0    0 -0.42483255968E+02 -0.35487764852E+02 -0.97329899609E+02  0.16781729656E+03  0.12500130869E+03 0.  0.
          2    1    1    2  501    0  0.70446882771E+02  0.17491815548E+02 -0.19806117123E+00  0.72586266824E+02  0.00000000000E+00 0. -1.
          1    1    1    2  502    0 -0.27963626802E+02  0.17995949304E+02  0.91466747819E+03  0.91527177072E+03  0.00000000000E+00 0. -1.
         22    1    3    3    0    0 -0.45497033472E+02 -0.79785361933E+02 -0.71973068772E+02  0.11668678872E+03  0.00000000000E+00 0.  1.
         22    1    3    3    0    0  0.30137775033E+01  0.44297597081E+02 -0.25356830837E+02  0.51130507841E+02  0.00000000000E+00 0.  1.
</event>
<event>
 7    1  0.5736319E-006  0.7755163E+02  0.7818608E-02  0.1401960E+00
          2   -1    0    0  502    0  0.00000000000E+00  0.00000000000E+00  0.20043645842E+04  0.20043645842E+04  0.00000000000E+00 0. -1.
          1   -1    0    0  501    0 -0.00000000000E+00 -0.00000000000E+00 -0.42344051981E+03  0.42344051981E+03  0.00000000000E+00 0. -1.
         25    2    1    2    0    0  0.90959793829E+02 -0.81461642058E+02  0.43163275342E+03  0.46566863719E+03  0.12502304834E+03 0.  0.
          2    1    1    2  501    0 -0.57993634812E+02  0.50937602251E+02 -0.40242966714E+03  0.40976522302E+03  0.00000000000E+00 0. -1.
          1    1    1    2  502    0 -0.32966159018E+02  0.30524039807E+02  0.15517209781E+04  0.15523712438E+04  0.00000000000E+00 0. -1.
         22    1    3    3    0    0  0.11910609493E+03 -0.44821252114E+02  0.29011358621E+03  0.31679819980E+03  0.00000000000E+00 0.  1.
         22    1    3    3    0    0 -0.28146301105E+02 -0.36640389944E+02  0.14151916721E+03  0.14887043739E+03  0.00000000000E+00 0.  1.
</event>
<event>
 7    1  0.5736319E-006  0.1658209E+03  0.7818608E-02  0.1290801E+00
          2   -1    0    0  502    0  0.00000000000E+00  0.00000000000E+00  0.10066900867E+04  0.10066900867E+04  0.00000000000E+00 0. -1.
          1   -1    0    0  501    0 -0.00000000000E+00 -0.00000000000E+00 -0.11969272616E+03  0.11969272616E+03  0.00000000000E+00 0. -1.
         25    2    1    2    0    0 -0.13775815361E+03  0.16816932800E+02  0.43202245474E+03  0.47066726013E+03  0.12499660092E+03 0.  0.
          2    1    1    2  501    0  0.15701656855E+03 -0.67926161154E+02 -0.24777366390E+02  0.17286435160E+03  0.00000000000E+00 0. -1.
          1    1    1    2  502    0 -0.19258414942E+02  0.51109228355E+02  0.47975227213E+03  0.48285120108E+03  0.00000000000E+00 0. -1.
         22    1    3    3    0    0 -0.14741963752E+03  0.45853428461E+02  0.38211360257E+03  0.41212363643E+03  0.00000000000E+00 0. -1.
         22    1    3    3    0    0  0.96614839120E+01 -0.29036495662E+02  0.49908852168E+02  0.58543623704E+02  0.00000000000E+00 0. -1.
</event>
<event>
 7    1  0.5736319E-006  0.2382940E+03  0.7818608E-02  0.1292803E+00
          2   -1    0    0  502    0  0.00000000000E+00  0.00000000000E+00  0.81945700490E+03  0.81945700490E+03  0.00000000000E+00 0. -1.
          1   -1    0    0  501    0 -0.00000000000E+00 -0.00000000000E+00 -0.14385066360E+04  0.14385066360E+04  0.00000000000E+00 0. -1.
         25    2    1    2    0    0 -0.62067646038E+02  0.26495917455E+03  0.66139530440E+03  0.72603456095E+03  0.12500671239E+03 0.  0.
          2    1    1    2  501    0  0.67440672518E+02 -0.22804571291E+03 -0.13931036053E+04  0.14132553720E+04  0.00000000000E+00 0. -1.
          1    1    1    2  502    0 -0.53730264806E+01 -0.36913461645E+02  0.11265866981E+03  0.11867370790E+03  0.00000000000E+00 0. -1.
         22    1    3    3    0    0  0.67356945551E+01  0.16872395835E+03  0.48576841227E+03  0.51428017078E+03  0.00000000000E+00 0. -1.
         22    1    3    3    0    0 -0.68803340593E+02  0.96235216205E+02  0.17562689214E+03  0.21175439017E+03  0.00000000000E+00 0. -1.
</event>
<event>
 7    1  0.5736319E-006  0.9427984E+02  0.7818608E-02  0.1462293E+00
          2   -1    0    0  502    0  0.00000000000E+00  0.00000000000E+00  0.18827677094E+04  0.18827677094E+04  0.00000000000E+00 0. -1.
          1   -1    0    0  501    0 -0.00000000000E+00 -0.00000000000E+00 -0.16268596321E+04  0.16268596321E+04  0.00000000000E+00 0. -1.
         25    2    1    2    0    0  0.68132625424E+02  0.80495080845E+02  0.44698095314E+03  0.47596116905E+03  0.12500219713E+03 0.  0.
          2    1    1    2  501    0  0.52159788389E+01 -0.22831128588E+02 -0.16107531126E+04  0.16109233552E+04  0.00000000000E+00 0. -1.
          1    1    1    2  502    0 -0.73348604263E+02 -0.57663952257E+02  0.14196802368E+04  0.14227428172E+04  0.00000000000E+00 0. -1.
         22    1    3    3    0    0  0.66600550675E+02  0.99397269640E+02  0.43963279641E+03  0.45562314059E+03  0.00000000000E+00 0. -1.
         22    1    3    3    0    0  0.15320747492E+01 -0.18902188795E+02  0.73481567294E+01  0.20338028459E+02  0.00000000000E+00 0. -1.
</event>
<event>
 7    1  0.6871100E-006  0.5666152E+02  0.7818608E-02  0.1462845E+00
          2   -1    0    0  502    0  0.00000000000E+00  0.00000000000E+00  0.21600376236E+04  0.21600376236E+04  0.00000000000E+00 0. -1.
          1   -1    0    0  501    0 -0.00000000000E+00 -0.00000000000E+00 -0.77169199566E+03  0.77169199566E+03  0.00000000000E+00 0. -1.
         25    2    1    2    0    0  0.28296029705E+02  0.20784842803E+02 -0.12496706453E+03  0.18020774238E+03  0.12500155283E+03 0.  0.
          2    1    1    2  501    0 -0.57977303266E+02  0.42237123577E+01 -0.61756292735E+03  0.62029281527E+03  0.00000000000E+00 0. -1.
          1    1    1    2  502    0  0.29681273561E+02 -0.25008555161E+02  0.21308756199E+04  0.21312290616E+04  0.00000000000E+00 0. -1.
         22    1    3    3    0    0 -0.49556670665E+02  0.28620126158E+01 -0.41907052550E+02  0.64963495727E+02  0.00000000000E+00 0. -1.
         22    1    3    3    0    0  0.77852700370E+02  0.17922830188E+02 -0.83060011980E+02  0.11524424665E+03  0.00000000000E+00 0. -1.
</event>
<event>
 7    1  0.5736319E-006  0.4819887E+02  0.7818608E-02  0.1480592E+00
          2   -1    0    0  502    0  0.00000000000E+00  0.00000000000E+00  0.90301428055E+03  0.90301428055E+03  0.00000000000E+00 0. -1.
          1   -1    0    0  501    0 -0.00000000000E+00 -0.00000000000E+00 -0.46447615708E+03  0.46447615708E+03  0.00000000000E+00 0. -1.
         25    2    1    2    0    0 -0.62671871399E+02 -0.50271495586E+02  0.10484983319E+03  0.18185965507E+03  0.12499783954E+03 0.  0.
          2    1    1    2  501    0  0.17053643817E+02  0.36395282757E+02 -0.42427232430E+03  0.42617185329E+03  0.00000000000E+00 0. -1.
          1    1    1    2  502    0  0.45618227582E+02  0.13876212829E+02  0.75796061459E+03  0.75945892926E+03  0.00000000000E+00 0. -1.
         22    1    3    3    0    0 -0.57496827582E+02 -0.86527567811E+02  0.10123750658E+03  0.14505839483E+03  0.00000000000E+00 0.  1.
         22    1    3    3    0    0 -0.51750438173E+01  0.36256072224E+02  0.36123266085E+01  0.36801260239E+02  0.00000000000E+00 0.  1.
</event>
<event>
 7    1  0.5736319E-006  0.1306266E+03  0.7818608E-02  0.1368397E+00
          2   -1    0    0  502    0  0.00000000000E+00  0.00000000000E+00  0.64555322172E+03  0.64555322172E+03  0.00000000000E+00 0. -1.
          1   -1    0    0  501    0 -0.00000000000E+00 -0.00000000000E+00 -0.15947178732E+04  0.15947178732E+04  0.00000000000E+00 0. -1.
         25    2    1    2    0    0  0.86886578377E+02 -0.12604648234E+03 -0.30579985109E+03  0.36410837144E+03  0.12499745600E+03 0.  0.
          2    1    1    2  501    0 -0.34309184856E+02  0.69134966628E+01 -0.12526391487E+04  0.12531279876E+04  0.00000000000E+00 0. -1.
          1    1    1    2  502    0 -0.52577393521E+02  0.11913298568E+03  0.60927434829E+03  0.62303473584E+03  0.00000000000E+00 0. -1.
         22    1    3    3    0    0  0.75354456610E+02 -0.70519520460E+02 -0.28598042910E+03  0.30403306189E+03  0.00000000000E+00 0. -1.
         22    1    3    3    0    0  0.11532121767E+02 -0.55526961883E+02 -0.19819421996E+02  0.60075309543E+02  0.00000000000E+00 0. -1.
</event>
<event>
 7    1  0.5736319E-006  0.4960642E+02  0.7818608E-02  0.1473178E+00
          2   -1    0    0  502    0  0.00000000000E+00  0.00000000000E+00  0.41639411589E+03  0.41639411589E+03  0.00000000000E+00 0. -1.
          1   -1    0    0  501    0 -0.00000000000E+00 -0.00000000000E+00 -0.94291644312E+03  0.94291644312E+03  0.00000000000E+00 0. -1.
         25    2    1    2    0    0  0.62252652122E+02 -0.18775714654E+02  0.18253365198E+03  0.23058921335E+03  0.12499972421E+03 0.  0.
          2    1    1    2  501    0 -0.16702229335E+02  0.37620103001E+02 -0.91552475446E+03  0.91644956906E+03  0.00000000000E+00 0. -1.
          1    1    1    2  502    0 -0.45550422787E+02 -0.18844388347E+02  0.20646877525E+03  0.21227177660E+03  0.00000000000E+00 0. -1.
         22    1    3    3    0    0  0.27136060618E+02 -0.62728043444E+02  0.44565749429E+02  0.81592151843E+02  0.00000000000E+00 0. -1.
         22    1    3    3    0    0  0.35116591504E+02  0.43952328791E+02  0.13796790255E+03  0.14899706151E+03  0.00000000000E+00 0. -1.
</event>
<event>
 7    1  0.5736319E-006  0.1265576E+03  0.7818608E-02  0.1401638E+00
          2   -1    0    0  502    0  0.00000000000E+00  0.00000000000E+00  0.34036035888E+03  0.34036035888E+03  0.00000000000E+00 0. -1.
          1   -1    0    0  501    0 -0.00000000000E+00 -0.00000000000E+00 -0.13277547027E+04  0.13277547027E+04  0.00000000000E+00 0. -1.
         25    2    1    2    0    0  0.14213151875E+03  0.53621914525E+02  0.15142555612E+03  0.24825708937E+03  0.12500082014E+03 0.  0.
          2    1    1    2  501    0 -0.12094311444E+03 -0.35934161967E+02 -0.12748388155E+04  0.12810669407E+04  0.00000000000E+00 0. -1.
          1    1    1    2  502    0 -0.21188404311E+02 -0.17687752558E+02  0.13601891553E+03  0.13879103159E+03  0.00000000000E+00 0. -1.
         22    1    3    3    0    0  0.29364335833E+02 -0.23286551985E+02 -0.80618029355E+01  0.38334323899E+02  0.00000000000E+00 0.  1.
         22    1    3    3    0    0  0.11276718292E+03  0.76908466510E+02  0.15948735905E+03  0.20992276547E+03  0.00000000000E+00 0.  1.
</event>
<event>
 7    1  0.5736319E-006  0.6087747E+02  0.7818608E-02  0.1451590E+00
          2   -1    0    0  502    0  0.00000000000E+00  0.00000000000E+00  0.11113082785E+04  0.11113082785E+04  0.00000000000E+00 0. -1.
          1   -1    0    0  501    0 -0.00000000000E+00 -0.00000000000E+00 -0.20913348998E+04  0.20913348998E+04  0.00000000000E+00 0. -1.
         25    2    1    2    0    0  0.31895772752E+02  0.27326970726E+01  0.48333236558E+03  0.50025915273E+03  0.12499694526E+03 0.  0.
          2    1    1    2  501    0  0.33177240177E+02 -0.20906043209E+02 -0.20808441370E+04  0.20812136157E+04  0.00000000000E+00 0. -1.
          1    1    1    2  502    0 -0.65073012928E+02  0.18173346137E+02  0.61748515007E+03  0.62117040986E+03  0.00000000000E+00 0. -1.
         22    1    3    3    0    0  0.38939519403E+02 -0.11259213704E+02  0.48288974966E+03  0.48458803781E+03  0.00000000000E+00 0.  1.
         22    1    3    3    0    0 -0.70437466512E+01  0.13991910777E+02  0.44261592043E+00  0.15671114923E+02  0.00000000000E+00 0.  1.
</event>
<event>
 7    1  0.5736319E-006  0.1727566E+03  0.7818608E-02  0.1259953E+00
          2   -1    0    0  502    0  0.00000000000E+00  0.00000000000E+00  0.36263002410E+03  0.36263002410E+03  0.00000000000E+00 0. -1.
          1   -1    0    0  501    0 -0.00000000000E+00 -0.00000000000E+00 -0.22950777487E+04  0.22950777487E+04  0.00000000000E+00 0. -1.
         25    2    1    2    0    0 -0.14170916565E+03  0.27036787898E+01 -0.52297121300E+02  0.19608650446E+03  0.12500452322E+03 0.  0.
          2    1    1    2  501    0  0.16240424302E+03  0.64655049076E+02 -0.21630379644E+04  0.21700895486E+04  0.00000000000E+00 0. -1.
          1    1    1    2  502    0 -0.20695077370E+02 -0.67358727866E+02  0.28288736119E+03  0.29153171966E+03  0.00000000000E+00 0. -1.
         22    1    3    3    0    0 -0.93484347044E+02 -0.57672344624E+02 -0.44161739439E+02  0.11838784442E+03  0.00000000000E+00 0. -1.
         22    1    3    3    0    0 -0.48224818609E+02  0.60376023414E+02 -0.81353818620E+01  0.77698660034E+02  0.00000000000E+00 0. -1.
</event>
<event>
 7    1  0.5736319E-006  0.4703463E+02  0.7818608E-02  0.1547879E+00
          2   -1    0    0  502    0  0.00000000000E+00  0.00000000000E+00  0.70732568262E+03  0.70732568262E+03  0.00000000000E+00 0. -1.
          1   -1    0    0  501    0 -0.00000000000E+00 -0.00000000000E+00 -0.60258474833E+03  0.60258474833E+03  0.00000000000E+00 0. -1.
         25    2    1    2    0    0 -0.40971563204E+01  0.23364965383E+02 -0.34098153383E+02  0.13170655053E+03  0.12498489145E+03 0.  0.
          2    1    1    2  501    0 -0.69905011320E+01 -0.47065627130E+02 -0.51833235123E+03  0.52051173540E+03  0.00000000000E+00 0. -1.
          1    1    1    2  502    0  0.11087657452E+02  0.23700661747E+02  0.65717143890E+03  0.65769214502E+03  0.00000000000E+00 0. -1.
         22    1    3    3    0    0 -0.45627235522E+01 -0.51803914599E+02 -0.12295680375E+02  0.53438261292E+02  0.00000000000E+00 0.  1.
         22    1    3    3    0    0  0.46556723187E+00  0.75168879982E+02 -0.21802473008E+02  0.78268289235E+02  0.00000000000E+00 0.  1.
</event>
<event>
 7    1  0.5736319E-006  0.9465851E+02  0.7818608E-02  0.1481285E+00
          2   -1    0    0  502    0  0.00000000000E+00  0.00000000000E+00  0.27480933784E+04  0.27480933784E+04  0.00000000000E+00 0. -1.
          1   -1    0    0  501    0 -0.00000000000E+00 -0.00000000000E+00 -0.58767809761E+03  0.58767809761E+03  0.00000000000E+00 0. -1.
         25    2    1    2    0    0  0.95904975086E+02 -0.62283714216E+02 -0.16191022813E+03  0.23434361211E+03  0.12499992506E+03 0.  0.
          2    1    1    2  501    0 -0.14267535628E+02  0.14532843805E+02 -0.38845975302E+03  0.38899324652E+03  0.00000000000E+00 0. -1.
          1    1    1    2  502    0 -0.81637439459E+02  0.47750870411E+02  0.27107852620E+04  0.27124346174E+04  0.00000000000E+00 0. -1.
         22    1    3    3    0    0  0.18486848174E+02 -0.18887785168E+02 -0.14060984642E+03  0.14307215276E+03  0.00000000000E+00 0.  1.
         22    1    3    3    0    0  0.77418126913E+02 -0.43395929048E+02 -0.21300381707E+02  0.91271459359E+02  0.00000000000E+00 0.  1.
</event>
<event>
 7    1  0.5736319E-006  0.5751393E+02  0.7818608E-02  0.1462892E+00
          2   -1    0    0  502    0  0.00000000000E+00  0.00000000000E+00  0.72843907456E+03  0.72843907456E+03  0.00000000000E+00 0. -1.
          1   -1    0    0  501    0 -0.00000000000E+00 -0.00000000000E+00 -0.20523057038E+03  0.20523057038E+03  0.00000000000E+00 0. -1.
         25    2    1    2    0    0 -0.76650439541E+02  0.11752721715E+02  0.60625895273E+01  0.14722287731E+03  0.12499761703E+03 0.  0.
          2    1    1    2  501    0  0.45408097508E+02 -0.33775280384E+02 -0.12811350064E+03  0.14005618134E+03  0.00000000000E+00 0. -1.
          1    1    1    2  502    0  0.31242342034E+02  0.22022558669E+02  0.64525941529E+03  0.64639058629E+03  0.00000000000E+00 0. -1.
         22    1    3    3    0    0 -0.96621697901E+02 -0.14827028744E+02 -0.25877260232E+02  0.10111985900E+03  0.00000000000E+00 0. -1.
         22    1    3    3    0    0  0.19971258360E+02  0.26579750460E+02  0.31939849759E+02  0.46103018313E+02  0.00000000000E+00 0. -1.
</event>
<event>
 7    1  0.5736319E-006  0.8001557E+02  0.7818608E-02  0.1414683E+00
          2   -1    0    0  502    0  0.00000000000E+00  0.00000000000E+00  0.75715636973E+03  0.75715636973E+03  0.00000000000E+00 0. -1.
          1   -1    0    0  501    0 -0.00000000000E+00 -0.00000000000E+00 -0.22805093091E+04  0.22805093091E+04  0.00000000000E+00 0. -1.
         25    2    1    2    0    0 -0.25157259001E+02  0.34501008198E+02 -0.94392390354E+02  0.16235316635E+03  0.12500168007E+03 0.  0.
          2    1    1    2  501    0  0.36037973610E+02 -0.72388724128E+02 -0.21508390296E+04  0.21523585654E+04  0.00000000000E+00 0. -1.
          1    1    1    2  502    0 -0.10880714609E+02  0.37887715930E+02  0.72187848053E+03  0.72295394710E+03  0.00000000000E+00 0. -1.
         22    1    3    3    0    0  0.51020336159E+02  0.93457203157E+01 -0.36848979605E+02  0.63625973376E+02  0.00000000000E+00 0.  1.
         22    1    3    3    0    0 -0.76177595161E+02  0.25155287882E+02 -0.57543410749E+02  0.98727192979E+02  0.00000000000E+00 0.  1.
</event>
<event>
 7    1  0.5736319E-006  0.1996283E+03  0.7818608E-02  0.1226302E+00
          2   -1    0    0  502    0  0.00000000000E+00  0.00000000000E+00  0.41865722230E+03  0.41865722230E+03  0.00000000000E+00 0. -1.
          1   -1    0    0  501    0 -0.00000000000E+00 -0.00000000000E+00 -0.47006737176E+03  0.47006737176E+03  0.00000000000E+00 0. -1.
         25    2    1    2    0    0 -0.11800161282E+03  0.32209254122E+02 -0.27066649189E+03  0.32225406212E+03  0.12500205615E+03 0.  0.
          2    1    1    2  501    0 -0.85474049072E+02  0.58919905153E+01 -0.13281329477E+03  0.15805030808E+03  0.00000000000E+00 0. -1.
          1    1    1    2  502    0  0.20347566189E+03 -0.38101244637E+02  0.35206963720E+03  0.40842022386E+03  0.00000000000E+00 0. -1.
         22    1    3    3    0    0 -0.12884042500E+02  0.31119319390E+02 -0.19849146598E+01  0.33739449857E+02  0.00000000000E+00 0. -1.
         22    1    3    3    0    0 -0.10511757032E+03  0.10899347315E+01 -0.26868157723E+03  0.28851461226E+03  0.00000000000E+00 0. -1.
</event>
<event>
 7    1  0.5736319E-006  0.1183949E+03  0.7818608E-02  0.1302692E+00
          2   -1    0    0  502    0  0.00000000000E+00  0.00000000000E+00  0.17953148024E+04  0.17953148024E+04  0.00000000000E+00 0. -1.
          1   -1    0    0  501    0 -0.00000000000E+00 -0.00000000000E+00 -0.75030436061E+03  0.75030436061E+03  0.00000000000E+00 0. -1.
         25    2    1    2    0    0 -0.15049720273E+03 -0.97687026773E+02 -0.13579523800E+03  0.25740513580E+03  0.12499957617E+03 0.  0.
          2    1    1    2  501    0  0.87227714338E+02  0.71393483968E+02 -0.54728158500E+03  0.55876903725E+03  0.00000000000E+00 0. -1.
          1    1    1    2  502    0  0.63269488392E+02  0.26293542805E+02  0.17280872648E+04  0.17294449899E+04  0.00000000000E+00 0. -1.
         22    1    3    3    0    0 -0.13745926431E+03 -0.99292292509E+02 -0.15789241757E+03  0.23169813168E+03  0.00000000000E+00 0. -1.
         22    1    3    3    0    0 -0.13037938418E+02  0.16052657358E+01  0.22097179565E+02  0.25707004124E+02  0.00000000000E+00 0. -1.
</event>
<event>
 7    1  0.5736319E-006  0.2145590E+03  0.7818608E-02  0.1293126E+00
          2   -1    0    0  502    0  0.00000000000E+00  0.00000000000E+00  0.67853285762E+03  0.67853285762E+03  0.00000000000E+00 0. -1.
          1   -1    0    0  501    0 -0.00000000000E+00 -0.00000000000E+00 -0.35863694032E+03  0.35863694032E+03  0.00000000000E+00 0. -1.
         25    2    1    2    0    0  0.22199085291E+03  0.10377979999E+03 -0.31690430570E+02  0.27691210146E+03  0.12500337148E+03 0.  0.
          2    1    1    2  501    0 -0.23043798530E+02 -0.34278919686E+02 -0.18196623003E+03  0.18659520320E+03  0.00000000000E+00 0. -1.
          1    1    1    2  502    0 -0.19894705438E+03 -0.69500880308E+02  0.53355257791E+03  0.57366249328E+03  0.00000000000E+00 0. -1.
         22    1    3    3    0    0  0.17677684512E+03  0.12895406841E+03 -0.54299611527E+01  0.21888053638E+03  0.00000000000E+00 0.  1.
         22    1    3    3    0    0  0.45214007794E+02 -0.25174268416E+02 -0.26260469417E+02  0.58031565075E+02  0.00000000000E+00 0.  1.
</event>
<event>
 7    1  0.5736319E-006  0.5710615E+02  0.7818608E-02  0.1428381E+00
          2   -1    0    0  502    0  0.00000000000E+00  0.00000000000E+00  0.10025611400E+04  0.10025611400E+04  0.00000000000E+00 0. -1.
          1   -1    0    0  501    0 -0.00000000000E+00 -0.00000000000E+00 -0.30700137901E+03  0.30700137901E+03  0.00000000000E+00 0. -1.
         25    2    1    2    0    0  0.17357653299E+02  0.26736017716E+02 -0.22489334609E+03  0.25926562368E+03  0.12500217491E+03 0.  0.
          2    1    1    2  501    0 -0.74034613074E+02 -0.33724192109E+02 -0.38248100039E+02  0.89896397164E+02  0.00000000000E+00 0. -1.
          1    1    1    2  502    0  0.56676959775E+02  0.69881743929E+01  0.95870120713E+03  0.96040049818E+03  0.00000000000E+00 0. -1.
         22    1    3    3    0    0  0.62677656029E+02  0.15527687679E+02 -0.19087292961E+03  0.20149956057E+03  0.00000000000E+00 0.  1.
         22    1    3    3    0    0 -0.45320002730E+02  0.11208330037E+02 -0.34020416480E+02  0.57766063109E+02  0.00000000000E+00 0.  1.
</event>
<event>
 7    1  0.5736319E-006  0.5040214E+02  0.7818608E-02  0.1552024E+00
          2   -1    0    0  502    0  0.00000000000E+00  0.00000000000E+00  0.18568259252E+04  0.18568259252E+04  0.00000000000E+00 0. -1.
          1   -1    0    0  501    0 -0.00000000000E+00 -0.00000000000E+00 -0.30353121220E+02  0.30353121220E+02  0.00000000000E+00 0. -1.
         25    2    1    2    0    0  0.13407644537E+02  0.53420018019E+02  0.36535570894E+03  0.39005532397E+03  0.12499959379E+03 0.  0.
          2    1    1    2  501    0 -0.23436087406E+02 -0.40068220265E+01 -0.95282539397E+01  0.25614301451E+02  0.00000000000E+00 0. -1.
          1    1    1    2  502    0  0.10028442869E+02 -0.49413195993E+02  0.14706453490E+04  0.14715094210E+04  0.00000000000E+00 0. -1.
         22    1    3    3    0    0 -0.64356157747E+01 -0.31563774600E+02  0.20477032202E+03  0.20728862438E+03  0.00000000000E+00 0.  1.
         22    1    3    3    0    0  0.19843260312E+02  0.84983792619E+02  0.16058538692E+03  0.18276669960E+03  0.00000000000E+00 0.  1.
</event>
<event>
 7    1  0.5736319E-006  0.1631985E+03  0.7818608E-02  0.1335149E+00
          2   -1    0    0  502    0  0.00000000000E+00  0.00000000000E+00  0.21510021497E+03  0.21510021497E+03  0.00000000000E+00 0. -1.
          1   -1    0    0  501    0 -0.00000000000E+00 -0.00000000000E+00 -0.60629355523E+03  0.60629355523E+03  0.00000000000E+00 0. -1.
         25    2    1    2    0    0  0.73552055588E+02  0.11937984502E+03 -0.15592401397E+03  0.24412734651E+03  0.12499764359E+03 0.  0.
          2    1    1    2  501    0 -0.90380837825E+01  0.36058980412E+02 -0.36368099913E+03  0.36557599231E+03  0.00000000000E+00 0. -1.
          1    1    1    2  502    0 -0.64513971806E+02 -0.15543882543E+03  0.12841167285E+03  0.21169043137E+03  0.00000000000E+00 0. -1.
         22    1    3    3    0    0 -0.21844489466E+02  0.73607921360E+02 -0.94577843989E+02  0.12182067304E+03  0.00000000000E+00 0.  1.
         22    1    3    3    0    0  0.95396545055E+02  0.45771923661E+02 -0.61346169984E+02  0.12230667347E+03  0.00000000000E+00 0.  1.
</event>
<event>
 7    1  0.8831690E-006  0.6066977E+02  0.7818608E-02  0.1437157E+00
          2   -1    0    0  502    0  0.00000000000E+00  0.00000000000E+00  0.98362459237E+03  0.98362459237E+03  0.00000000000E+00 0. -1.
          1   -1    0    0  501    0 -0.00000000000E+00 -0.00000000000E+00 -0.11593951808E+04  0.11593951808E+04  0.00000000000E+00 0. -1.
         25    2    1    2    0    0  0.26537909092E+02 -0.91864027418E+02 -0.36789861354E+03  0.40014795959E+03  0.12500295824E+03 0.  0.
          2    1    1    2  501    0  0.18752361591E+01  0.58529397376E+02 -0.77376921568E+03  0.77598196242E+03  0.00000000000E+00 0. -1.
          1    1    1    2  502    0 -0.28413145251E+02  0.33334630043E+02  0.96589724082E+03  0.96688985113E+03  0.00000000000E+00 0. -1.
         22    1    3    3    0    0  0.16710626077E+02 -0.10695818543E+03 -0.36641874958E+03  0.38207590672E+03  0.00000000000E+00 0.  1.
         22    1    3    3    0    0  0.98272830146E+01  0.15094158013E+02 -0.14798639614E+01  0.18072052870E+02  0.00000000000E+00 0.  1.
</event>
<event>
 7    1  0.5736319E-006  0.7243354E+02  0.7818608E-02  0.1419101E+00
          2   -1    0    0  502    0  0.00000000000E+00  0.00000000000E+00  0.32051921267E+04  0.32051921267E+04  0.00000000000E+00 0. -1.
          1   -1    0    0  501    0 -0.00000000000E+00 -0.00000000000E+00 -0.73575328549E+02  0.73575328549E+02  0.00000000000E+00 0. -1.
         25    2    1    2    0    0 -0.25718999800E+02  0.54751266881E+02  0.23448073340E+03  0.27251729952E+03  0.12500118410E+03 0.  0.
          2    1    1    2  501    0 -0.11869354396E+02 -0.73677639847E+02 -0.28814321177E+02  0.79997133024E+02  0.00000000000E+00 0. -1.
          1    1    1    2  502    0  0.37588354196E+02  0.18926372966E+02  0.29259503860E+04  0.29262530227E+04  0.00000000000E+00 0. -1.
         22    1    3    3    0    0 -0.23984882501E+02 -0.37766543933E+02  0.58016325195E+02  0.73263090423E+02  0.00000000000E+00 0.  1.
         22    1    3    3    0    0 -0.17341172983E+01  0.92517810814E+02  0.17646440820E+03  0.19925420910E+03  0.00000000000E+00 0.  1.
</event>
<event>
 7    1  0.5736319E-006  0.2965766E+02  0.7818608E-02  0.1608448E+00
          2   -1    0    0  502    0  0.00000000000E+00  0.00000000000E+00  0.18225807248E+03  0.18225807248E+03  0.00000000000E+00 0. -1.
          1   -1    0    0  501    0 -0.00000000000E+00 -0.00000000000E+00 -0.13136813626E+04  0.13136813626E+04  0.00000000000E+00 0. -1.
         25    2    1    2    0    0 -0.34501555176E+02 -0.15627232891E+02 -0.39732961268E+03  0.41824699949E+03  0.12500065501E+03 0.  0.
          2    1    1    2  501    0  0.73358000882E+01  0.27560531026E+02 -0.90438546687E+03  0.90483505101E+03  0.00000000000E+00 0. -1.
          1    1    1    2  502    0  0.27165755088E+02 -0.11933298135E+02  0.17029178944E+03  0.17285738458E+03  0.00000000000E+00 0. -1.
         22    1    3    3    0    0 -0.30053131794E+02 -0.32857827916E+02 -0.38178093112E+02  0.58654875157E+02  0.00000000000E+00 0. -1.
         22    1    3    3    0    0 -0.44484233818E+01  0.17230595025E+02 -0.35915151956E+03  0.35959212433E+03  0.00000000000E+00 0. -1.
</event>
<event>
 7    1  0.5736319E-006  0.2053590E+02  0.7818608E-02  0.1739418E+00
          2   -1    0    0  502    0  0.00000000000E+00  0.00000000000E+00  0.12873087988E+04  0.12873087988E+04  0.00000000000E+00 0. -1.
          1   -1    0    0  501    0 -0.00000000000E+00 -0.00000000000E+00 -0.56718875810E+02  0.56718875810E+02  0.00000000000E+00 0. -1.
         25    2    1    2    0    0 -0.14038758369E+02 -0.11434417412E+01  0.30044070421E+03  0.32571109939E+03  0.12499883727E+03 0.  0.
          2    1    1    2  501    0  0.63130748109E+01  0.19664502489E+02 -0.41555415062E+02  0.46404742136E+02  0.00000000000E+00 0. -1.
          1    1    1    2  502    0  0.77256835578E+01 -0.18521060748E+02  0.97170463380E+03  0.97191183305E+03  0.00000000000E+00 0. -1.
         22    1    3    3    0    0 -0.27695361128E+02  0.73393227078E+01  0.41100011656E+01  0.28944616001E+02  0.00000000000E+00 0.  1.
         22    1    3    3    0    0  0.13656602760E+02 -0.84827644490E+01  0.29633070305E+03  0.29676648339E+03  0.00000000000E+00 0.  1.
</event>
<event>
 7    1  0.5736319E-006  0.1690095E+03  0.7818608E-02  0.1271533E+00
          2   -1    0    0  502    0  0.00000000000E+00  0.00000000000E+00  0.19694558885E+04  0.19694558885E+04  0.00000000000E+00 0. -1.
          1   -1    0    0  501    0 -0.00000000000E+00 -0.00000000000E+00 -0.49434096712E+03  0.49434096712E+03  0.00000000000E+00 0. -1.
         25    2    1    2    0    0  0.27708328267E+02  0.22482536979E+03  0.20310528213E+03  0.32892462377E+03  0.12500181654E+03 0.  0.
          2    1    1    2  501    0 -0.37789553275E+02 -0.16127115263E+03 -0.41489672230E+03  0.44673899000E+03  0.00000000000E+00 0. -1.
          1    1    1    2  502    0  0.10081225008E+02 -0.63554217162E+02  0.16869063615E+04  0.16881332418E+04  0.00000000000E+00 0. -1.
         22    1    3    3    0    0  0.35227043211E+02  0.22549919963E+03  0.21583386104E+03  0.31412591294E+03  0.00000000000E+00 0. -1.
         22    1    3    3    0    0 -0.75187149439E+01 -0.67382984411E+00 -0.12728578913E+02  0.14798710829E+02  0.00000000000E+00 0. -1.
</event>
<event>
 7    1  0.5736319E-006  0.1967997E+03  0.7818608E-02  0.1310065E+00
          2   -1    0    0  502    0  0.00000000000E+00  0.00000000000E+00  0.18976465042E+04  0.18976465042E+04  0.00000000000E+00 0. -1.
          1   -1    0    0  501    0 -0.00000000000E+00 -0.00000000000E+00 -0.12114197726E+04  0.12114197726E+04  0.00000000000E+00 0. -1.
         25    2    1    2    0    0  0.62790363023E+02 -0.17611748870E+03  0.33266569007E+03  0.40156073630E+03  0.12499825627E+03 0.  0.
          2    1    1    2  501    0 -0.29157054448E+02  0.19492924774E+03 -0.11684750634E+04  0.11849816535E+04  0.00000000000E+00 0. -1.
          1    1    1    2  502    0 -0.33633308575E+02 -0.18811759044E+02  0.15220361049E+04  0.15225238870E+04  0.00000000000E+00 0. -1.
         22    1    3    3    0    0  0.39935902050E+02 -0.19196475964E+03  0.30290518886E+03  0.36082807354E+03  0.00000000000E+00 0.  1.
         22    1    3    3    0    0  0.22854460973E+02  0.15847270943E+02  0.29760501211E+02  0.40732662754E+02  0.00000000000E+00 0.  1.
</event>
<event>
 7    1  0.8565305E-006  0.1147032E+03  0.7818608E-02  0.1423050E+00
          2   -1    0    0  502    0  0.00000000000E+00  0.00000000000E+00  0.25970246870E+04  0.25970246870E+04  0.00000000000E+00 0. -1.
          1   -1    0    0  501    0 -0.00000000000E+00 -0.00000000000E+00 -0.18304259767E+04  0.18304259767E+04  0.00000000000E+00 0. -1.
         25    2    1    2    0    0  0.92436028279E+02  0.11705742511E+01 -0.78111451308E+03  0.79643595977E+03  0.12499826358E+03 0.  0.
          2    1    1    2  501    0  0.21206571547E+02  0.14662420628E+02 -0.10402198389E+04  0.10405392921E+04  0.00000000000E+00 0. -1.
          1    1    1    2  502    0 -0.11364259983E+03 -0.15832994879E+02  0.25879330623E+04  0.25904754118E+04  0.00000000000E+00 0. -1.
         22    1    3    3    0    0 -0.24106241852E+01 -0.47243400261E+02 -0.29738673985E+03  0.30112559342E+03  0.00000000000E+00 0. -1.
         22    1    3    3    0    0  0.94846652465E+02  0.48413974512E+02 -0.48372777323E+03  0.49531036634E+03  0.00000000000E+00 0. -1.
</event>
<event>
 7    1  0.5736319E-006  0.8073660E+02  0.7818608E-02  0.1400411E+00
          2   -1    0    0  502    0  0.00000000000E+00  0.00000000000E+00  0.12203860379E+04  0.12203860379E+04  0.00000000000E+00 0. -1.
          1   -1    0    0  501    0 -0.00000000000E+00 -0.00000000000E+00 -0.35622667018E+03  0.35622667018E+03  0.00000000000E+00 0. -1.
         25    2    1    2    0    0  0.13023354855E+02  0.35773901055E+02 -0.14865989177E+03  0.19792590477E+03  0.12500208234E+03 0.  0.
          2    1    1    2  501    0  0.39519289009E+01  0.43507752607E+02 -0.17892832092E+03  0.18418438127E+03  0.00000000000E+00 0. -1.
          1    1    1    2  502    0 -0.16975283756E+02 -0.79281653662E+02  0.11917475804E+04  0.11945024221E+04  0.00000000000E+00 0. -1.
         22    1    3    3    0    0 -0.48266427942E+02 -0.15457371250E+02 -0.61657205108E+02  0.79813465869E+02  0.00000000000E+00 0. -1.
         22    1    3    3    0    0  0.61289782796E+02  0.51231272305E+02 -0.87002686660E+02  0.11811243890E+03  0.00000000000E+00 0. -1.
</event>
<event>
 7    1  0.5736319E-006  0.8157410E+02  0.7818608E-02  0.1371372E+00
          2   -1    0    0  502    0  0.00000000000E+00  0.00000000000E+00  0.42657150114E+03  0.42657150114E+03  0.00000000000E+00 0. -1.
          1   -1    0    0  501    0 -0.00000000000E+00 -0.00000000000E+00 -0.19290379689E+03  0.19290379689E+03  0.00000000000E+00 0. -1.
         25    2    1    2    0    0 -0.55622041620E+01 -0.13490472458E+02  0.23422418994E+03  0.26589241150E+03  0.12499948951E+03 0.  0.
          2    1    1    2  501    0  0.53287710710E+02 -0.61763691226E+02 -0.15506841217E+03  0.17521571311E+03  0.00000000000E+00 0. -1.
          1    1    1    2  502    0 -0.47725506548E+02  0.75254163683E+02  0.15451192649E+03  0.17836717342E+03  0.00000000000E+00 0. -1.
         22    1    3    3    0    0  0.36473131749E+02  0.42356457446E+02  0.10023397773E+03  0.11476588830E+03  0.00000000000E+00 0. -1.
         22    1    3    3    0    0 -0.42035335911E+02 -0.55846929904E+02  0.13399021221E+03  0.15112652320E+03  0.00000000000E+00 0. -1.
</event>
<event>
 7    1  0.5736319E-006  0.8047121E+02  0.7818608E-02  0.1402033E+00
          2   -1    0    0  502    0  0.00000000000E+00  0.00000000000E+00  0.11922393672E+04  0.11922393672E+04  0.00000000000E+00 0. -1.
          1   -1    0    0  501    0 -0.00000000000E+00 -0.00000000000E+00 -0.62906868594E+03  0.62906868594E+03  0.00000000000E+00 0. -1.
         25    2    1    2    0    0 -0.83476310516E+02 -0.89168755804E+02  0.14833976082E+03  0.22923640519E+03  0.12500113358E+03 0.  0.
          2    1    1    2  501    0  0.29406582147E+02  0.31745483978E+02 -0.58627183545E+03  0.58786664123E+03  0.00000000000E+00 0. -1.
          1    1    1    2  502    0  0.54069728369E+02  0.57423271826E+02  0.10011027559E+04  0.10042050068E+04  0.00000000000E+00 0. -1.
         22    1    3    3    0    0 -0.60562022311E+02 -0.11463642576E+03  0.78808958129E+02  0.15172382983E+03  0.00000000000E+00 0.  1.
         22    1    3    3    0    0 -0.22914288206E+02  0.25467669953E+02  0.69530802690E+02  0.77512575364E+02  0.00000000000E+00 0.  1.
</event>
<event>
 7    1  0.5736319E-006  0.1103310E+03  0.7818608E-02  0.1287906E+00
          2   -1    0    0  502    0  0.00000000000E+00  0.00000000000E+00  0.73476826937E+03  0.73476826937E+03  0.00000000000E+00 0. -1.
          1   -1    0    0  501    0 -0.00000000000E+00 -0.00000000000E+00 -0.17001280704E+04  0.17001280704E+04  0.00000000000E+00 0. -1.
         25    2    1    2    0    0 -0.82698608463E+02 -0.15509504632E+03 -0.64426198733E+03  0.67940520392E+03  0.12499755823E+03 0.  0.
          2    1    1    2  501    0  0.18655154067E+02  0.10020853122E+03 -0.10332982948E+04  0.10383135993E+04  0.00000000000E+00 0. -1.
          1    1    1    2  502    0  0.64043454396E+02  0.54886515099E+02  0.71220048111E+03  0.71717753652E+03  0.00000000000E+00 0. -1.
         22    1    3    3    0    0 -0.58482169945E+02 -0.78187863109E+02 -0.53374262109E+03  0.54259993707E+03  0.00000000000E+00 0.  1.
         22    1    3    3    0    0 -0.24216438518E+02 -0.76907183213E+02 -0.11051936623E+03  0.13680526685E+03  0.00000000000E+00 0.  1.
</event>
<event>
 7    1  0.5736319E-006  0.1167441E+03  0.7818608E-02  0.1371200E+00
          2   -1    0    0  502    0  0.00000000000E+00  0.00000000000E+00  0.90275842858E+03  0.90275842858E+03  0.00000000000E+00 0. -1.
          1   -1    0    0  501    0 -0.00000000000E+00 -0.00000000000E+00 -0.71697787056E+03  0.71697787056E+03  0.00000000000E+00 0. -1.
         25    2    1    2    0    0  0.11208516949E+03  0.97706803532E+02  0.24741281198E+03  0.31456089649E+03  0.12500301353E+03 0.  0.
          2    1    1    2  501    0 -0.21763956117E+02 -0.31469376019E+02 -0.67781572733E+03  0.67889480160E+03  0.00000000000E+00 0. -1.
          1    1    1    2  502    0 -0.90321213372E+02 -0.66237427513E+02  0.61618347337E+03  0.62628060105E+03  0.00000000000E+00 0. -1.
         22    1    3    3    0    0  0.71704782025E+02  0.11332886642E+03  0.23316257418E+03  0.26897916969E+03  0.00000000000E+00 0. -1.
         22    1    3    3    0    0  0.40380387465E+02 -0.15622062883E+02  0.14250237798E+02  0.45581726797E+02  0.00000000000E+00 0. -1.
</event>
<event>
 7    1  0.5736319E-006  0.2376227E+03  0.7818608E-02  0.1238335E+00
          2   -1    0    0  502    0  0.00000000000E+00  0.00000000000E+00  0.36385742046E+04  0.36385742046E+04  0.00000000000E+00 0. -1.
          1   -1    0    0  501    0 -0.00000000000E+00 -0.00000000000E+00 -0.69075005292E+03  0.69075005292E+03  0.00000000000E+00 0. -1.
         25    2    1    2    0    0 -0.92270290884E+02  0.25814060924E+03  0.34655586661E+01  0.30131156217E+03  0.12500506663E+03 0.  0.
          2    1    1    2  501    0  0.35428029393E+02 -0.22961345868E+03 -0.51661615341E+03  0.56645364827E+03  0.00000000000E+00 0. -1.
          1    1    1    2  502    0  0.56842261491E+02 -0.28527150561E+02  0.34609747465E+04  0.34615590471E+04  0.00000000000E+00 0. -1.
         22    1    3    3    0    0 -0.10960344195E+02  0.20240386651E+03  0.35858362617E+01  0.20273212016E+03  0.00000000000E+00 0. -1.
         22    1    3    3    0    0 -0.81309946689E+02  0.55736742726E+02 -0.12027759558E+00  0.98579442010E+02  0.00000000000E+00 0. -1.
</event>
<event>
 7    1  0.5736319E-006  0.7882491E+02  0.7818608E-02  0.1385666E+00
          2   -1    0    0  502    0  0.00000000000E+00  0.00000000000E+00  0.28676132897E+04  0.28676132897E+04  0.00000000000E+00 0. -1.
          1   -1    0    0  501    0 -0.00000000000E+00 -0.00000000000E+00 -0.18408815418E+03  0.18408815418E+03  0.00000000000E+00 0. -1.
         25    2    1    2    0    0 -0.29712703077E+02 -0.19660510187E+02  0.54734284462E+03  0.56256435686E+03  0.12500034268E+03 0.  0.
          2    1    1    2  501    0 -0.22894200740E+02 -0.44841968990E+02 -0.17212093680E+03  0.17933366526E+03  0.00000000000E+00 0. -1.
          1    1    1    2  502    0  0.52606903817E+02  0.64502479177E+02  0.23083032277E+04  0.23098034217E+04  0.00000000000E+00 0. -1.
         22    1    3    3    0    0 -0.25269658918E+02  0.52170710001E+02  0.25129404610E+03  0.25789345910E+03  0.00000000000E+00 0.  1.
         22    1    3    3    0    0 -0.44430441584E+01 -0.71831220188E+02  0.29604879852E+03  0.30467089776E+03  0.00000000000E+00 0.  1.
</event>
<event>
 7    1  0.5736319E-006  0.5197528E+02  0.7818608E-02  0.1448153E+00
          2   -1    0    0  502    0  0.00000000000E+00  0.00000000000E+00  0.46085946582E+03  0.46085946582E+03  0.00000000000E+00 0. -1.
          1   -1    0    0  501    0 -0.00000000000E+00 -0.00000000000E+00 -0.41294065156E+03  0.41294065156E+03  0.00000000000E+00 0. -1.
         25    2    1    2    0    0 -0.10092872274E+02  0.17164738761E+02  0.27698551546E+02  0.12956840338E+03  0.12499706824E+03 0.  0.
          2    1    1    2  501    0  0.52979906165E+02  0.23286708807E+01 -0.35859670565E+03  0.36249674546E+03  0.00000000000E+00 0. -1.
          1    1    1    2  502    0 -0.42887033892E+02 -0.19493409642E+02  0.37881696836E+03  0.38173496855E+03  0.00000000000E+00 0. -1.
         22    1    3    3    0    0  0.51518156905E+02 -0.17601901113E+02  0.25986121654E+01  0.54504130108E+02  0.00000000000E+00 0. -1.
         22    1    3    3    0    0 -0.61611029179E+02  0.34766639874E+02  0.25099939380E+02  0.75064273269E+02  0.00000000000E+00 0. -1.
</event>
<event>
 7    1  0.5736319E-006  0.5718409E+02  0.7818608E-02  0.1448460E+00
          2   -1    0    0  502    0  0.00000000000E+00  0.00000000000E+00  0.44167535263E+03  0.44167535263E+03  0.00000000000E+00 0. -1.
          1   -1    0    0  501    0 -0.00000000000E+00 -0.00000000000E+00 -0.48063283957E+02  0.48063283957E+02  0.00000000000E+00 0. -1.
         25    2    1    2    0    0 -0.21307410522E+02  0.57132874957E+02  0.14616150695E+03  0.20175760848E+03  0.12499910129E+03 0.  0.
          2    1    1    2  501    0  0.42636974613E+02 -0.26834557073E+01  0.10598033484E+02  0.44016256684E+02  0.00000000000E+00 0. -1.
          1    1    1    2  502    0 -0.21329564092E+02 -0.54449419250E+02  0.23685252824E+03  0.24396477142E+03  0.00000000000E+00 0. -1.
         22    1    3    3    0    0 -0.58721193756E+02  0.65181674919E+02  0.13654145314E+03  0.16229725126E+03  0.00000000000E+00 0.  1.
         22    1    3    3    0    0  0.37413783235E+02 -0.80487999619E+01  0.96200538115E+01  0.39460357222E+02  0.00000000000E+00 0.  1.
</event>
<event>
 7    1  0.5736319E-006  0.1147580E+03  0.7818608E-02  0.1281777E+00
          2   -1    0    0  502    0  0.00000000000E+00  0.00000000000E+00  0.42848934649E+03  0.42848934649E+03  0.00000000000E+00 0. -1.
          1   -1    0    0  501    0 -0.00000000000E+00 -0.00000000000E+00 -0.76431150864E+03  0.76431150864E+03  0.00000000000E+00 0. -1.
         25    2    1    2    0    0 -0.63705546359E+02  0.14118271428E+03 -0.18399509291E+03  0.27105503420E+03  0.12500272759E+03 0.  0.
          2    1    1    2  501    0  0.94223038586E+02 -0.60862685026E+02 -0.52600359743E+03  0.53783085811E+03  0.00000000000E+00 0. -1.
          1    1    1    2  502    0 -0.30517492227E+02 -0.80320029252E+02  0.37417652818E+03  0.38391496282E+03  0.00000000000E+00 0. -1.
         22    1    3    3    0    0 -0.42324390713E+02  0.58487434746E+02 -0.16974475707E+03  0.18445979677E+03  0.00000000000E+00 0.  1.
         22    1    3    3    0    0 -0.21381155646E+02  0.82695279532E+02 -0.14250335836E+02  0.86595237427E+02  0.00000000000E+00 0.  1.
</event>
<event>
 7    1  0.5736319E-006  0.2065125E+03  0.7818608E-02  0.1202079E+00
          2   -1    0    0  502    0  0.00000000000E+00  0.00000000000E+00  0.89408349748E+02  0.89408349748E+02  0.00000000000E+00 0. -1.
          1   -1    0    0  501    0 -0.00000000000E+00 -0.00000000000E+00 -0.20727585601E+04  0.20727585601E+04  0.00000000000E+00 0. -1.
         25    2    1    2    0    0 -0.14472510287E+03 -0.53371431544E+02 -0.42940422273E+03  0.47308206255E+03  0.12499914523E+03 0.  0.
          2    1    1    2  501    0 -0.30588083826E+02 -0.10261006564E+03 -0.14094378486E+04  0.14134990292E+04  0.00000000000E+00 0. -1.
          1    1    1    2  502    0  0.17531318670E+03  0.15598149719E+03 -0.14450813902E+03  0.27558581810E+03  0.00000000000E+00 0. -1.
         22    1    3    3    0    0  0.22303486026E+02 -0.27882034022E+01 -0.32626708166E+02  0.39619712933E+02  0.00000000000E+00 0. -1.
         22    1    3    3    0    0 -0.16702858890E+03 -0.50583228142E+02 -0.39677751456E+03  0.43346234962E+03  0.00000000000E+00 0. -1.
</event>
<event>
 7    1  0.5736319E-006  0.1440713E+03  0.7818608E-02  0.1420085E+00
          2   -1    0    0  502    0  0.00000000000E+00  0.00000000000E+00  0.83764614605E+03  0.83764614605E+03  0.00000000000E+00 0. -1.
          1   -1    0    0  501    0 -0.00000000000E+00 -0.00000000000E+00 -0.56676662415E+03  0.56676662415E+03  0.00000000000E+00 0. -1.
         25    2    1    2    0    0 -0.13842281245E+03 -0.69489224633E+02  0.11539151587E+02  0.19936789577E+03  0.12499911399E+03 0.  0.
          2    1    1    2  501    0  0.36520839466E+01  0.20678742744E+02 -0.46559824192E+03  0.46607152991E+03  0.00000000000E+00 0. -1.
          1    1    1    2  502    0  0.13477072850E+03  0.48810481889E+02  0.72493861223E+03  0.73897334452E+03  0.00000000000E+00 0. -1.
         22    1    3    3    0    0 -0.13519729261E+03 -0.99750885316E+02  0.42173983121E+01  0.16806645560E+03  0.00000000000E+00 0.  1.
         22    1    3    3    0    0 -0.32255198383E+01  0.30261660683E+02  0.73217532745E+01  0.31301440167E+02  0.00000000000E+00 0.  1.
</event>
<event>
 7    1  0.5736319E-006  0.2383489E+03  0.7818608E-02  0.1319329E+00
          2   -1    0    0  502    0  0.00000000000E+00  0.00000000000E+00  0.72490715844E+03  0.72490715844E+03  0.00000000000E+00 0. -1.
          1   -1    0    0  501    0 -0.00000000000E+00 -0.00000000000E+00 -0.53063953665E+03  0.53063953665E+03  0.00000000000E+00 0. -1.
         25    2    1    2    0    0 -0.26436714499E+03  0.59231948928E+01 -0.24305349892E+03  0.38029685006E+03  0.12500247695E+03 0.  0.
          2    1    1    2  501    0  0.28196482274E+02  0.78601325267E+01 -0.19652566367E+03  0.19869363295E+03  0.00000000000E+00 0. -1.
          1    1    1    2  502    0  0.23617066271E+03 -0.13783327420E+02  0.63384678438E+03  0.67655621208E+03  0.00000000000E+00 0. -1.
         22    1    3    3    0    0 -0.21629535484E+03  0.49849152732E+02 -0.21620771192E+03  0.30986189383E+03  0.00000000000E+00 0. -1.
         22    1    3    3    0    0 -0.48071790143E+02 -0.43925957839E+02 -0.26845787006E+02  0.70434956233E+02  0.00000000000E+00 0. -1.
</event>
<event>
 7    1  0.5736319E-006  0.1119600E+03  0.7818608E-02  0.1355992E+00
          2   -1    0    0  502    0  0.00000000000E+00  0.00000000000E+00  0.61064790846E+03  0.61064790846E+03  0.00000000000E+00 0. -1.
          1   -1    0    0  501    0 -0.00000000000E+00 -0.00000000000E+00 -0.12735224060E+04  0.12735224060E+04  0.00000000000E+00 0. -1.
         25    2    1    2    0    0  0.12454615022E+03  0.63958881309E+02  0.28549974922E+03  0.34166909673E+03  0.12500073128E+03 0.  0.
          2    1    1    2  501    0 -0.45215993458E+02  0.28369447337E+01 -0.12359589795E+04  0.12367890415E+04  0.00000000000E+00 0. -1.
          1    1    1    2  502    0 -0.79330156766E+02 -0.66795826043E+02  0.28758473274E+03  0.30571217616E+03  0.00000000000E+00 0. -1.
         22    1    3    3    0    0 -0.18270833037E+02  0.19459324352E+02  0.99291668710E+02  0.10281694471E+03  0.00000000000E+00 0.  1.
         22    1    3    3    0    0  0.14281698326E+03  0.44499556958E+02  0.18620808051E+03  0.23885215202E+03  0.00000000000E+00 0.  1.
</event>
<event>
 7    1  0.5736319E-006  0.4381221E+02  0.7818608E-02  0.1578403E+00
          2   -1    0    0  502    0  0.00000000000E+00  0.00000000000E+00  0.99647898312E+02  0.99647898312E+02  0.00000000000E+00 0. -1.
          1   -1    0    0  501    0 -0.00000000000E+00 -0.00000000000E+00 -0.72864550408E+03  0.72864550408E+03  0.00000000000E+00 0. -1.
         25    2    1    2    0    0 -0.49840022753E+02 -0.42789341430E+02 -0.13643579623E+03  0.19635267509E+03  0.12499876364E+03 0.  0.
          2    1    1    2  501    0  0.19696213078E+02  0.12197402244E+02 -0.55536984838E+03  0.55585284556E+03  0.00000000000E+00 0. -1.
          1    1    1    2  502    0  0.30143809676E+02  0.30591939186E+02  0.62808038845E+02  0.76087881745E+02  0.00000000000E+00 0. -1.
         22    1    3    3    0    0 -0.25549019743E+02 -0.45559411560E+02  0.53196378446E+01  0.52504389706E+02  0.00000000000E+00 0.  1.
         22    1    3    3    0    0 -0.24291003010E+02  0.27700701303E+01 -0.14175543408E+03  0.14384828538E+03  0.00000000000E+00 0.  1.
</event>
<event>
 7    1  0.5736319E-006  0.9960594E+02  0.7818608E-02  0.1329361E+00
          2   -1    0    0  502    0  0.00000000000E+00  0.00000000000E+00  0.10292098699E+04  0.10292098699E+04  0.00000000000E+00 0. -1.
          1   -1    0    0  501    0 -0.00000000000E+00 -0.00000000000E+00 -0.13553412661E+03  0.13553412661E+03  0.00000000000E+00 0. -1.
         25    2    1    2    0    0 -0.79182952834E+02  0.10935827975E+03  0.58026265888E+03  0.60873666878E+03  0.12500562089E+03 0.  0.
          2    1    1    2  501    0  0.10235222722E+01 -0.64069805706E+02 -0.10769671391E+03  0.12531787498E+03  0.00000000000E+00 0. -1.
          1    1    1    2  502    0  0.78159430562E+02 -0.45288474047E+02  0.42110979829E+03  0.43068945272E+03  0.00000000000E+00 0. -1.
         22    1    3    3    0    0  0.30616690705E+01  0.13411147806E+02 -0.10975762526E+01  0.13799904949E+02  0.00000000000E+00 0.  1.
         22    1    3    3    0    0 -0.82244621904E+02  0.95947131947E+02  0.58136023513E+03  0.59493676383E+03  0.00000000000E+00 0.  1.
</event>
<event>
 7    1  0.5736319E-006  0.1414090E+03  0.7818608E-02  0.1213894E+00
          2   -1    0    0  502    0  0.00000000000E+00  0.00000000000E+00  0.90985474590E+03  0.90985474590E+03  0.00000000000E+00 0. -1.
          1   -1    0    0  501    0 -0.00000000000E+00 -0.00000000000E+00 -0.58681206362E+03  0.58681206362E+03  0.00000000000E+00 0. -1.
         25    2    1    2    0    0  0.11027849550E+03 -0.89203614957E+02  0.44679677967E+03  0.48515105711E+03  0.12500221757E+03 0.  0.
          2    1    1    2  501    0  0.17123782378E+02  0.14165510523E+03 -0.54757629159E+03  0.56586145643E+03  0.00000000000E+00 0. -1.
          1    1    1    2  502    0 -0.12740227787E+03 -0.52451490269E+02  0.42382219420E+03  0.44565429599E+03  0.00000000000E+00 0. -1.
         22    1    3    3    0    0  0.21813998029E+02 -0.80131580599E+02  0.11635655287E+03  0.14295372718E+03  0.00000000000E+00 0. -1.
         22    1    3    3    0    0  0.88464497467E+02 -0.90720343580E+01  0.33044022681E+03  0.34219732993E+03  0.00000000000E+00 0. -1.
</event>
<event>
 7    1  0.5736319E-006  0.1201214E+03  0.7818608E-02  0.1304206E+00
          2   -1    0    0  502    0  0.00000000000E+00  0.00000000000E+00  0.23763004767E+03  0.23763004767E+03  0.00000000000E+00 0. -1.
          1   -1    0    0  501    0 -0.00000000000E+00 -0.00000000000E+00 -0.69297356870E+03  0.69297356870E+03  0.00000000000E+00 0. -1.
         25    2    1    2    0    0 -0.54343416892E+02  0.55967788454E+02  0.42424850812E+02  0.15333249153E+03  0.12500153875E+03 0.  0.
          2    1    1    2  501    0  0.32582702559E+02 -0.11891253456E+03 -0.62318669157E+03  0.63526646057E+03  0.00000000000E+00 0. -1.
          1    1    1    2  502    0  0.21760714332E+02  0.62944746110E+02  0.12541831972E+03  0.14200466426E+03  0.00000000000E+00 0. -1.
         22    1    3    3    0    0 -0.76063598562E+02  0.75468433080E+01 -0.11934851473E+02  0.77363211864E+02  0.00000000000E+00 0.  1.
         22    1    3    3    0    0  0.21720181671E+02  0.48420945146E+02  0.54359702285E+02  0.75969279667E+02  0.00000000000E+00 0.  1.
</event>
<event>
 7    1  0.5736319E-006  0.3345150E+02  0.7818608E-02  0.1570260E+00
          2   -1    0    0  502    0  0.00000000000E+00  0.00000000000E+00  0.11421483606E+04  0.11421483606E+04  0.00000000000E+00 0. -1.
          1   -1    0    0  501    0 -0.00000000000E+00 -0.00000000000E+00 -0.12043216791E+04  0.12043216791E+04  0.00000000000E+00 0. -1.
         25    2    1    2    0    0  0.32727775438E+02  0.25912303975E+02 -0.49033923070E+03  0.50774035758E+03  0.12500061905E+03 0.  0.
          2    1    1    2  501    0 -0.31025706118E+02  0.74987881304E+01 -0.70467368125E+03  0.70539621725E+03  0.00000000000E+00 0. -1.
          1    1    1    2  502    0 -0.17020693200E+01 -0.33411092105E+02  0.11328395935E+04  0.11333334649E+04  0.00000000000E+00 0. -1.
         22    1    3    3    0    0 -0.36646150041E+02  0.43108050755E+02 -0.27786448780E+03  0.28356642596E+03  0.00000000000E+00 0.  1.
         22    1    3    3    0    0  0.69373925479E+02 -0.17195746781E+02 -0.21247474291E+03  0.22417393162E+03  0.00000000000E+00 0.  1.
</event>
<event>
 7    1  0.5736319E-006  0.3076856E+03  0.7818608E-02  0.1320378E+00
          2   -1    0    0  502    0  0.00000000000E+00  0.00000000000E+00  0.18562177920E+04  0.18562177920E+04  0.00000000000E+00 0. -1.
          1   -1    0    0  501    0 -0.00000000000E+00 -0.00000000000E+00 -0.62302585887E+03  0.62302585887E+03  0.00000000000E+00 0. -1.
         25    2    1    2    0    0  0.24463060804E+03  0.20059668576E+03 -0.13194110638E+03  0.36484973708E+03  0.12499484134E+03 0.  0.
          2    1    1    2  501    0 -0.20384730785E+02  0.94382376172E+01 -0.36071312550E+03  0.36141192078E+03  0.00000000000E+00 0. -1.
          1    1    1    2  502    0 -0.22424587726E+03 -0.21003492338E+03  0.17258461650E+04  0.17529819930E+04  0.00000000000E+00 0. -1.
         22    1    3    3    0    0  0.62549388829E+02  0.44947820524E+02  0.22003963235E+02  0.80105599123E+02  0.00000000000E+00 0.  1.
         22    1    3    3    0    0  0.18208121921E+03  0.15564886524E+03 -0.15394506962E+03  0.28474413795E+03  0.00000000000E+00 0.  1.
</event>
<event>
 7    1  0.5736319E-006  0.7942814E+02  0.7818608E-02  0.1407445E+00
          2   -1    0    0  502    0  0.00000000000E+00  0.00000000000E+00  0.45860459774E+03  0.45860459774E+03  0.00000000000E+00 0. -1.
          1   -1    0    0  501    0 -0.00000000000E+00 -0.00000000000E+00 -0.14700656925E+04  0.14700656925E+04  0.00000000000E+00 0. -1.
         25    2    1    2    0    0 -0.30059447549E+01 -0.10119125193E+03 -0.20973189868E+03  0.26430750220E+03  0.12498912444E+03 0.  0.
          2    1    1    2  501    0  0.31841251286E+02  0.27410857282E+02 -0.12290468742E+04  0.12297647903E+04  0.00000000000E+00 0. -1.
          1    1    1    2  502    0 -0.28835306531E+02  0.73780394649E+02  0.42731767818E+03  0.43459799772E+03  0.00000000000E+00 0. -1.
         22    1    3    3    0    0 -0.39085959430E+02 -0.67703515366E+02 -0.40464701243E+02  0.88027667606E+02  0.00000000000E+00 0.  1.
         22    1    3    3    0    0  0.36080014675E+02 -0.33487736565E+02 -0.16926719743E+03  0.17627983460E+03  0.00000000000E+00 0.  1.
</event>
<event>
 7    1  0.5736319E-006  0.6946285E+02  0.7818608E-02  0.1411716E+00
          2   -1    0    0  502    0  0.00000000000E+00  0.00000000000E+00  0.14970181110E+04  0.14970181110E+04  0.00000000000E+00 0. -1.
          1   -1    0    0  501    0 -0.00000000000E+00 -0.00000000000E+00 -0.55432021005E+03  0.55432021005E+03  0.00000000000E+00 0. -1.
         25    2    1    2    0    0 -0.12310740271E+02 -0.27609964981E+02  0.10464997513E+03  0.16580127466E+03  0.12499832356E+03 0.  0.
          2    1    1    2  501    0  0.56663105765E+02  0.41466345761E+02 -0.52099238602E+03  0.52570260764E+03  0.00000000000E+00 0. -1.
          1    1    1    2  502    0 -0.44352365494E+02 -0.13856380780E+02  0.13590403119E+04  0.13598344388E+04  0.00000000000E+00 0. -1.
         22    1    3    3    0    0  0.34392969770E+02 -0.58381708859E+02  0.79553224528E+02  0.10449887957E+03  0.00000000000E+00 0. -1.
         22    1    3    3    0    0 -0.46703710041E+02  0.30771743878E+02  0.25096750603E+02  0.61302395090E+02  0.00000000000E+00 0. -1.
</event>
<event>
 7    1  0.5736319E-006  0.7720369E+02  0.7818608E-02  0.1426938E+00
          2   -1    0    0  502    0  0.00000000000E+00  0.00000000000E+00  0.25059685152E+02  0.25059685152E+02  0.00000000000E+00 0. -1.
          1   -1    0    0  501    0 -0.00000000000E+00 -0.00000000000E+00 -0.14553283808E+04  0.14553283808E+04  0.00000000000E+00 0. -1.
         25    2    1    2    0    0 -0.21083710321E+02  0.56009459373E+02 -0.49228639950E+03  0.51142017353E+03  0.12499244929E+03 0.  0.
          2    1    1    2  501    0  0.58259612237E+02 -0.56805355362E+02 -0.92647820635E+03  0.93004456757E+03  0.00000000000E+00 0. -1.
          1    1    1    2  502    0 -0.37175901916E+02  0.79589598869E+00 -0.11504089757E+02  0.38923324817E+02  0.00000000000E+00 0. -1.
         22    1    3    3    0    0  0.32775182275E+02  0.63545874897E+01 -0.35251521978E+02  0.48551654525E+02  0.00000000000E+00 0. -1.
         22    1    3    3    0    0 -0.53858892596E+02  0.49654871884E+02 -0.45703487752E+03  0.46286851900E+03  0.00000000000E+00 0. -1.
</event>
<event>
 7    1  0.5736319E-006  0.3552389E+02  0.7818608E-02  0.1606612E+00
          2   -1    0    0  502    0  0.00000000000E+00  0.00000000000E+00  0.46014895961E+03  0.46014895961E+03  0.00000000000E+00 0. -1.
          1   -1    0    0  501    0 -0.00000000000E+00 -0.00000000000E+00 -0.44141340996E+03  0.44141340996E+03  0.00000000000E+00 0. -1.
         25    2    1    2    0    0  0.55082534281E+02  0.21846938407E+02  0.14057126161E+03  0.19722051304E+03  0.12499710746E+03 0.  0.
          2    1    1    2  501    0 -0.33787540291E+02 -0.10621752045E+02 -0.41182999068E+03  0.41335016719E+03  0.00000000000E+00 0. -1.
          1    1    1    2  502    0 -0.21294993989E+02 -0.11225186362E+02  0.28999427872E+03  0.29099168934E+03  0.00000000000E+00 0. -1.
         22    1    3    3    0    0  0.54671093865E+02  0.18992128332E+02  0.16384612713E+03  0.17376761154E+03  0.00000000000E+00 0. -1.
         22    1    3    3    0    0  0.41144041577E+00  0.28548100751E+01 -0.23274865524E+02  0.23452901503E+02  0.00000000000E+00 0. -1.
</event>
<event>
 7    1  0.8754064E-006  0.5724111E+02  0.7818608E-02  0.1551744E+00
          2   -1    0    0  502    0  0.00000000000E+00  0.00000000000E+00  0.20041150942E+04  0.20041150942E+04  0.00000000000E+00 0. -1.
          1   -1    0    0  501    0 -0.00000000000E+00 -0.00000000000E+00 -0.11357215545E+04  0.11357215545E+04  0.00000000000E+00 0. -1.
         25    2    1    2    0    0 -0.35020282303E+02  0.26754717478E+02 -0.24040325220E+03  0.27451950587E+03  0.12500000142E+03 0.  0.
          2    1    1    2  501    0  0.30424688113E+01  0.20751144398E+02 -0.87772228744E+03  0.87797282445E+03  0.00000000000E+00 0. -1.
          1    1    1    2  502    0  0.31977813492E+02 -0.47505861876E+02  0.19865190793E+04  0.19873443184E+04  0.00000000000E+00 0. -1.
         22    1    3    3    0    0  0.30804724879E+02  0.35923985565E+02 -0.35645354568E+02  0.59245718124E+02  0.00000000000E+00 0.  1.
         22    1    3    3    0    0 -0.65825007182E+02 -0.91692680872E+01 -0.20475789763E+03  0.21527378775E+03  0.00000000000E+00 0.  1.
</event>
<event>
 7    1  0.5736319E-006  0.9823423E+02  0.7818608E-02  0.1300514E+00
          2   -1    0    0  502    0  0.00000000000E+00  0.00000000000E+00  0.56060138753E+03  0.56060138753E+03  0.00000000000E+00 0. -1.
          1   -1    0    0  501    0 -0.00000000000E+00 -0.00000000000E+00 -0.18232153825E+04  0.18232153825E+04  0.00000000000E+00 0. -1.
         25    2    1    2    0    0  0.15098400002E+02 -0.11778557859E+03 -0.94259235382E+03  0.95823094150E+03  0.12499915028E+03 0.  0.
          2    1    1    2  501    0 -0.78092440599E+02  0.61844623753E+02 -0.86672424258E+03  0.87242999687E+03  0.00000000000E+00 0. -1.
          1    1    1    2  502    0  0.62994040597E+02  0.55940954833E+02  0.54670260148E+03  0.55315583161E+03  0.00000000000E+00 0. -1.
         22    1    3    3    0    0 -0.16428110056E+01 -0.10816208405E+03 -0.37449211321E+03  0.38980261430E+03  0.00000000000E+00 0.  1.
         22    1    3    3    0    0  0.16741211008E+02 -0.96234945335E+01 -0.56810024061E+03  0.56842832721E+03  0.00000000000E+00 0.  1.
</event>
<event>
 7    1  0.5736319E-006  0.8948664E+02  0.7818608E-02  0.1461797E+00
          2   -1    0    0  502    0  0.00000000000E+00  0.00000000000E+00  0.51170644935E+03  0.51170644935E+03  0.00000000000E+00 0. -1.
          1   -1    0    0  501    0 -0.00000000000E+00 -0.00000000000E+00 -0.25400891455E+03  0.25400891455E+03  0.00000000000E+00 0. -1.
         25    2    1    2    0    0 -0.38381814854E+02 -0.55633159689E+02  0.34951038639E+03  0.37729403401E+03  0.12500026294E+03 0.  0.
          2    1    1    2  501    0  0.40693445508E+02  0.80287508866E+02 -0.23054659398E+03  0.24749499507E+03  0.00000000000E+00 0. -1.
          1    1    1    2  502    0 -0.23116306541E+01 -0.24654349177E+02  0.13873374239E+03  0.14092633482E+03  0.00000000000E+00 0. -1.
         22    1    3    3    0    0  0.60981351663E+01 -0.61267046221E+02  0.65998069077E+02  0.90258425242E+02  0.00000000000E+00 0.  1.
         22    1    3    3    0    0 -0.44479950020E+02  0.56338865318E+01  0.28351231732E+03  0.28703560877E+03  0.00000000000E+00 0.  1.
</event>
<event>
 7    1  0.5736319E-006  0.8293838E+02  0.7818608E-02  0.1422816E+00
          2   -1    0    0  502    0  0.00000000000E+00  0.00000000000E+00  0.13627506560E+04  0.13627506560E+04  0.00000000000E+00 0. -1.
          1   -1    0    0  501    0 -0.00000000000E+00 -0.00000000000E+00 -0.11004776928E+03  0.11004776928E+03  0.00000000000E+00 0. -1.
         25    2    1    2    0    0  0.67630582314E+02 -0.77576684444E+00  0.12383909689E+01  0.14213036378E+03  0.12500003687E+03 0.  0.
          2    1    1    2  501    0 -0.93382998962E+02  0.25529462793E+02  0.20211627099E+02  0.98897157874E+02  0.00000000000E+00 0. -1.
          1    1    1    2  502    0  0.25752416648E+02 -0.24753695949E+02  0.12312528687E+04  0.12317709036E+04  0.00000000000E+00 0. -1.
         22    1    3    3    0    0  0.40542929264E+02  0.64900330236E+01 -0.61191619338E+02  0.73690324461E+02  0.00000000000E+00 0.  1.
         22    1    3    3    0    0  0.27087653050E+02 -0.72657998680E+01  0.62430010307E+02  0.68440039322E+02  0.00000000000E+00 0.  1.
</event>
<event>
 7    1  0.5736319E-006  0.8063737E+02  0.7818608E-02  0.1454773E+00
          2   -1    0    0  502    0  0.00000000000E+00  0.00000000000E+00  0.17740210483E+04  0.17740210483E+04  0.00000000000E+00 0. -1.
          1   -1    0    0  501    0 -0.00000000000E+00 -0.00000000000E+00 -0.27879487016E+02  0.27879487016E+02  0.00000000000E+00 0. -1.
         25    2    1    2    0    0 -0.10942947969E+02  0.10121709772E+03  0.87695316549E+03  0.89164925637E+03  0.12500757152E+03 0.  0.
          2    1    1    2  501    0  0.23763618836E+02 -0.75291781673E+02  0.56591631771E+02  0.97139975058E+02  0.00000000000E+00 0. -1.
          1    1    1    2  502    0 -0.12820670867E+02 -0.25925316047E+02  0.81259676406E+03  0.81311130393E+03  0.00000000000E+00 0. -1.
         22    1    3    3    0    0  0.39175094392E+02  0.80897751477E+02  0.32977427081E+03  0.34180433570E+03  0.00000000000E+00 0. -1.
         22    1    3    3    0    0 -0.50118042362E+02  0.20319346243E+02  0.54717889468E+03  0.54984492067E+03  0.00000000000E+00 0. -1.
</event>
<event>
 7    1  0.5736319E-006  0.1526031E+03  0.7818608E-02  0.1305890E+00
          2   -1    0    0  502    0  0.00000000000E+00  0.00000000000E+00  0.72260253329E+03  0.72260253329E+03  0.00000000000E+00 0. -1.
          1   -1    0    0  501    0 -0.00000000000E+00 -0.00000000000E+00 -0.24228812065E+04  0.24228812065E+04  0.00000000000E+00 0. -1.
         25    2    1    2    0    0  0.72248135252E+02 -0.12202967668E+03 -0.40494471707E+03  0.44689911769E+03  0.12501024945E+03 0.  0.
          2    1    1    2  501    0 -0.30344549578E+02  0.15217956623E+03 -0.19929896853E+04  0.19990215851E+04  0.00000000000E+00 0. -1.
          1    1    1    2  502    0 -0.41903585674E+02 -0.30149889550E+02  0.69765572915E+03  0.69956303700E+03  0.00000000000E+00 0. -1.
         22    1    3    3    0    0  0.16435456092E+02 -0.11500907784E+03 -0.34789323878E+03  0.36677911308E+03  0.00000000000E+00 0. -1.
         22    1    3    3    0    0  0.55812679160E+02 -0.70205988397E+01 -0.57051478286E+02  0.80120004604E+02  0.00000000000E+00 0. -1.
</event>
<event>
 7    1  0.5736319E-006  0.1224311E+03  0.7818608E-02  0.1370968E+00
          2   -1    0    0  502    0  0.00000000000E+00  0.00000000000E+00  0.21288984311E+03  0.21288984311E+03  0.00000000000E+00 0. -1.
          1   -1    0    0  501    0 -0.00000000000E+00 -0.00000000000E+00 -0.17445878722E+03  0.17445878722E+03  0.00000000000E+00 0. -1.
         25    2    1    2    0    0  0.24032735499E+01  0.13452247401E+03  0.80508771437E+02  0.20052018072E+03  0.12499843543E+03 0.  0.
          2    1    1    2  501    0 -0.28274585469E+02 -0.23169169831E+02 -0.60842527970E+02  0.70979404223E+02  0.00000000000E+00 0. -1.
          1    1    1    2  502    0  0.25871311919E+02 -0.11135330418E+03  0.18764812429E+02  0.11584904539E+03  0.00000000000E+00 0. -1.
         22    1    3    3    0    0  0.62428273732E+02  0.83449002808E+02  0.37658422587E+02  0.11081147153E+03  0.00000000000E+00 0.  1.
         22    1    3    3    0    0 -0.60025000183E+02  0.51073471202E+02  0.42850348850E+02  0.89708709187E+02  0.00000000000E+00 0.  1.
</event>
<event>
 7    1  0.5736319E-006  0.2912748E+03  0.7818608E-02  0.1287423E+00
          2   -1    0    0  502    0  0.00000000000E+00  0.00000000000E+00  0.13789566438E+04  0.13789566438E+04  0.00000000000E+00 0. -1.
          1   -1    0    0  501    0 -0.00000000000E+00 -0.00000000000E+00 -0.11307167573E+04  0.11307167573E+04  0.00000000000E+00 0. -1.
         25    2    1    2    0    0  0.53815567688E+02  0.30953369382E+03 -0.99004373075E+02  0.35232579684E+03  0.12499751314E+03 0.  0.
          2    1    1    2  501    0 -0.23863258544E+02 -0.21461087716E+02 -0.88801207115E+03  0.88859184776E+03  0.00000000000E+00 0. -1.
          1    1    1    2  502    0 -0.29952309144E+02 -0.28807260611E+03  0.12352563307E+04  0.12687557566E+04  0.00000000000E+00 0. -1.
         22    1    3    3    0    0  0.36692764497E+02  0.10323508955E+03 -0.95416937310E+02  0.14528673238E+03  0.00000000000E+00 0. -1.
         22    1    3    3    0    0  0.17122803191E+02  0.20629860427E+03 -0.35874357647E+01  0.20703906445E+03  0.00000000000E+00 0. -1.
</event>
<event>
 7    1  0.5736319E-006  0.5201100E+02  0.7818608E-02  0.1490379E+00
          2   -1    0    0  502    0  0.00000000000E+00  0.00000000000E+00  0.65946063454E+03  0.65946063454E+03  0.00000000000E+00 0. -1.
          1   -1    0    0  501    0 -0.00000000000E+00 -0.00000000000E+00 -0.83149575279E+02  0.83149575279E+02  0.00000000000E+00 0. -1.
         25    2    1    2    0    0  0.24131123376E+02  0.75054604539E+02  0.46436622671E+02  0.15490561559E+03  0.12499554007E+03 0.  0.
          2    1    1    2  501    0 -0.24437596847E+02 -0.40278930426E+02 -0.87842490144E+01  0.47924434338E+02  0.00000000000E+00 0. -1.
          1    1    1    2  502    0  0.30647347059E+00 -0.34775674114E+02  0.53865868560E+03  0.53978015989E+03  0.00000000000E+00 0. -1.
         22    1    3    3    0    0 -0.22348169661E+02 -0.25312359602E+02 -0.27033846149E+01  0.33874245737E+02  0.00000000000E+00 0. -1.
         22    1    3    3    0    0  0.46479293037E+02  0.10036696414E+03  0.49140007286E+02  0.12103136985E+03  0.00000000000E+00 0. -1.
</event>
<event>
 7    1  0.5736319E-006  0.2546407E+03  0.7818608E-02  0.1275155E+00
          2   -1    0    0  502    0  0.00000000000E+00  0.00000000000E+00  0.76234316025E+03  0.76234316025E+03  0.00000000000E+00 0. -1.
          1   -1    0    0  501    0 -0.00000000000E+00 -0.00000000000E+00 -0.40731400637E+03  0.40731400637E+03  0.00000000000E+00 0. -1.
         25    2    1    2    0    0  0.27701562222E+03  0.65580921379E+02  0.71985582012E+02  0.31912523707E+03  0.12498192155E+03 0.  0.
          2    1    1    2  501    0 -0.24279838138E+03 -0.42548354180E+02 -0.22922298462E+03  0.33660747633E+03  0.00000000000E+00 0. -1.
          1    1    1    2  502    0 -0.34217240834E+02 -0.23032567199E+02  0.51226655649E+03  0.51392445322E+03  0.00000000000E+00 0. -1.
         22    1    3    3    0    0  0.26303720415E+03  0.37698261168E+02  0.92985222612E+02  0.28152438844E+03  0.00000000000E+00 0. -1.
         22    1    3    3    0    0  0.13978418064E+02  0.27882660210E+02 -0.20999640601E+02  0.37600848625E+02  0.00000000000E+00 0. -1.
</event>
<event>
 7    1  0.5736319E-006  0.9931714E+02  0.7818608E-02  0.1413417E+00
          2   -1    0    0  502    0  0.00000000000E+00  0.00000000000E+00  0.51417076513E+03  0.51417076513E+03  0.00000000000E+00 0. -1.
          1   -1    0    0  501    0 -0.00000000000E+00 -0.00000000000E+00 -0.46997972118E+03  0.46997972118E+03  0.00000000000E+00 0. -1.
         25    2    1    2    0    0 -0.68098286311E+02  0.41249642486E+02  0.25146286470E+03  0.29188761144E+03  0.12500358309E+03 0.  0.
          2    1    1    2  501    0  0.96327666450E+02 -0.26027650470E+02 -0.44313446803E+03  0.45422969373E+03  0.00000000000E+00 0. -1.
          1    1    1    2  502    0 -0.28229380138E+02 -0.15221992015E+02  0.23586264727E+03  0.23803318114E+03  0.00000000000E+00 0. -1.
         22    1    3    3    0    0 -0.69885952953E+02  0.68574376068E+02  0.10775479115E+03  0.14559390952E+03  0.00000000000E+00 0. -1.
         22    1    3    3    0    0  0.17876666419E+01 -0.27324733583E+02  0.14370807356E+03  0.14629370193E+03  0.00000000000E+00 0. -1.
</event>
<event>
 7    1  0.5736319E-006  0.1139436E+03  0.7818608E-02  0.1433494E+00
          2   -1    0    0  502    0  0.00000000000E+00  0.00000000000E+00  0.51340141331E+03  0.51340141331E+03  0.00000000000E+00 0. -1.
          1   -1    0    0  501    0 -0.00000000000E+00 -0.00000000000E+00 -0.31033330913E+03  0.31033330913E+03  0.00000000000E+00 0. -1.
         25    2    1    2    0    0 -0.31577974214E+02 -0.12932483023E+03 -0.44310510994E+02  0.18791114879E+03  0.12500039313E+03 0.  0.
          2    1    1    2  501    0  0.30961014791E+02  0.10535926390E+03 -0.17833588634E+03  0.20943458951E+03  0.00000000000E+00 0. -1.
          1    1    1    2  502    0  0.61695942261E+00  0.23965566334E+02  0.42571450151E+03  0.42638898415E+03  0.00000000000E+00 0. -1.
         22    1    3    3    0    0 -0.43756290592E+02 -0.14669194662E+03 -0.56821964953E+02  0.16328464677E+03  0.00000000000E+00 0.  1.
         22    1    3    3    0    0  0.12178316378E+02  0.17367116388E+02  0.12511453959E+02  0.24626502017E+02  0.00000000000E+00 0.  1.
</event>
<event>
 7    1  0.5736319E-006  0.1113734E+03  0.7818608E-02  0.1291426E+00
          2   -1    0    0  502    0  0.00000000000E+00  0.00000000000E+00  0.81493106069E+02  0.81493106069E+02  0.00000000000E+00 0. -1.
          1   -1    0    0  501    0 -0.00000000000E+00 -0.00000000000E+00 -0.24609463693E+04  0.24609463693E+04  0.00000000000E+00 0. -1.
         25    2    1    2    0    0 -0.72317761235E+02 -0.75110227579E+02 -0.24622461087E+03  0.29516570040E+03  0.12499930727E+03 0.  0.
          2    1    1    2  501    0 -0.45604132349E+02  0.66754048537E+02 -0.21273758160E+04  0.21289113891E+04  0.00000000000E+00 0. -1.
          1    1    1    2  502    0  0.11792189358E+03  0.83561790416E+01 -0.58528363865E+01  0.11836238595E+03  0.00000000000E+00 0. -1.
         22    1    3    3    0    0 -0.10140852106E+01 -0.70841382141E+02 -0.19441940895E+03  0.20692616163E+03  0.00000000000E+00 0.  1.
         22    1    3    3    0    0 -0.71303676024E+02 -0.42688454377E+01 -0.51805201920E+02  0.88239538767E+02  0.00000000000E+00 0.  1.
</event>
<event>
 7    1  0.5736319E-006  0.1383165E+03  0.7818608E-02  0.1365213E+00
          2   -1    0    0  502    0  0.00000000000E+00  0.00000000000E+00  0.12126343838E+04  0.12126343838E+04  0.00000000000E+00 0. -1.
          1   -1    0    0  501    0 -0.00000000000E+00 -0.00000000000E+00 -0.34849719913E+03  0.34849719913E+03  0.00000000000E+00 0. -1.
         25    2    1    2    0    0  0.15604050315E+03  0.52697521681E+02  0.18346245772E+03  0.27642232594E+03  0.12500064589E+03 0.  0.
          2    1    1    2  501    0 -0.12284900646E+03 -0.59786669956E+02 -0.28625290428E+03  0.31718614330E+03  0.00000000000E+00 0. -1.
          1    1    1    2  502    0 -0.33191496688E+02  0.70891482743E+01  0.96692763122E+03  0.96752311368E+03  0.00000000000E+00 0. -1.
         22    1    3    3    0    0 -0.98999955645E+01 -0.43977324350E+01  0.62145059053E+02  0.63082155381E+02  0.00000000000E+00 0. -1.
         22    1    3    3    0    0  0.16594049872E+03  0.57095254117E+02  0.12131739866E+03  0.21334017056E+03  0.00000000000E+00 0. -1.
</event>
<event>
 7    1  0.5736319E-006  0.1029383E+03  0.7818608E-02  0.1333835E+00
          2   -1    0    0  502    0  0.00000000000E+00  0.00000000000E+00  0.33664348774E+03  0.33664348774E+03  0.00000000000E+00 0. -1.
          1   -1    0    0  501    0 -0.00000000000E+00 -0.00000000000E+00 -0.35423622994E+03  0.35423622994E+03  0.00000000000E+00 0. -1.
         25    2    1    2    0    0 -0.21672025894E+02 -0.57414742036E+02 -0.73291154642E+02  0.15737192859E+03  0.12501280435E+03 0.  0.
          2    1    1    2  501    0  0.64773441764E+02  0.98602223256E+02 -0.22096900745E+03  0.25049011845E+03  0.00000000000E+00 0. -1.
          1    1    1    2  502    0 -0.43101415870E+02 -0.41187481220E+02  0.27666741990E+03  0.28301767063E+03  0.00000000000E+00 0. -1.
         22    1    3    3    0    0  0.23687868626E+02  0.20999020620E+02 -0.57186323487E+02  0.65363212751E+02  0.00000000000E+00 0. -1.
         22    1    3    3    0    0 -0.45359894520E+02 -0.78413762656E+02 -0.16104831155E+02  0.92008715844E+02  0.00000000000E+00 0. -1.
</event>
<event>
 7    1  0.5736319E-006  0.6881652E+02  0.7818608E-02  0.1434570E+00
          2   -1    0    0  502    0  0.00000000000E+00  0.00000000000E+00  0.53105341694E+02  0.53105341694E+02  0.00000000000E+00 0. -1.
          1   -1    0    0  501    0 -0.00000000000E+00 -0.00000000000E+00 -0.88422354722E+03  0.88422354722E+03  0.00000000000E+00 0. -1.
         25    2    1    2    0    0  0.33692943272E+02 -0.74979038945E+02 -0.38824681014E+03  0.41607494503E+03  0.12500281432E+03 0.  0.
          2    1    1    2  501    0  0.50075028464E+01  0.67728290476E+02 -0.46906982575E+03  0.47396065010E+03  0.00000000000E+00 0. -1.
          1    1    1    2  502    0 -0.38700446119E+02  0.72507484689E+01  0.26198430366E+02  0.47293293783E+02  0.00000000000E+00 0. -1.
         22    1    3    3    0    0 -0.17547259544E+02  0.57670408278E+01 -0.24861958059E+01  0.18637227449E+02  0.00000000000E+00 0.  1.
         22    1    3    3    0    0  0.51240202816E+02 -0.80746079773E+02 -0.38576061434E+03  0.39743771758E+03  0.00000000000E+00 0.  1.
</event>
<event>
 7    1  0.5736319E-006  0.6439536E+02  0.7818608E-02  0.1475838E+00
          2   -1    0    0  502    0  0.00000000000E+00  0.00000000000E+00  0.15547500976E+04  0.15547500976E+04  0.00000000000E+00 0. -1.
          1   -1    0    0  501    0 -0.00000000000E+00 -0.00000000000E+00 -0.30257670322E+03  0.30257670322E+03  0.00000000000E+00 0. -1.
         25    2    1    2    0    0  0.72469928793E+02  0.54187812779E+02  0.14300515741E+03  0.21038954245E+03  0.12500029958E+03 0.  0.
          2    1    1    2  501    0 -0.14414747305E+02 -0.27572813970E+02 -0.26724153359E+03  0.26904661731E+03  0.00000000000E+00 0. -1.
          1    1    1    2  502    0 -0.58055181488E+02 -0.26614998809E+02  0.13764097706E+04  0.13778906411E+04  0.00000000000E+00 0. -1.
         22    1    3    3    0    0  0.18496413641E+01 -0.30096972555E+02  0.75655680568E+02  0.81443421664E+02  0.00000000000E+00 0.  1.
         22    1    3    3    0    0  0.70620287429E+02  0.84284785334E+02  0.67349476845E+02  0.12894612079E+03  0.00000000000E+00 0.  1.
</event>
<event>
 7    1  0.5736319E-006  0.1536428E+03  0.7818608E-02  0.1246692E+00
          2   -1    0    0  502    0  0.00000000000E+00  0.00000000000E+00  0.99418614100E+03  0.99418614100E+03  0.00000000000E+00 0. -1.
          1   -1    0    0  501    0 -0.00000000000E+00 -0.00000000000E+00 -0.12672784530E+04  0.12672784530E+04  0.00000000000E+00 0. -1.
         25    2    1    2    0    0  0.18622150745E+03 -0.72307544272E+02 -0.42139179743E+02  0.23938934463E+03  0.12499886822E+03 0.  0.
          2    1    1    2  501    0 -0.15176819278E+03 -0.11259118411E+02 -0.11190698734E+04  0.11293705032E+04  0.00000000000E+00 0. -1.
          1    1    1    2  502    0 -0.34453314673E+02  0.83566662684E+02  0.88811674109E+03  0.89270474615E+03  0.00000000000E+00 0. -1.
         22    1    3    3    0    0  0.44119023776E+02 -0.82031908288E+02 -0.19575919301E+02  0.95178457924E+02  0.00000000000E+00 0.  1.
         22    1    3    3    0    0  0.14210248368E+03  0.97243640154E+01 -0.22563260442E+02  0.14421088671E+03  0.00000000000E+00 0.  1.
</event>
<event>
 7    1  0.5736319E-006  0.6008650E+02  0.7818608E-02  0.1450536E+00
          2   -1    0    0  502    0  0.00000000000E+00  0.00000000000E+00  0.10559008385E+04  0.10559008385E+04  0.00000000000E+00 0. -1.
          1   -1    0    0  501    0 -0.00000000000E+00 -0.00000000000E+00 -0.47241659270E+02  0.47241659270E+02  0.00000000000E+00 0. -1.
         25    2    1    2    0    0 -0.84370686652E+02  0.19658815928E+02  0.70369911977E+03  0.71994366841E+03  0.12498621004E+03 0.  0.
          2    1    1    2  501    0  0.30802291194E+02 -0.25581878893E+02 -0.26090156823E+02  0.47790270491E+02  0.00000000000E+00 0. -1.
          1    1    1    2  502    0  0.53568395458E+02  0.59230629652E+01  0.33105021631E+03  0.33540855891E+03  0.00000000000E+00 0. -1.
         22    1    3    3    0    0 -0.73972947048E+00  0.27621694512E+02  0.48310071865E+03  0.48389028671E+03  0.00000000000E+00 0.  1.
         22    1    3    3    0    0 -0.83630957182E+02 -0.79628785849E+01  0.22059840112E+03  0.23605338170E+03  0.00000000000E+00 0.  1.
</event>
<event>
 7    1  0.5736319E-006  0.7780334E+02  0.7818608E-02  0.1496902E+00
          2   -1    0    0  502    0  0.00000000000E+00  0.00000000000E+00  0.26445622806E+03  0.26445622806E+03  0.00000000000E+00 0. -1.
          1   -1    0    0  501    0 -0.00000000000E+00 -0.00000000000E+00 -0.30343070193E+03  0.30343070193E+03  0.00000000000E+00 0. -1.
         25    2    1    2    0    0 -0.73597617354E+02 -0.59441444961E+02  0.52992520224E+02  0.16547999255E+03  0.12500210429E+03 0.  0.
          2    1    1    2  501    0  0.66723984054E+02  0.38310789382E+02 -0.24035242492E+03  0.25236698436E+03  0.00000000000E+00 0. -1.
          1    1    1    2  502    0  0.68736332999E+01  0.21130655580E+02  0.14838543082E+03  0.15003995308E+03  0.00000000000E+00 0. -1.
         22    1    3    3    0    0 -0.37171770373E+02 -0.49144587927E+02 -0.34165309490E+02  0.70457074930E+02  0.00000000000E+00 0.  1.
         22    1    3    3    0    0 -0.36425846980E+02 -0.10296857035E+02  0.87157829714E+02  0.95022917623E+02  0.00000000000E+00 0.  1.
</event>
<event>
 7    1  0.5736319E-006  0.2645971E+02  0.7818608E-02  0.1654340E+00
          2   -1    0    0  502    0  0.00000000000E+00  0.00000000000E+00  0.30962439460E+03  0.30962439460E+03  0.00000000000E+00 0. -1.
          1   -1    0    0  501    0 -0.00000000000E+00 -0.00000000000E+00 -0.10695993620E+04  0.10695993620E+04  0.00000000000E+00 0. -1.
         25    2    1    2    0    0 -0.44144538111E+02 -0.16598246332E+00 -0.34532663750E+03  0.36990083571E+03  0.12500949521E+03 0.  0.
          2    1    1    2  501    0  0.20915145703E+02  0.12793139112E+02 -0.71118620747E+03  0.71160869122E+03  0.00000000000E+00 0. -1.
          1    1    1    2  502    0  0.23229392407E+02 -0.12627156648E+02  0.29653787754E+03  0.29771422971E+03  0.00000000000E+00 0. -1.
         22    1    3    3    0    0 -0.46250464888E+02 -0.37083564955E+02 -0.68391824191E+02  0.90508220115E+02  0.00000000000E+00 0.  1.
         22    1    3    3    0    0  0.21059267774E+01  0.36917582491E+02 -0.27693481331E+03  0.27939261559E+03  0.00000000000E+00 0.  1.
</event>
<event>
 7    1  0.5736319E-006  0.6256756E+02  0.7818608E-02  0.1393489E+00
          2   -1    0    0  502    0  0.00000000000E+00  0.00000000000E+00  0.15383822254E+04  0.15383822254E+04  0.00000000000E+00 0. -1.
          1   -1    0    0  501    0 -0.00000000000E+00 -0.00000000000E+00 -0.10786315011E+04  0.10786315011E+04  0.00000000000E+00 0. -1.
         25    2    1    2    0    0 -0.67562474596E+01  0.42164545877E+02  0.93137519423E+02  0.16163010591E+03  0.12500479113E+03 0.  0.
          2    1    1    2  501    0 -0.54251447009E+02 -0.24588513183E+02 -0.10428207518E+04  0.10445204330E+04  0.00000000000E+00 0. -1.
          1    1    1    2  502    0  0.61007694469E+02 -0.17576032694E+02  0.14094339567E+04  0.14108631876E+04  0.00000000000E+00 0. -1.
         22    1    3    3    0    0  0.12672552364E+02 -0.10887776347E+02 -0.25350856883E+02  0.30361212128E+02  0.00000000000E+00 0.  1.
         22    1    3    3    0    0 -0.19428799823E+02  0.53052322224E+02  0.11848837631E+03  0.13126889378E+03  0.00000000000E+00 0.  1.
</event>
<event>
 7    1  0.5736319E-006  0.7986377E+02  0.7818608E-02  0.1344395E+00
          2   -1    0    0  502    0  0.00000000000E+00  0.00000000000E+00  0.21385483946E+03  0.21385483946E+03  0.00000000000E+00 0. -1.
          1   -1    0    0  501    0 -0.00000000000E+00 -0.00000000000E+00 -0.88624557830E+03  0.88624557830E+03  0.00000000000E+00 0. -1.
         25    2    1    2    0    0  0.12831096795E+03  0.26472215326E+02 -0.11366901647E+03  0.21380210471E+03  0.12500484788E+03 0.  0.
          2    1    1    2  501    0 -0.53100369108E+02 -0.45788323159E+02 -0.71148531144E+03  0.71493186258E+03  0.00000000000E+00 0. -1.
          1    1    1    2  502    0 -0.75210598844E+02  0.19316107833E+02  0.15276358907E+03  0.17136645047E+03  0.00000000000E+00 0. -1.
         22    1    3    3    0    0  0.18970240523E+02 -0.13996519014E+02  0.23834272146E+02  0.33523798991E+02  0.00000000000E+00 0. -1.
         22    1    3    3    0    0  0.10934072743E+03  0.40468734341E+02 -0.13750328861E+03  0.18027830572E+03  0.00000000000E+00 0. -1.
</event>
<event>
 7    1  0.5736319E-006  0.6391812E+02  0.7818608E-02  0.1535757E+00
          2   -1    0    0  502    0  0.00000000000E+00  0.00000000000E+00  0.10333492302E+04  0.10333492302E+04  0.00000000000E+00 0. -1.
          1   -1    0    0  501    0 -0.00000000000E+00 -0.00000000000E+00 -0.33896294426E+02  0.33896294426E+02  0.00000000000E+00 0. -1.
         25    2    1    2    0    0 -0.63462769066E+02  0.50354886860E+02  0.32286535105E+03  0.35557284070E+03  0.12500748955E+03 0.  0.
          2    1    1    2  501    0  0.44222774721E+02 -0.42369941618E+02  0.36602159163E+02  0.71348327325E+02  0.00000000000E+00 0. -1.
          1    1    1    2  502    0  0.19239994346E+02 -0.79849452414E+01  0.63998542558E+03  0.64032435663E+03  0.00000000000E+00 0. -1.
         22    1    3    3    0    0 -0.81315544293E+02  0.32843921799E+02  0.10737990794E+03  0.13864121166E+03  0.00000000000E+00 0. -1.
         22    1    3    3    0    0  0.17852775227E+02  0.17510965060E+02  0.21548544312E+03  0.21693162904E+03  0.00000000000E+00 0. -1.
</event>
<event>
 7    1  0.5736319E-006  0.1263991E+03  0.7818608E-02  0.1287849E+00
          2   -1    0    0  502    0  0.00000000000E+00  0.00000000000E+00  0.25768592690E+04  0.25768592690E+04  0.00000000000E+00 0. -1.
          1   -1    0    0  501    0 -0.00000000000E+00 -0.00000000000E+00 -0.25240851929E+03  0.25240851929E+03  0.00000000000E+00 0. -1.
         25    2    1    2    0    0 -0.69637237802E+02 -0.12421340186E+03  0.59290313608E+03  0.62244593368E+03  0.12500598984E+03 0.  0.
          2    1    1    2  501    0  0.10995337062E+03  0.62563302143E+02 -0.22005640815E+03  0.25382815694E+03  0.00000000000E+00 0. -1.
          1    1    1    2  502    0 -0.40316132822E+02  0.61650099713E+02  0.19516040218E+04  0.19529936977E+04  0.00000000000E+00 0. -1.
         22    1    3    3    0    0  0.64328482092E+01 -0.31941073146E+02  0.35189206175E+03  0.35339727901E+03  0.00000000000E+00 0.  1.
         22    1    3    3    0    0 -0.76070086012E+02 -0.92272328710E+02  0.24101107433E+03  0.26904865467E+03  0.00000000000E+00 0.  1.
</event>
<event>
 7    1  0.5736319E-006  0.1462301E+03  0.7818608E-02  0.1305876E+00
          2   -1    0    0  502    0  0.00000000000E+00  0.00000000000E+00  0.12107245353E+04  0.12107245353E+04  0.00000000000E+00 0. -1.
          1   -1    0    0  501    0 -0.00000000000E+00 -0.00000000000E+00 -0.26982613028E+03  0.26982613028E+03  0.00000000000E+00 0. -1.
         25    2    1    2    0    0 -0.15157495848E+03 -0.89314212299E+02  0.89155722979E+03  0.91730654377E+03  0.12500001881E+03 0.  0.
          2    1    1    2  501    0  0.10025432794E+03  0.10572158576E+03 -0.23354872405E+03  0.27526894208E+03  0.00000000000E+00 0. -1.
          1    1    1    2  502    0  0.51320630537E+02 -0.16407373459E+02  0.28288989933E+03  0.28797517978E+03  0.00000000000E+00 0. -1.
         22    1    3    3    0    0 -0.11425213472E+03 -0.47284978800E+02  0.32107466293E+03  0.34406156234E+03  0.00000000000E+00 0.  1.
         22    1    3    3    0    0 -0.37322823758E+02 -0.42029233500E+02  0.57048256686E+03  0.57324498143E+03  0.00000000000E+00 0.  1.
</event>
<event>
 7    1  0.5736319E-006  0.5267560E+02  0.7818608E-02  0.1449270E+00
          2   -1    0    0  502    0  0.00000000000E+00  0.00000000000E+00  0.12558999138E+04  0.12558999138E+04  0.00000000000E+00 0. -1.
          1   -1    0    0  501    0 -0.00000000000E+00 -0.00000000000E+00 -0.30484579221E+03  0.30484579221E+03  0.00000000000E+00 0. -1.
         25    2    1    2    0    0 -0.25297657216E+02 -0.18822848116E+02  0.16804583321E+03  0.21179824427E+03  0.12499929257E+03 0.  0.
          2    1    1    2  501    0  0.48938833596E+02 -0.20755197494E+02 -0.27996900623E+03  0.28497093204E+03  0.00000000000E+00 0. -1.
          1    1    1    2  502    0 -0.23641176380E+02  0.39578045611E+02  0.10629772946E+04  0.10639765297E+04  0.00000000000E+00 0. -1.
         22    1    3    3    0    0 -0.64213087610E+02  0.12787289721E+02  0.46465258277E+02  0.80286086127E+02  0.00000000000E+00 0.  1.
         22    1    3    3    0    0  0.38915430394E+02 -0.31610137837E+02  0.12158057493E+03  0.13151215814E+03  0.00000000000E+00 0.  1.
</event>
<event>
 7    1  0.5736319E-006  0.7624486E+02  0.7818608E-02  0.1367309E+00
          2   -1    0    0  502    0  0.00000000000E+00  0.00000000000E+00  0.25210381737E+03  0.25210381737E+03  0.00000000000E+00 0. -1.
          1   -1    0    0  501    0 -0.00000000000E+00 -0.00000000000E+00 -0.60469182096E+03  0.60469182096E+03  0.00000000000E+00 0. -1.
         25    2    1    2    0    0  0.41767425805E+02  0.17762851967E+02 -0.69898530355E+02  0.15023600038E+03  0.12500005798E+03 0.  0.
          2    1    1    2  501    0  0.29442977718E+02 -0.52858695108E+02 -0.48524456989E+03  0.48900227320E+03  0.00000000000E+00 0. -1.
          1    1    1    2  502    0 -0.71210403523E+02  0.35095843141E+02  0.20255509666E+03  0.21755736475E+03  0.00000000000E+00 0. -1.
         22    1    3    3    0    0  0.46210362351E+02 -0.43323998276E+02 -0.61726446611E+02  0.88445014706E+02  0.00000000000E+00 0. -1.
         22    1    3    3    0    0 -0.44429365457E+01  0.61086850243E+02 -0.81720837449E+01  0.61790985674E+02  0.00000000000E+00 0. -1.
</event>
<event>
 7    1  0.5736319E-006  0.9312450E+02  0.7818608E-02  0.1318816E+00
          2   -1    0    0  502    0  0.00000000000E+00  0.00000000000E+00  0.92588233300E+03  0.92588233300E+03  0.00000000000E+00 0. -1.
          1   -1    0    0  501    0 -0.00000000000E+00 -0.00000000000E+00 -0.15257382400E+04  0.15257382400E+04  0.00000000000E+00 0. -1.
         25    2    1    2    0    0  0.93478301818E+01  0.30631415426E+02  0.14430460612E+03  0.19358333208E+03  0.12500008628E+03 0.  0.
          2    1    1    2  501    0 -0.83723626532E+02 -0.42161075560E+02 -0.14977590343E+04  0.15006896171E+04  0.00000000000E+00 0. -1.
          1    1    1    2  502    0  0.74375796351E+02  0.11529660133E+02  0.75359852121E+03  0.75734762383E+03  0.00000000000E+00 0. -1.
         22    1    3    3    0    0  0.41813336454E+02  0.66273571822E+02  0.70384377928E+02  0.10533044234E+03  0.00000000000E+00 0. -1.
         22    1    3    3    0    0 -0.32465506272E+02 -0.35642156395E+02  0.73920228197E+02  0.88252889736E+02  0.00000000000E+00 0. -1.
</event>
<event>
 7    1  0.5736319E-006  0.1167125E+03  0.7818608E-02  0.1267250E+00
          2   -1    0    0  502    0  0.00000000000E+00  0.00000000000E+00  0.29332099801E+03  0.29332099801E+03  0.00000000000E+00 0. -1.
          1   -1    0    0  501    0 -0.00000000000E+00 -0.00000000000E+00 -0.14761562659E+04  0.14761562659E+04  0.00000000000E+00 0. -1.
         25    2    1    2    0    0 -0.41813634522E+02  0.33540257851E+02  0.65065801361E+02  0.15076231128E+03  0.12498954783E+03 0.  0.
          2    1    1    2  501    0  0.59386099330E+02  0.10047440467E+03 -0.14059311805E+04  0.14107672732E+04  0.00000000000E+00 0. -1.
          1    1    1    2  502    0 -0.17572464808E+02 -0.13401466252E+03  0.15803011130E+03  0.20794767940E+03  0.00000000000E+00 0. -1.
         22    1    3    3    0    0  0.20505437896E+02 -0.36127587214E+02  0.11832993898E+02  0.43193694977E+02  0.00000000000E+00 0. -1.
         22    1    3    3    0    0 -0.62319072418E+02  0.69667845065E+02  0.53232807462E+02  0.10756861630E+03  0.00000000000E+00 0. -1.
</event>
<event>
 7    1  0.5736319E-006  0.9822648E+02  0.7818608E-02  0.1469195E+00
          2   -1    0    0  502    0  0.00000000000E+00  0.00000000000E+00  0.25856625093E+03  0.25856625093E+03  0.00000000000E+00 0. -1.
          1   -1    0    0  501    0 -0.00000000000E+00 -0.00000000000E+00 -0.19845121152E+04  0.19845121152E+04  0.00000000000E+00 0. -1.
         25    2    1    2    0    0  0.66679844443E+02  0.40802510956E+02 -0.53469748431E+03  0.55465051698E+03  0.12499899882E+03 0.  0.
          2    1    1    2  501    0  0.20925595899E+02  0.44224993620E+01 -0.14299798435E+04  0.14301397805E+04  0.00000000000E+00 0. -1.
          1    1    1    2  502    0 -0.87605440342E+02 -0.45225010318E+02  0.23873146351E+03  0.25828806865E+03  0.00000000000E+00 0. -1.
         22    1    3    3    0    0  0.43457354994E+02 -0.40911496603E+01 -0.47247012899E+03  0.47448214086E+03  0.00000000000E+00 0.  1.
         22    1    3    3    0    0  0.23222489449E+02  0.44893660617E+02 -0.62227355323E+02  0.80168376123E+02  0.00000000000E+00 0.  1.
</event>
<event>
 7    1  0.5736319E-006  0.1118990E+03  0.7818608E-02  0.1373355E+00
          2   -1    0    0  502    0  0.00000000000E+00  0.00000000000E+00  0.15394539165E+04  0.15394539165E+04  0.00000000000E+00 0. -1.
          1   -1    0    0  501    0 -0.00000000000E+00 -0.00000000000E+00 -0.50094022291E+03  0.50094022291E+03  0.00000000000E+00 0. -1.
         25    2    1    2    0    0 -0.13534540585E+03  0.63608986584E+02  0.26345234796E+02  0.19668031281E+03  0.12499836796E+03 0.  0.
          2    1    1    2  501    0  0.37618172961E+02 -0.11078068773E+02 -0.41268654429E+03  0.41454557576E+03  0.00000000000E+00 0. -1.
          1    1    1    2  502    0  0.97727232887E+02 -0.52530917811E+02  0.14248550031E+04  0.14291682508E+04  0.00000000000E+00 0. -1.
         22    1    3    3    0    0 -0.45413676631E+02 -0.30469441464E+02  0.37106304945E+02  0.66088325406E+02  0.00000000000E+00 0.  1.
         22    1    3    3    0    0 -0.89931729216E+02  0.94078428048E+02 -0.10761070149E+02  0.13059198741E+03  0.00000000000E+00 0.  1.
</event>
<event>
 7    1  0.5736319E-006  0.6720090E+02  0.7818608E-02  0.1414306E+00
          2   -1    0    0  502    0  0.00000000000E+00  0.00000000000E+00  0.57400273319E+02  0.57400273319E+02  0.00000000000E+00 0. -1.
          1   -1    0    0  501    0 -0.00000000000E+00 -0.00000000000E+00 -0.10766023707E+04  0.10766023707E+04  0.00000000000E+00 0. -1.
         25    2    1    2    0    0  0.48628484176E+02 -0.61280848280E+02 -0.39882631451E+03  0.42519997714E+03  0.12495006834E+03 0.  0.
          2    1    1    2  501    0  0.16563608798E+02  0.44063102907E+02 -0.63749929124E+03  0.63923489931E+03  0.00000000000E+00 0. -1.
          1    1    1    2  502    0 -0.65192092974E+02  0.17217745373E+02  0.17123508379E+02  0.69567767546E+02  0.00000000000E+00 0. -1.
         22    1    3    3    0    0  0.61847134298E+02 -0.83887423168E+02 -0.37690206650E+03  0.39104646210E+03  0.00000000000E+00 0.  1.
         22    1    3    3    0    0 -0.13218650122E+02  0.22606574888E+02 -0.21924248006E+02  0.34153515044E+02  0.00000000000E+00 0.  1.
</event>
<event>
 7    1  0.5736319E-006  0.6456564E+02  0.7818608E-02  0.1421787E+00
          2   -1    0    0  502    0  0.00000000000E+00  0.00000000000E+00  0.17051319773E+04  0.17051319773E+04  0.00000000000E+00 0. -1.
          1   -1    0    0  501    0 -0.00000000000E+00 -0.00000000000E+00 -0.38370945948E+02  0.38370945948E+02  0.00000000000E+00 0. -1.
         25    2    1    2    0    0 -0.18670740745E+02 -0.92553758708E+01  0.64961184180E+03  0.66185502858E+03  0.12498910078E+03 0.  0.
          2    1    1    2  501    0  0.56570944437E+02  0.35759450959E+02  0.35767898815E+01  0.67020918475E+02  0.00000000000E+00 0. -1.
          1    1    1    2  502    0 -0.37900203691E+02 -0.26504075088E+02  0.10135723996E+04  0.10146269762E+04  0.00000000000E+00 0. -1.
         22    1    3    3    0    0  0.11558599419E+02  0.54724873327E+02  0.28096129819E+03  0.28647454348E+03  0.00000000000E+00 0.  1.
         22    1    3    3    0    0 -0.30229340164E+02 -0.63980249198E+02  0.36865054361E+03  0.37538048511E+03  0.00000000000E+00 0.  1.
</event>
<event>
 7    1  0.5736319E-006  0.1016207E+03  0.7818608E-02  0.1421256E+00
          2   -1    0    0  502    0  0.00000000000E+00  0.00000000000E+00  0.15074001008E+04  0.15074001008E+04  0.00000000000E+00 0. -1.
          1   -1    0    0  501    0 -0.00000000000E+00 -0.00000000000E+00 -0.37660720897E+02  0.37660720897E+02  0.00000000000E+00 0. -1.
         25    2    1    2    0    0  0.44255762800E+02  0.87924296631E+02  0.16387778108E+03  0.22840838657E+03  0.12500083778E+03 0.  0.
          2    1    1    2  501    0 -0.73756561930E+02 -0.87485220908E+02  0.64078565436E+03  0.65092238334E+03  0.00000000000E+00 0. -1.
          1    1    1    2  502    0  0.29500799130E+02 -0.43907572316E+00  0.66507594449E+03  0.66573005180E+03  0.00000000000E+00 0. -1.
         22    1    3    3    0    0  0.24072203254E+02  0.57068056116E+02  0.17834997059E+03  0.18879869175E+03  0.00000000000E+00 0. -1.
         22    1    3    3    0    0  0.20183559545E+02  0.30856240515E+02 -0.14472189509E+02  0.39609694821E+02  0.00000000000E+00 0. -1.
</event>
<event>
 7    1  0.5736319E-006  0.1782593E+03  0.7818608E-02  0.1317179E+00
          2   -1    0    0  502    0  0.00000000000E+00  0.00000000000E+00  0.65910971620E+02  0.65910971620E+02  0.00000000000E+00 0. -1.
          1   -1    0    0  501    0 -0.00000000000E+00 -0.00000000000E+00 -0.24678833499E+04  0.24678833499E+04  0.00000000000E+00 0. -1.
         25    2    1    2    0    0  0.11201314754E+03  0.11891731259E+03 -0.13974366469E+04  0.14124946696E+04  0.12499494836E+03 0.  0.
          2    1    1    2  501    0 -0.15116495374E+03 -0.12660592235E+03 -0.10456081739E+04  0.10640377606E+04  0.00000000000E+00 0. -1.
          1    1    1    2  502    0  0.39151806199E+02  0.76886097603E+01  0.41072442545E+02  0.57261891213E+02  0.00000000000E+00 0. -1.
         22    1    3    3    0    0  0.48017940159E+02 -0.20077880219E+02 -0.40500234268E+03  0.40833288066E+03  0.00000000000E+00 0.  1.
         22    1    3    3    0    0  0.63995207384E+02  0.13899519281E+03 -0.99243430425E+03  0.10041617890E+04  0.00000000000E+00 0.  1.
</event>
<event>
 7    1  0.5736319E-006  0.1189523E+03  0.7818608E-02  0.1326005E+00
          2   -1    0    0  502    0  0.00000000000E+00  0.00000000000E+00  0.10702731651E+04  0.10702731651E+04  0.00000000000E+00 0. -1.
          1   -1    0    0  501    0 -0.00000000000E+00 -0.00000000000E+00 -0.10993155504E+04  0.10993155504E+04  0.00000000000E+00 0. -1.
         25    2    1    2    0    0 -0.79990188806E+02 -0.52248273050E+02 -0.27440328641E+02  0.15970397791E+03  0.12499630628E+03 0.  0.
          2    1    1    2  501    0  0.19557070435E+02 -0.51694050775E+02 -0.10013794702E+04  0.10029035832E+04  0.00000000000E+00 0. -1.
          1    1    1    2  502    0  0.60433118371E+02  0.10394232382E+03  0.99977741362E+03  0.10069811544E+04  0.00000000000E+00 0. -1.
         22    1    3    3    0    0  0.80812191173E+01  0.85124938726E+01 -0.49145111919E+02  0.50527326071E+02  0.00000000000E+00 0. -1.
         22    1    3    3    0    0 -0.88071407923E+02 -0.60760766923E+02  0.21704783279E+02  0.10917665184E+03  0.00000000000E+00 0. -1.
</event>
<event>
 7    1  0.5736319E-006  0.5283018E+02  0.7818608E-02  0.1518936E+00
          2   -1    0    0  502    0  0.00000000000E+00  0.00000000000E+00  0.76929555499E+03  0.76929555499E+03  0.00000000000E+00 0. -1.
          1   -1    0    0  501    0 -0.00000000000E+00 -0.00000000000E+00 -0.40064052480E+03  0.40064052480E+03  0.00000000000E+00 0. -1.
         25    2    1    2    0    0 -0.97651492423E+01 -0.32887942509E+02 -0.11105480942E+03  0.17069252010E+03  0.12500316323E+03 0.  0.
          2    1    1    2  501    0 -0.27817216607E+02 -0.44590120597E+01 -0.25805017277E+03  0.25958345863E+03  0.00000000000E+00 0. -1.
          1    1    1    2  502    0  0.37582365849E+02  0.37346954569E+02  0.73776001238E+03  0.73966010107E+03  0.00000000000E+00 0. -1.
         22    1    3    3    0    0 -0.87141341051E+01  0.43316302718E+02 -0.73432770921E+02  0.85700700461E+02  0.00000000000E+00 0. -1.
         22    1    3    3    0    0 -0.10510151372E+01 -0.76204245227E+02 -0.37622038503E+02  0.84991819634E+02  0.00000000000E+00 0. -1.
</event>
<event>
 7    1  0.5736319E-006  0.1450806E+03  0.7818608E-02  0.1271794E+00
          2   -1    0    0  502    0  0.00000000000E+00  0.00000000000E+00  0.65236491499E+03  0.65236491499E+03  0.00000000000E+00 0. -1.
          1   -1    0    0  501    0 -0.00000000000E+00 -0.00000000000E+00 -0.30876546918E+03  0.30876546918E+03  0.00000000000E+00 0. -1.
         25    2    1    2    0    0 -0.46422598983E+02  0.81764571947E+02  0.53903192919E+02  0.16544366364E+03  0.12500219482E+03 0.  0.
          2    1    1    2  501    0  0.18997024806E+02  0.72320004450E+02 -0.23580426339E+03  0.24737566700E+03  0.00000000000E+00 0. -1.
          1    1    1    2  502    0  0.27425574177E+02 -0.15408457640E+03  0.52550051628E+03  0.54831105352E+03  0.00000000000E+00 0. -1.
         22    1    3    3    0    0 -0.41669136713E+02  0.10568066323E+03  0.72512946529E+02  0.13476960692E+03  0.00000000000E+00 0.  1.
         22    1    3    3    0    0 -0.47534622697E+01 -0.23916091287E+02 -0.18609753610E+02  0.30674056716E+02  0.00000000000E+00 0.  1.
</event>
<event>
 7    1  0.5736319E-006  0.1527173E+03  0.7818608E-02  0.1370373E+00
          2   -1    0    0  502    0  0.00000000000E+00  0.00000000000E+00  0.23633863652E+03  0.23633863652E+03  0.00000000000E+00 0. -1.
          1   -1    0    0  501    0 -0.00000000000E+00 -0.00000000000E+00 -0.82096349545E+03  0.82096349545E+03  0.00000000000E+00 0. -1.
         25    2    1    2    0    0 -0.14407095637E+03 -0.12671425239E+02 -0.12244449776E+03  0.22700960746E+03  0.12499480534E+03 0.  0.
          2    1    1    2  501    0  0.15378541961E+03 -0.15130171979E+02 -0.63574059457E+03  0.65425146616E+03  0.00000000000E+00 0. -1.
          1    1    1    2  502    0 -0.97144632425E+01  0.27801597218E+02  0.17356023340E+03  0.17604105834E+03  0.00000000000E+00 0. -1.
         22    1    3    3    0    0 -0.16376177464E+02 -0.17471729649E+02  0.23139121405E+02  0.33299541508E+02  0.00000000000E+00 0. -1.
         22    1    3    3    0    0 -0.12769477891E+03  0.48003044105E+01 -0.14558361916E+03  0.19371006595E+03  0.00000000000E+00 0. -1.
</event>
<event>
 7    1  0.5736319E-006  0.1045574E+03  0.7818608E-02  0.1372397E+00
          2   -1    0    0  502    0  0.00000000000E+00  0.00000000000E+00  0.85623657340E+03  0.85623657340E+03  0.00000000000E+00 0. -1.
          1   -1    0    0  501    0 -0.00000000000E+00 -0.00000000000E+00 -0.56758215277E+02  0.56758215277E+02  0.00000000000E+00 0. -1.
         25    2    1    2    0    0 -0.63797192891E+02 -0.12282551612E+03  0.36286815599E+03  0.40798688099E+03  0.12499522869E+03 0.  0.
          2    1    1    2  501    0  0.25248032495E+02  0.33940757203E+02 -0.13644280746E+02  0.44447773189E+02  0.00000000000E+00 0. -1.
          1    1    1    2  502    0  0.38549160395E+02  0.88884758919E+02  0.45025448288E+03  0.46056013450E+03  0.00000000000E+00 0. -1.
         22    1    3    3    0    0 -0.10179520282E+03 -0.86745342749E+02  0.27170785641E+03  0.30284018400E+03  0.00000000000E+00 0.  1.
         22    1    3    3    0    0  0.37998009933E+02 -0.36080173373E+02  0.91160299575E+02  0.10514669699E+03  0.00000000000E+00 0.  1.
</event>
<event>
 7    1  0.5736319E-006  0.7269767E+02  0.7818608E-02  0.1506695E+00
          2   -1    0    0  502    0  0.00000000000E+00  0.00000000000E+00  0.40422078544E+03  0.40422078544E+03  0.00000000000E+00 0. -1.
          1   -1    0    0  501    0 -0.00000000000E+00 -0.00000000000E+00 -0.10675886382E+04  0.10675886382E+04  0.00000000000E+00 0. -1.
         25    2    1    2    0    0 -0.16556027859E+02 -0.90261524148E+02 -0.26983387559E+03  0.31121820640E+03  0.12500082713E+03 0.  0.
          2    1    1    2  501    0 -0.60566774888E+01  0.21396467381E+02 -0.77347677375E+03  0.77379636319E+03  0.00000000000E+00 0. -1.
          1    1    1    2  502    0  0.22612705347E+02  0.68865056767E+02  0.37994279655E+03  0.38679485408E+03  0.00000000000E+00 0. -1.
         22    1    3    3    0    0 -0.70939581952E+02 -0.54821639535E+02 -0.14400733912E+03  0.16963475519E+03  0.00000000000E+00 0. -1.
         22    1    3    3    0    0  0.54383554094E+02 -0.35439884613E+02 -0.12582653646E+03  0.14158345121E+03  0.00000000000E+00 0. -1.
</event>
<event>
 7    1  0.8777422E-006  0.5300656E+02  0.7818608E-02  0.1444825E+00
          2   -1    0    0  502    0  0.00000000000E+00  0.00000000000E+00  0.10871233650E+04  0.10871233650E+04  0.00000000000E+00 0. -1.
          1   -1    0    0  501    0 -0.00000000000E+00 -0.00000000000E+00 -0.11743726234E+04  0.11743726234E+04  0.00000000000E+00 0. -1.
         25    2    1    2    0    0 -0.15600267577E+02  0.59038819881E+02 -0.33685290961E+03  0.36444896375E+03  0.12499685543E+03 0.  0.
          2    1    1    2  501    0 -0.31735856656E+02 -0.35133788958E+02 -0.82238540731E+03  0.82374711282E+03  0.00000000000E+00 0. -1.
          1    1    1    2  502    0  0.47336124233E+02 -0.23905030923E+02  0.10719890585E+04  0.10732999118E+04  0.00000000000E+00 0. -1.
         22    1    3    3    0    0 -0.45296247045E+02 -0.23750405793E+02 -0.12656932663E+03  0.13651236653E+03  0.00000000000E+00 0. -1.
         22    1    3    3    0    0  0.29695979468E+02  0.82789225675E+02 -0.21028358298E+03  0.22793659722E+03  0.00000000000E+00 0. -1.
</event>
<event>
 7    1  0.5736319E-006  0.5574936E+02  0.7818608E-02  0.1485515E+00
          2   -1    0    0  502    0  0.00000000000E+00  0.00000000000E+00  0.20369473377E+04  0.20369473377E+04  0.00000000000E+00 0. -1.
          1   -1    0    0  501    0 -0.00000000000E+00 -0.00000000000E+00 -0.47895378369E+02  0.47895378369E+02  0.00000000000E+00 0. -1.
         25    2    1    2    0    0 -0.24612642204E+02 -0.50069952700E+02  0.41571811548E+03  0.43767521339E+03  0.12500103424E+03 0.  0.
          2    1    1    2  501    0  0.49202092520E+02  0.27221095649E+02 -0.15224329851E+02  0.58254735225E+02  0.00000000000E+00 0. -1.
          1    1    1    2  502    0 -0.24589450317E+02  0.22848857052E+02  0.15885581737E+04  0.15889127674E+04  0.00000000000E+00 0. -1.
         22    1    3    3    0    0  0.24662173079E+02 -0.54393526548E+02  0.35190018419E+03  0.35693223186E+03  0.00000000000E+00 0. -1.
         22    1    3    3    0    0 -0.49274815282E+02  0.43235738476E+01  0.63817931295E+02  0.80742981532E+02  0.00000000000E+00 0. -1.
</event>
<event>
 7    1  0.5736319E-006  0.1051888E+03  0.7818608E-02  0.1341004E+00
          2   -1    0    0  502    0  0.00000000000E+00  0.00000000000E+00  0.15947565725E+04  0.15947565725E+04  0.00000000000E+00 0. -1.
          1   -1    0    0  501    0 -0.00000000000E+00 -0.00000000000E+00 -0.30002268882E+03  0.30002268882E+03  0.00000000000E+00 0. -1.
         25    2    1    2    0    0  0.42217006761E+02 -0.36028505801E+02  0.23771257587E+03  0.27424856592E+03  0.12499871315E+03 0.  0.
          2    1    1    2  501    0 -0.95555952186E+02  0.48662250059E+02 -0.27096579411E+03  0.29141279339E+03  0.00000000000E+00 0. -1.
          1    1    1    2  502    0  0.53338945425E+02 -0.12633744257E+02  0.13279871019E+04  0.13291179020E+04  0.00000000000E+00 0. -1.
         22    1    3    3    0    0  0.21030340494E+02  0.17611826952E+01 -0.95893896822E+01  0.23180452546E+02  0.00000000000E+00 0.  1.
         22    1    3    3    0    0  0.21186666267E+02 -0.37789688497E+02  0.24730196556E+03  0.25106811337E+03  0.00000000000E+00 0.  1.
</event>
<event>
 7    1  0.5736319E-006  0.1131791E+03  0.7818608E-02  0.1361693E+00
          2   -1    0    0  502    0  0.00000000000E+00  0.00000000000E+00  0.30546087479E+03  0.30546087479E+03  0.00000000000E+00 0. -1.
          1   -1    0    0  501    0 -0.00000000000E+00 -0.00000000000E+00 -0.66966373969E+03  0.66966373969E+03  0.00000000000E+00 0. -1.
         25    2    1    2    0    0  0.44690292967E+02  0.13614513320E+03 -0.20865186222E+03  0.28229974917E+03  0.12499931677E+03 0.  0.
          2    1    1    2  501    0 -0.34877131815E+02 -0.24664093364E+02 -0.41137837748E+03  0.41359025772E+03  0.00000000000E+00 0. -1.
          1    1    1    2  502    0 -0.98131611520E+01 -0.11148103984E+03  0.25582737480E+03  0.27923460758E+03  0.00000000000E+00 0. -1.
         22    1    3    3    0    0  0.70602696527E+02  0.13051266003E+03 -0.20833944945E+03  0.25578041634E+03  0.00000000000E+00 0. -1.
         22    1    3    3    0    0 -0.25912403560E+02  0.56324731754E+01 -0.31241277268E+00  0.26519332836E+02  0.00000000000E+00 0. -1.
</event>
<event>
 7    1  0.5736319E-006  0.1230001E+03  0.7818608E-02  0.1282559E+00
          2   -1    0    0  502    0  0.00000000000E+00  0.00000000000E+00  0.13307132602E+04  0.13307132602E+04  0.00000000000E+00 0. -1.
          1   -1    0    0  501    0 -0.00000000000E+00 -0.00000000000E+00 -0.60089261668E+02  0.60089261668E+02  0.00000000000E+00 0. -1.
         25    2    1    2    0    0 -0.93501906906E+01  0.40466630811E+01  0.50001495451E+03  0.51550336955E+03  0.12499987092E+03 0.  0.
          2    1    1    2  501    0 -0.10900760135E+03  0.56976894441E+02  0.35209262004E+02  0.12794028210E+03  0.00000000000E+00 0. -1.
          1    1    1    2  502    0  0.11835779204E+03 -0.61023557522E+02  0.73539978201E+03  0.74735887022E+03  0.00000000000E+00 0. -1.
         22    1    3    3    0    0  0.24026682785E+02  0.47001300182E+02  0.11344319049E+03  0.12512298419E+03  0.00000000000E+00 0. -1.
         22    1    3    3    0    0 -0.33376873476E+02 -0.42954637101E+02  0.38657176403E+03  0.39038038536E+03  0.00000000000E+00 0. -1.
</event>
<event>
 7    1  0.5736319E-006  0.9376383E+02  0.7818608E-02  0.1335596E+00
          2   -1    0    0  502    0  0.00000000000E+00  0.00000000000E+00  0.21486146432E+03  0.21486146432E+03  0.00000000000E+00 0. -1.
          1   -1    0    0  501    0 -0.00000000000E+00 -0.00000000000E+00 -0.48669691228E+03  0.48669691228E+03  0.00000000000E+00 0. -1.
         25    2    1    2    0    0 -0.44156798425E+02  0.29032903323E+02 -0.27201413516E+03  0.30398968549E+03  0.12500122735E+03 0.  0.
          2    1    1    2  501    0 -0.51256312264E+02 -0.39073387017E+02 -0.18123188780E+03  0.19235107557E+03  0.00000000000E+00 0. -1.
          1    1    1    2  502    0  0.95413110689E+02  0.10040483693E+02  0.18141057499E+03  0.20521761553E+03  0.00000000000E+00 0. -1.
         22    1    3    3    0    0  0.89890670312E+01  0.60590115476E+02 -0.71421737722E+02  0.94090541707E+02  0.00000000000E+00 0.  1.
         22    1    3    3    0    0 -0.53145865456E+02 -0.31557212153E+02 -0.20059239743E+03  0.20989914379E+03  0.00000000000E+00 0.  1.
</event>
<event>
 7    1  0.5736319E-006  0.2716245E+03  0.7818608E-02  0.1222511E+00
          2   -1    0    0  502    0  0.00000000000E+00  0.00000000000E+00  0.23157537248E+03  0.23157537248E+03  0.00000000000E+00 0. -1.
          1   -1    0    0  501    0 -0.00000000000E+00 -0.00000000000E+00 -0.16499570277E+04  0.16499570277E+04  0.00000000000E+00 0. -1.
         25    2    1    2    0    0 -0.57364587493E+02  0.26534785006E+03 -0.23763925365E+03  0.38183449614E+03  0.12499996054E+03 0.  0.
          2    1    1    2  501    0 -0.62632806894E+02 -0.19184902017E+02 -0.12211272746E+04  0.12228829665E+04  0.00000000000E+00 0. -1.
          1    1    1    2  502    0  0.11999739439E+03 -0.24616294804E+03  0.40384873080E+02  0.27681493750E+03  0.00000000000E+00 0. -1.
         22    1    3    3    0    0  0.38732390415E+02  0.84242965967E+02 -0.89725252339E+02  0.12902595200E+03  0.00000000000E+00 0.  1.
         22    1    3    3    0    0 -0.96096977908E+02  0.18110488409E+03 -0.14791400131E+03  0.25280854414E+03  0.00000000000E+00 0.  1.
</event>
<event>
 7    1  0.5736319E-006  0.2289344E+03  0.7818608E-02  0.1215709E+00
          2   -1    0    0  502    0  0.00000000000E+00  0.00000000000E+00  0.13592387271E+04  0.13592387271E+04  0.00000000000E+00 0. -1.
          1   -1    0    0  501    0 -0.00000000000E+00 -0.00000000000E+00 -0.29883619402E+03  0.29883619402E+03  0.00000000000E+00 0. -1.
         25    2    1    2    0    0  0.20208929302E+03 -0.24359206661E+02  0.77457193039E+03  0.81056778833E+03  0.12500004326E+03 0.  0.
          2    1    1    2  501    0 -0.22434405742E+03 -0.56102252433E+02 -0.22929588118E+03  0.32565982245E+03  0.00000000000E+00 0. -1.
          1    1    1    2  502    0  0.22254764396E+02  0.80461459095E+02  0.51512648390E+03  0.52184731038E+03  0.00000000000E+00 0. -1.
         22    1    3    3    0    0  0.11986623400E+03  0.16669847235E+02  0.24701418136E+03  0.27506690759E+03  0.00000000000E+00 0.  1.
         22    1    3    3    0    0  0.82223059022E+02 -0.41029053897E+02  0.52755774904E+03  0.53550088073E+03  0.00000000000E+00 0.  1.
</event>
<event>
 7    1  0.5736319E-006  0.1212900E+03  0.7818608E-02  0.1314623E+00
          2   -1    0    0  502    0  0.00000000000E+00  0.00000000000E+00  0.19835373140E+03  0.19835373140E+03  0.00000000000E+00 0. -1.
          1   -1    0    0  501    0 -0.00000000000E+00 -0.00000000000E+00 -0.17465245649E+04  0.17465245649E+04  0.00000000000E+00 0. -1.
         25    2    1    2    0    0 -0.92571553160E+02 -0.21434292616E+02  0.12580224031E+02  0.15751180005E+03  0.12499113474E+03 0.  0.
          2    1    1    2  501    0 -0.45736888004E+02  0.38840102345E+02 -0.16304222371E+04  0.16315259997E+04  0.00000000000E+00 0. -1.
          1    1    1    2  502    0  0.13830844116E+03 -0.17405809730E+02  0.69671179549E+02  0.15584049656E+03  0.00000000000E+00 0. -1.
         22    1    3    3    0    0 -0.57320444767E+02 -0.69295927509E+02  0.31251474280E+02  0.95206163679E+02  0.00000000000E+00 0.  1.
         22    1    3    3    0    0 -0.35251108393E+02  0.47861634894E+02 -0.18671250249E+02  0.62305636370E+02  0.00000000000E+00 0.  1.
</event>
<event>
 7    1  0.5736319E-006  0.6136663E+03  0.7818608E-02  0.1217565E+00
          2   -1    0    0  502    0  0.00000000000E+00  0.00000000000E+00  0.94327021814E+03  0.94327021814E+03  0.00000000000E+00 0. -1.
          1   -1    0    0  501    0 -0.00000000000E+00 -0.00000000000E+00 -0.83285729752E+03  0.83285729752E+03  0.00000000000E+00 0. -1.
         25    2    1    2    0    0  0.55737377473E+03 -0.29780670400E+03 -0.15417623588E+02  0.64437314771E+03  0.12499877070E+03 0.  0.
          2    1    1    2  501    0 -0.30526087459E+02 -0.90500637294E+00 -0.35632314148E+03  0.35762947614E+03  0.00000000000E+00 0. -1.
          1    1    1    2  502    0 -0.52684768727E+03  0.29871171037E+03  0.48215368568E+03  0.77412489180E+03  0.00000000000E+00 0. -1.
         22    1    3    3    0    0  0.35219007281E+03 -0.17987545230E+03  0.50568892772E+02  0.39868563888E+03  0.00000000000E+00 0.  1.
         22    1    3    3    0    0  0.20518370191E+03 -0.11793125170E+03 -0.65986516360E+02  0.24568750884E+03  0.00000000000E+00 0.  1.
</event>
<event>
 7    1  0.5736319E-006  0.3676888E+02  0.7818608E-02  0.1610828E+00
          2   -1    0    0  502    0  0.00000000000E+00  0.00000000000E+00  0.25368335387E+04  0.25368335387E+04  0.00000000000E+00 0. -1.
          1   -1    0    0  501    0 -0.00000000000E+00 -0.00000000000E+00 -0.25042232336E+03  0.25042232336E+03  0.00000000000E+00 0. -1.
         25    2    1    2    0    0  0.27693063577E+02  0.20614553040E+02  0.14113245092E+04  0.14172694613E+04  0.12499596024E+03 0.  0.
          2    1    1    2  501    0 -0.10390586598E+02 -0.35279428503E+02 -0.24596796229E+03  0.24870231370E+03  0.00000000000E+00 0. -1.
          1    1    1    2  502    0 -0.17302476979E+02  0.14664875463E+02  0.11210546685E+04  0.11212840871E+04  0.00000000000E+00 0. -1.
         22    1    3    3    0    0  0.31771558314E+02 -0.33783126881E+02  0.22697673127E+03  0.23166607028E+03  0.00000000000E+00 0. -1.
         22    1    3    3    0    0 -0.40784947368E+01  0.54397679921E+02  0.11843477779E+04  0.11856033910E+04  0.00000000000E+00 0. -1.
</event>
<event>
 7    1  0.5736319E-006  0.6840368E+02  0.7818608E-02  0.1451658E+00
          2   -1    0    0  502    0  0.00000000000E+00  0.00000000000E+00  0.57767281586E+03  0.57767281586E+03  0.00000000000E+00 0. -1.
          1   -1    0    0  501    0 -0.00000000000E+00 -0.00000000000E+00 -0.18137660015E+03  0.18137660015E+03  0.00000000000E+00 0. -1.
         25    2    1    2    0    0 -0.25896749401E+02  0.22942185593E+02  0.42188588246E+03  0.44137406542E+03  0.12500552905E+03 0.  0.
          2    1    1    2  501    0  0.45603836190E+02 -0.51724390535E+02 -0.16242872036E+03  0.17646022682E+03  0.00000000000E+00 0. -1.
          1    1    1    2  502    0 -0.19707086789E+02  0.28782204942E+02  0.13683905361E+03  0.14121512378E+03  0.00000000000E+00 0. -1.
         22    1    3    3    0    0  0.22746364957E+02  0.60504105389E+02  0.26765104271E+03  0.27534564560E+03  0.00000000000E+00 0. -1.
         22    1    3    3    0    0 -0.48643114358E+02 -0.37561919796E+02  0.15423483975E+03  0.16602841982E+03  0.00000000000E+00 0. -1.
</event>
<event>
 7    1  0.5736319E-006  0.1255078E+03  0.7818608E-02  0.1278291E+00
          2   -1    0    0  502    0  0.00000000000E+00  0.00000000000E+00  0.14339938563E+03  0.14339938563E+03  0.00000000000E+00 0. -1.
          1   -1    0    0  501    0 -0.00000000000E+00 -0.00000000000E+00 -0.91829153431E+03  0.91829153431E+03  0.00000000000E+00 0. -1.
         25    2    1    2    0    0 -0.18714754612E+03 -0.65372651034E+02 -0.88237537013E+02  0.25041722195E+03  0.12500053836E+03 0.  0.
          2    1    1    2  501    0  0.11930627488E+03  0.20729012847E+02 -0.71505677436E+03  0.72523780222E+03  0.00000000000E+00 0. -1.
          1    1    1    2  502    0  0.67841271242E+02  0.44643638187E+02  0.28402162705E+02  0.86035895768E+02  0.00000000000E+00 0. -1.
         22    1    3    3    0    0 -0.52406650297E+02 -0.25968178312E+02  0.31030028579E+02  0.66209258823E+02  0.00000000000E+00 0.  1.
         22    1    3    3    0    0 -0.13474089583E+03 -0.39404472722E+02 -0.11926756559E+03  0.18420796313E+03  0.00000000000E+00 0.  1.
</event>
<event>
 7    1  0.5736319E-006  0.4764008E+02  0.7818608E-02  0.1466324E+00
          2   -1    0    0  502    0  0.00000000000E+00  0.00000000000E+00  0.20784646758E+04  0.20784646758E+04  0.00000000000E+00 0. -1.
          1   -1    0    0  501    0 -0.00000000000E+00 -0.00000000000E+00 -0.14254330283E+03  0.14254330283E+03  0.00000000000E+00 0. -1.
         25    2    1    2    0    0 -0.40516610609E+02 -0.18523490823E+02 -0.17956286919E+02  0.13390901010E+03  0.12499791717E+03 0.  0.
          2    1    1    2  501    0  0.34570728289E+02 -0.28834811953E+02 -0.58689183015E+02  0.73966220924E+02  0.00000000000E+00 0. -1.
          1    1    1    2  502    0  0.59458823194E+01  0.47358302775E+02  0.20125668429E+04  0.20131327476E+04  0.00000000000E+00 0. -1.
         22    1    3    3    0    0  0.30356073062E+02  0.17289607210E+02 -0.38399075453E+02  0.51912529170E+02  0.00000000000E+00 0. -1.
         22    1    3    3    0    0 -0.70872683670E+02 -0.35813098032E+02  0.20442788534E+02  0.81996480927E+02  0.00000000000E+00 0. -1.
</event>
<event>
 7    1  0.5736319E-006  0.4867503E+02  0.7818608E-02  0.1481055E+00
          2   -1    0    0  502    0  0.00000000000E+00  0.00000000000E+00  0.69594501754E+03  0.69594501754E+03  0.00000000000E+00 0. -1.
          1   -1    0    0  501    0 -0.00000000000E+00 -0.00000000000E+00 -0.40500742070E+02  0.40500742070E+02  0.00000000000E+00 0. -1.
         25    2    1    2    0    0 -0.34194059074E+02 -0.66091584880E+00  0.44158485502E+03  0.46020735549E+03  0.12499582146E+03 0.  0.
          2    1    1    2  501    0  0.31347141871E+02 -0.38906442963E+02 -0.82274558458E+01  0.50636406243E+02  0.00000000000E+00 0. -1.
          1    1    1    2  502    0  0.28469172039E+01  0.39567358812E+02  0.22208687630E+03  0.22560199787E+03  0.00000000000E+00 0. -1.
         22    1    3    3    0    0 -0.53795707166E+02  0.24821807236E+02  0.93827730528E+02  0.11096730708E+03  0.00000000000E+00 0.  1.
         22    1    3    3    0    0  0.19601648092E+02 -0.25482723085E+02  0.34775712449E+03  0.34924004842E+03  0.00000000000E+00 0.  1.
</event>
<event>
 7    1  0.5736319E-006  0.1248401E+03  0.7818608E-02  0.1302507E+00
          2   -1    0    0  502    0  0.00000000000E+00  0.00000000000E+00  0.15032458382E+04  0.15032458382E+04  0.00000000000E+00 0. -1.
          1   -1    0    0  501    0 -0.00000000000E+00 -0.00000000000E+00 -0.50007326040E+02  0.50007326040E+02  0.00000000000E+00 0. -1.
         25    2    1    2    0    0 -0.78708461598E+02  0.22609821856E+02  0.45561367283E+03  0.47949450667E+03  0.12499974834E+03 0.  0.
          2    1    1    2  501    0 -0.49988544281E+02  0.41684983527E+02 -0.72921689575E+00  0.65092427887E+02  0.00000000000E+00 0. -1.
          1    1    1    2  502    0  0.12869700588E+03 -0.64294805383E+02  0.99835405626E+03  0.10086662297E+04  0.00000000000E+00 0. -1.
         22    1    3    3    0    0 -0.93427686836E+02  0.58139337836E+02  0.35978647905E+03  0.37623825666E+03  0.00000000000E+00 0.  1.
         22    1    3    3    0    0  0.14719225238E+02 -0.35529515980E+02  0.95827193787E+02  0.10325625001E+03  0.00000000000E+00 0.  1.
</event>
<event>
 7    1  0.5736319E-006  0.4448828E+02  0.7818608E-02  0.1488036E+00
          2   -1    0    0  502    0  0.00000000000E+00  0.00000000000E+00  0.47198710467E+02  0.47198710467E+02  0.00000000000E+00 0. -1.
          1   -1    0    0  501    0 -0.00000000000E+00 -0.00000000000E+00 -0.54741106646E+03  0.54741106646E+03  0.00000000000E+00 0. -1.
         25    2    1    2    0    0 -0.24020116828E+02  0.16020795908E+02 -0.44042522234E+03  0.45872755963E+03  0.12499186207E+03 0.  0.
          2    1    1    2  501    0  0.29179464966E+02  0.29266359466E+02 -0.76813842187E+02  0.87225726272E+02  0.00000000000E+00 0. -1.
          1    1    1    2  502    0 -0.51593481375E+01 -0.45287155374E+02  0.17026708531E+02  0.48656491021E+02  0.00000000000E+00 0. -1.
         22    1    3    3    0    0  0.16593460230E+02  0.46861216329E+02 -0.36055189369E+03  0.36396288899E+03  0.00000000000E+00 0. -1.
         22    1    3    3    0    0 -0.40613577058E+02 -0.30840420420E+02 -0.79873328647E+02  0.94764670644E+02  0.00000000000E+00 0. -1.
</event>
<event>
 7    1  0.5736319E-006  0.1093522E+03  0.7818608E-02  0.1300633E+00
          2   -1    0    0  502    0  0.00000000000E+00  0.00000000000E+00  0.27662330022E+03  0.27662330022E+03  0.00000000000E+00 0. -1.
          1   -1    0    0  501    0 -0.00000000000E+00 -0.00000000000E+00 -0.23298917887E+03  0.23298917887E+03  0.00000000000E+00 0. -1.
         25    2    1    2    0    0  0.11441662593E+03  0.84012331155E+02 -0.64817410362E+02  0.19993850591E+03  0.12499949354E+03 0.  0.
          2    1    1    2  501    0 -0.39394784087E+02 -0.93336756951E+02 -0.65064758506E+02  0.12040399499E+03  0.00000000000E+00 0. -1.
          1    1    1    2  502    0 -0.75021841843E+02  0.93244257953E+01  0.17351629021E+03  0.18926997818E+03  0.00000000000E+00 0. -1.
         22    1    3    3    0    0  0.66009977406E+02  0.69888827504E+02 -0.99797246230E+02  0.13856859558E+03  0.00000000000E+00 0.  1.
         22    1    3    3    0    0  0.48406648524E+02  0.14123503651E+02  0.34979835868E+02  0.61369910331E+02  0.00000000000E+00 0.  1.
</event>
<event>
 7    1  0.5736319E-006  0.4462663E+02  0.7818608E-02  0.1509868E+00
          2   -1    0    0  502    0  0.00000000000E+00  0.00000000000E+00  0.22662526416E+04  0.22662526416E+04  0.00000000000E+00 0. -1.
          1   -1    0    0  501    0 -0.00000000000E+00 -0.00000000000E+00 -0.11575725519E+04  0.11575725519E+04  0.00000000000E+00 0. -1.
         25    2    1    2    0    0 -0.18083508643E+02  0.49977118341E+02  0.49139159062E+03  0.50981790251E+03  0.12499549091E+03 0.  0.
          2    1    1    2  501    0  0.39136618467E+02 -0.21452909902E+02 -0.11477476835E+04  0.11486150996E+04  0.00000000000E+00 0. -1.
          1    1    1    2  502    0 -0.21053109824E+02 -0.28524208439E+02  0.17650361825E+04  0.17653921914E+04  0.00000000000E+00 0. -1.
         22    1    3    3    0    0  0.39562842214E+02  0.52362546010E+02  0.36536474656E+03  0.37121213980E+03  0.00000000000E+00 0. -1.
         22    1    3    3    0    0 -0.57646350857E+02 -0.23854276686E+01  0.12602684406E+03  0.13860576271E+03  0.00000000000E+00 0. -1.
</event>
<event>
 7    1  0.5736319E-006  0.1067956E+03  0.7818608E-02  0.1379985E+00
          2   -1    0    0  502    0  0.00000000000E+00  0.00000000000E+00  0.21183123827E+04  0.21183123827E+04  0.00000000000E+00 0. -1.
          1   -1    0    0  501    0 -0.00000000000E+00 -0.00000000000E+00 -0.52683786527E+03  0.52683786527E+03  0.00000000000E+00 0. -1.
         25    2    1    2    0    0  0.81704915338E+02 -0.16891721401E+02  0.40970049760E+03  0.43639634206E+03  0.12500498466E+03 0.  0.
          2    1    1    2  501    0  0.15293202306E+02 -0.35785552374E+02 -0.51095251700E+03  0.51243239791E+03  0.00000000000E+00 0. -1.
          1    1    1    2  502    0 -0.96998117644E+02  0.52677273775E+02  0.16927265368E+04  0.16963215080E+04  0.00000000000E+00 0. -1.
         22    1    3    3    0    0  0.29144636075E+02  0.53847204443E+02  0.14451814619E+03  0.15695357854E+03  0.00000000000E+00 0.  1.
         22    1    3    3    0    0  0.52560279263E+02 -0.70738925844E+02  0.26518235141E+03  0.27944276352E+03  0.00000000000E+00 0.  1.
</event>
<event>
 7    1  0.5736319E-006  0.9929202E+02  0.7818608E-02  0.1284054E+00
          2   -1    0    0  502    0  0.00000000000E+00  0.00000000000E+00  0.16750198438E+03  0.16750198438E+03  0.00000000000E+00 0. -1.
          1   -1    0    0  501    0 -0.00000000000E+00 -0.00000000000E+00 -0.14166279504E+04  0.14166279504E+04  0.00000000000E+00 0. -1.
         25    2    1    2    0    0  0.53707113686E+02  0.59419830965E+02  0.18638093919E+02  0.14962828231E+03  0.12500429573E+03 0.  0.
          2    1    1    2  501    0  0.72144067831E+02 -0.68221250838E+02 -0.13004039531E+04  0.13041891530E+04  0.00000000000E+00 0. -1.
          1    1    1    2  502    0 -0.12585118152E+03  0.88014198729E+01  0.32639893188E+02  0.13031249943E+03  0.00000000000E+00 0. -1.
         22    1    3    3    0    0  0.83143144249E+02  0.67752204748E+02  0.37580400054E+02  0.11364607407E+03  0.00000000000E+00 0.  1.
         22    1    3    3    0    0 -0.29436030564E+02 -0.83323737825E+01 -0.18942306135E+02  0.35982208241E+02  0.00000000000E+00 0.  1.
</event>
<event>
 7    1  0.5736319E-006  0.1047877E+03  0.7818608E-02  0.1381979E+00
          2   -1    0    0  502    0  0.00000000000E+00  0.00000000000E+00  0.39106180108E+02  0.39106180108E+02  0.00000000000E+00 0. -1.
          1   -1    0    0  501    0 -0.00000000000E+00 -0.00000000000E+00 -0.80900589993E+03  0.80900589993E+03  0.00000000000E+00 0. -1.
         25    2    1    2    0    0  0.88302898317E+02  0.14578804612E+02 -0.21638310188E+03  0.26543650262E+03  0.12499978700E+03 0.  0.
          2    1    1    2  501    0  0.28989245797E+02  0.26123422241E+02 -0.27480678937E+03  0.27756365224E+03  0.00000000000E+00 0. -1.
          1    1    1    2  502    0 -0.11729214411E+03 -0.40702226853E+02 -0.27870982857E+03  0.30511192517E+03  0.00000000000E+00 0. -1.
         22    1    3    3    0    0  0.79553021393E+02  0.22669895451E+02 -0.46025017404E+02  0.94662081107E+02  0.00000000000E+00 0.  1.
         22    1    3    3    0    0  0.87498769240E+01 -0.80910908385E+01 -0.17035808448E+03  0.17077442152E+03  0.00000000000E+00 0.  1.
</event>
<event>
 7    1  0.5736319E-006  0.6564333E+02  0.7818608E-02  0.1395013E+00
          2   -1    0    0  502    0  0.00000000000E+00  0.00000000000E+00  0.29609755114E+03  0.29609755114E+03  0.00000000000E+00 0. -1.
          1   -1    0    0  501    0 -0.00000000000E+00 -0.00000000000E+00 -0.12001351316E+04  0.12001351316E+04  0.00000000000E+00 0. -1.
         25    2    1    2    0    0  0.83765451888E+02 -0.38307499422E+02 -0.27478429436E+03  0.31561232123E+03  0.12498245254E+03 0.  0.
          2    1    1    2  501    0 -0.30982438754E+02  0.57271516530E+02 -0.90089693854E+03  0.90324704926E+03  0.00000000000E+00 0. -1.
          1    1    1    2  502    0 -0.52783013134E+02 -0.18964017108E+02  0.27164365246E+03  0.27737331224E+03  0.00000000000E+00 0. -1.
         22    1    3    3    0    0  0.27344221542E+02  0.22235567355E+02 -0.20306925420E+03  0.20610494635E+03  0.00000000000E+00 0. -1.
         22    1    3    3    0    0  0.56421230345E+02 -0.60543066777E+02 -0.71715040161E+02  0.10950737488E+03  0.00000000000E+00 0. -1.
</event>
<event>
 7    1  0.5736319E-006  0.7133046E+02  0.7818608E-02  0.1373494E+00
          2   -1    0    0  502    0  0.00000000000E+00  0.00000000000E+00  0.32731510835E+04  0.32731510835E+04  0.00000000000E+00 0. -1.
          1   -1    0    0  501    0 -0.00000000000E+00 -0.00000000000E+00 -0.25914199071E+03  0.25914199071E+03  0.00000000000E+00 0. -1.
         25    2    1    2    0    0 -0.32657882671E+02 -0.75071034620E+02  0.24534097077E+03  0.28724919211E+03  0.12497083216E+03 0.  0.
          2    1    1    2  501    0 -0.34701048862E+02  0.50712511659E+02 -0.23379044848E+03  0.24173103944E+03  0.00000000000E+00 0. -1.
          1    1    1    2  502    0  0.67358931533E+02  0.24358522961E+02  0.30024585705E+04  0.30033128426E+04  0.00000000000E+00 0. -1.
         22    1    3    3    0    0  0.35668023414E+02  0.15608899024E+01  0.12015356653E+03  0.12534561748E+03  0.00000000000E+00 0.  1.
         22    1    3    3    0    0 -0.68325906085E+02 -0.76631924522E+02  0.12518740424E+03  0.16190357463E+03  0.00000000000E+00 0.  1.
</event>
<event>
 7    1  0.5736319E-006  0.1895080E+03  0.7818608E-02  0.1348380E+00
          2   -1    0    0  502    0  0.00000000000E+00  0.00000000000E+00  0.13476197064E+04  0.13476197064E+04  0.00000000000E+00 0. -1.
          1   -1    0    0  501    0 -0.00000000000E+00 -0.00000000000E+00 -0.10006695102E+04  0.10006695102E+04  0.00000000000E+00 0. -1.
         25    2    1    2    0    0 -0.19054449879E+03  0.99552244732E+01 -0.28977810512E+03  0.36878557533E+03  0.12500055141E+03 0.  0.
          2    1    1    2  501    0  0.48866088153E+01  0.28134360965E+02 -0.66421451807E+03  0.66482805840E+03  0.00000000000E+00 0. -1.
          1    1    1    2  502    0  0.18565788998E+03 -0.38089585438E+02  0.13009428194E+04  0.13146755828E+04  0.00000000000E+00 0. -1.
         22    1    3    3    0    0 -0.72776215033E+01  0.25611282710E+02 -0.10400781218E+03  0.10736166248E+03  0.00000000000E+00 0.  1.
         22    1    3    3    0    0 -0.18326687729E+03 -0.15656058237E+02 -0.18577029294E+03  0.26142391285E+03  0.00000000000E+00 0.  1.
</event>
<event>
 7    1  0.5736319E-006  0.6821738E+02  0.7818608E-02  0.1366478E+00
          2   -1    0    0  502    0  0.00000000000E+00  0.00000000000E+00  0.45900689366E+03  0.45900689366E+03  0.00000000000E+00 0. -1.
          1   -1    0    0  501    0 -0.00000000000E+00 -0.00000000000E+00 -0.38122837036E+03  0.38122837036E+03  0.00000000000E+00 0. -1.
         25    2    1    2    0    0  0.95483613853E+01  0.46654473266E+01  0.97300293990E+01  0.12582821468E+03  0.12500051414E+03 0.  0.
          2    1    1    2  501    0  0.50427332658E+00 -0.72014252942E+02 -0.31613577453E+03  0.32423469101E+03  0.00000000000E+00 0. -1.
          1    1    1    2  502    0 -0.10052634712E+02  0.67348805615E+02  0.38418426844E+03  0.39017235832E+03  0.00000000000E+00 0. -1.
         22    1    3    3    0    0  0.52113334953E+02 -0.21515235087E+02 -0.28249682764E+02  0.63061474745E+02  0.00000000000E+00 0.  1.
         22    1    3    3    0    0 -0.42564973568E+02  0.26180682414E+02  0.37979712163E+02  0.62766739938E+02  0.00000000000E+00 0.  1.
</event>
<event>
 7    1  0.5736319E-006  0.6705328E+02  0.7818608E-02  0.1440746E+00
          2   -1    0    0  502    0  0.00000000000E+00  0.00000000000E+00  0.13457628683E+04  0.13457628683E+04  0.00000000000E+00 0. -1.
          1   -1    0    0  501    0 -0.00000000000E+00 -0.00000000000E+00 -0.11178081446E+03  0.11178081446E+03  0.00000000000E+00 0. -1.
         25    2    1    2    0    0  0.68487521480E+02  0.36398136585E+02  0.36242787657E+03  0.39114443196E+03  0.12499854396E+03 0.  0.
          2    1    1    2  501    0 -0.32820121837E+02  0.20280570607E+02 -0.92395147496E+02  0.10012654604E+03  0.00000000000E+00 0. -1.
          1    1    1    2  502    0 -0.35667399643E+02 -0.56678707193E+02  0.96394932474E+03  0.96627270473E+03  0.00000000000E+00 0. -1.
         22    1    3    3    0    0  0.99727962933E+02  0.33584757574E+02  0.32847851045E+03  0.34492279478E+03  0.00000000000E+00 0.  1.
         22    1    3    3    0    0 -0.31240441453E+02  0.28133790112E+01  0.33949366123E+02  0.46221637182E+02  0.00000000000E+00 0.  1.
</event>
<event>
 7    1  0.9124231E-006  0.1121666E+03  0.7818608E-02  0.1354142E+00
          2   -1    0    0  502    0  0.00000000000E+00  0.00000000000E+00  0.13874447435E+04  0.13874447435E+04  0.00000000000E+00 0. -1.
          1   -1    0    0  501    0 -0.00000000000E+00 -0.00000000000E+00 -0.11624274691E+04  0.11624274691E+04  0.00000000000E+00 0. -1.
         25    2    1    2    0    0  0.75616238914E+02  0.30798516130E+02 -0.92903298270E+02  0.17584717610E+03  0.12499936931E+03 0.  0.
          2    1    1    2  501    0  0.76399018049E+01  0.45295444255E+02 -0.10251740770E+04  0.10262026767E+04  0.00000000000E+00 0. -1.
          1    1    1    2  502    0 -0.83256140719E+02 -0.76093960386E+02  0.13430946496E+04  0.13478223598E+04  0.00000000000E+00 0. -1.
         22    1    3    3    0    0  0.93839282253E+01 -0.43345050329E+02 -0.51999334872E+02  0.68343121995E+02  0.00000000000E+00 0. -1.
         22    1    3    3    0    0  0.66232310688E+02  0.74143566459E+02 -0.40903963398E+02  0.10750405410E+03  0.00000000000E+00 0. -1.
</event>
<event>
 7    1  0.5736319E-006  0.1434528E+03  0.7818608E-02  0.1219538E+00
          2   -1    0    0  502    0  0.00000000000E+00  0.00000000000E+00  0.27078323264E+04  0.27078323264E+04  0.00000000000E+00 0. -1.
          1   -1    0    0  501    0 -0.00000000000E+00 -0.00000000000E+00 -0.18343231749E+03  0.18343231749E+03  0.00000000000E+00 0. -1.
         25    2    1    2    0    0 -0.12690929872E+03  0.16601920122E+03  0.23341965810E+03  0.33731002587E+03  0.12499988594E+03 0.  0.
          2    1    1    2  501    0  0.17421722011E+01 -0.13944315681E+03 -0.92305944756E+02  0.16723581130E+03  0.00000000000E+00 0. -1.
          1    1    1    2  502    0  0.12516712652E+03 -0.26576044413E+02  0.23832862956E+04  0.23867188067E+04  0.00000000000E+00 0. -1.
         22    1    3    3    0    0 -0.13283440612E+02  0.84197796888E+02  0.15482914820E+03  0.17674213964E+03  0.00000000000E+00 0. -1.
         22    1    3    3    0    0 -0.11362585811E+03  0.81821404331E+02  0.78590509908E+02  0.16056788622E+03  0.00000000000E+00 0. -1.
</event>
<event>
 7    1  0.5736319E-006  0.1509926E+03  0.7818608E-02  0.1321562E+00
          2   -1    0    0  502    0  0.00000000000E+00  0.00000000000E+00  0.52573699762E+03  0.52573699762E+03  0.00000000000E+00 0. -1.
          1   -1    0    0  501    0 -0.00000000000E+00 -0.00000000000E+00 -0.41049795153E+03  0.41049795153E+03  0.00000000000E+00 0. -1.
         25    2    1    2    0    0  0.12163264624E+03 -0.44916243210E+02  0.14214302137E+03  0.22943667303E+03  0.12499831548E+03 0.  0.
          2    1    1    2  501    0  0.13667942523E+02 -0.43183056640E+02 -0.34612156941E+03  0.34907267129E+03  0.00000000000E+00 0. -1.
          1    1    1    2  502    0 -0.13530058876E+03  0.88099299850E+02  0.31921759413E+03  0.35772560483E+03  0.00000000000E+00 0. -1.
         22    1    3    3    0    0 -0.52985039006E+00  0.14714325665E+02  0.77543392869E+02  0.78928891407E+02  0.00000000000E+00 0. -1.
         22    1    3    3    0    0  0.12216249663E+03 -0.59630568876E+02  0.64599628499E+02  0.15050778162E+03  0.00000000000E+00 0. -1.
</event>
<event>
 7    1  0.5736319E-006  0.1118866E+03  0.7818608E-02  0.1378891E+00
          2   -1    0    0  502    0  0.00000000000E+00  0.00000000000E+00  0.44046556823E+02  0.44046556823E+02  0.00000000000E+00 0. -1.
          1   -1    0    0  501    0 -0.00000000000E+00 -0.00000000000E+00 -0.29529548827E+04  0.29529548827E+04  0.00000000000E+00 0. -1.
         25    2    1    2    0    0 -0.96352464357E+02  0.13251341107E+00 -0.69402695443E+03  0.71174577990E+03  0.12499930711E+03 0.  0.
          2    1    1    2  501    0 -0.12540863315E+02  0.35318172643E+02 -0.21562956150E+04  0.21566212987E+04  0.00000000000E+00 0. -1.
          1    1    1    2  502    0  0.10889332767E+03 -0.35450686054E+02 -0.58585756382E+02  0.12863436090E+03  0.00000000000E+00 0. -1.
         22    1    3    3    0    0 -0.11233254098E+03  0.29293051777E+02 -0.61733488783E+03  0.62815527251E+03  0.00000000000E+00 0. -1.
         22    1    3    3    0    0  0.15980076619E+02 -0.29160538366E+02 -0.76692066600E+02  0.83590507392E+02  0.00000000000E+00 0. -1.
</event>
<event>
 7    1  0.5736319E-006  0.6667262E+02  0.7818608E-02  0.1445574E+00
          2   -1    0    0  502    0  0.00000000000E+00  0.00000000000E+00  0.22354455012E+04  0.22354455012E+04  0.00000000000E+00 0. -1.
          1   -1    0    0  501    0 -0.00000000000E+00 -0.00000000000E+00 -0.12631360212E+04  0.12631360212E+04  0.00000000000E+00 0. -1.
         25    2    1    2    0    0  0.51994150284E+02  0.32220082789E+02  0.61005659757E+03  0.62572307991E+03  0.12497517791E+03 0.  0.
          2    1    1    2  501    0 -0.23176678226E+02  0.29393795612E+02 -0.12543083721E+04  0.12548667841E+04  0.00000000000E+00 0. -1.
          1    1    1    2  502    0 -0.28817472057E+02 -0.61613878401E+02  0.16165612545E+04  0.16179916583E+04  0.00000000000E+00 0. -1.
         22    1    3    3    0    0  0.75754649993E+02 -0.19016950069E+02  0.42934240651E+03  0.43638894740E+03  0.00000000000E+00 0. -1.
         22    1    3    3    0    0 -0.23760499709E+02  0.51237032858E+02  0.18071419106E+03  0.18933413251E+03  0.00000000000E+00 0. -1.
</event>
<event>
 7    1  0.5736319E-006  0.4845057E+02  0.7818608E-02  0.1457999E+00
          2   -1    0    0  502    0  0.00000000000E+00  0.00000000000E+00  0.31654133745E+03  0.31654133745E+03  0.00000000000E+00 0. -1.
          1   -1    0    0  501    0 -0.00000000000E+00 -0.00000000000E+00 -0.23128619687E+03  0.23128619687E+03  0.00000000000E+00 0. -1.
         25    2    1    2    0    0  0.12727766011E+01  0.26796012081E+01 -0.12557917578E+03  0.17721916028E+03  0.12501080416E+03 0.  0.
          2    1    1    2  501    0 -0.16999888844E+02  0.43834268982E+02 -0.70655456700E+02  0.84868326951E+02  0.00000000000E+00 0. -1.
          1    1    1    2  502    0  0.15727112243E+02 -0.46513870190E+02  0.28148977306E+03  0.28574004710E+03  0.00000000000E+00 0. -1.
         22    1    3    3    0    0 -0.38889274704E+02 -0.60091801080E+00 -0.13091611241E+03  0.13657146583E+03  0.00000000000E+00 0. -1.
         22    1    3    3    0    0  0.40162051305E+02  0.32805192189E+01  0.53369366302E+01  0.40647694448E+02  0.00000000000E+00 0. -1.
</event>
<event>
 7    1  0.5736319E-006  0.1905656E+03  0.7818608E-02  0.1220764E+00
          2   -1    0    0  502    0  0.00000000000E+00  0.00000000000E+00  0.31323352405E+04  0.31323352405E+04  0.00000000000E+00 0. -1.
          1   -1    0    0  501    0 -0.00000000000E+00 -0.00000000000E+00 -0.19335083917E+03  0.19335083917E+03  0.00000000000E+00 0. -1.
         25    2    1    2    0    0 -0.26502923090E+03 -0.42102531842E+02  0.16618390417E+04  0.16880009983E+04  0.12500101217E+03 0.  0.
          2    1    1    2  501    0  0.18796647380E+03 -0.13609735548E+02 -0.12896646546E+03  0.22836148841E+03  0.00000000000E+00 0. -1.
          1    1    1    2  502    0  0.77062757099E+02  0.55712267390E+02  0.14061118250E+04  0.14093235930E+04  0.00000000000E+00 0. -1.
         22    1    3    3    0    0 -0.10007662069E+03 -0.53152873570E+02  0.41287745255E+03  0.42814524265E+03  0.00000000000E+00 0. -1.
         22    1    3    3    0    0 -0.16495261021E+03  0.11050341728E+02  0.12489615892E+04  0.12598557556E+04  0.00000000000E+00 0. -1.
</event>
<event>
 7    1  0.5736319E-006  0.1025362E+03  0.7818608E-02  0.1301756E+00
          2   -1    0    0  502    0  0.00000000000E+00  0.00000000000E+00  0.37952000787E+03  0.37952000787E+03  0.00000000000E+00 0. -1.
          1   -1    0    0  501    0 -0.00000000000E+00 -0.00000000000E+00 -0.85337738746E+03  0.85337738746E+03  0.00000000000E+00 0. -1.
         25    2    1    2    0    0  0.15183369742E+03 -0.30739568086E+02 -0.15111924986E+03  0.24991950967E+03  0.12499736366E+03 0.  0.
          2    1    1    2  501    0 -0.96083665700E+02 -0.26349834898E+02 -0.64414973182E+03  0.65180922180E+03  0.00000000000E+00 0. -1.
          1    1    1    2  502    0 -0.55750031715E+02  0.57089402983E+02  0.32141160208E+03  0.33116866386E+03  0.00000000000E+00 0. -1.
         22    1    3    3    0    0  0.27833989942E+02 -0.16424443233E+02 -0.11575690159E+03  0.12018383252E+03  0.00000000000E+00 0. -1.
         22    1    3    3    0    0  0.12399970747E+03 -0.14315124853E+02 -0.35362348262E+02  0.12973567716E+03  0.00000000000E+00 0. -1.
</event>
<event>
 7    1  0.5736319E-006  0.2337523E+03  0.7818608E-02  0.1206771E+00
          2   -1    0    0  502    0  0.00000000000E+00  0.00000000000E+00  0.66996184987E+03  0.66996184987E+03  0.00000000000E+00 0. -1.
          1   -1    0    0  501    0 -0.00000000000E+00 -0.00000000000E+00 -0.30059140356E+03  0.30059140356E+03  0.00000000000E+00 0. -1.
         25    2    1    2    0    0 -0.10021311156E+03 -0.26294740719E+03 -0.91195127731E+02  0.32113191653E+03  0.12500059926E+03 0.  0.
          2    1    1    2  501    0  0.70640483300E+02  0.17801803885E+03  0.11964515630E+02  0.19189489225E+03  0.00000000000E+00 0. -1.
          1    1    1    2  502    0  0.29572628256E+02  0.84929368342E+02  0.44860105841E+03  0.45752644465E+03  0.00000000000E+00 0. -1.
         22    1    3    3    0    0 -0.57172021428E+02 -0.19389634540E+02 -0.22627887666E+02  0.64471848600E+02  0.00000000000E+00 0. -1.
         22    1    3    3    0    0 -0.43041090128E+02 -0.24355777265E+03 -0.68567240065E+02  0.25666006793E+03  0.00000000000E+00 0. -1.
</event>
<event>
 7    1  0.5736319E-006  0.1275869E+03  0.7818608E-02  0.1419457E+00
          2   -1    0    0  502    0  0.00000000000E+00  0.00000000000E+00  0.47965431144E+03  0.47965431144E+03  0.00000000000E+00 0. -1.
          1   -1    0    0  501    0 -0.00000000000E+00 -0.00000000000E+00 -0.16032997211E+04  0.16032997211E+04  0.00000000000E+00 0. -1.
         25    2    1    2    0    0  0.10267062823E+03 -0.60884437541E+02 -0.63963440246E+03  0.66257588569E+03  0.12500585129E+03 0.  0.
          2    1    1    2  501    0 -0.63303339435E+01 -0.22970368332E+02 -0.94333051161E+03  0.94363137140E+03  0.00000000000E+00 0. -1.
          1    1    1    2  502    0 -0.96340294282E+02  0.83854805873E+02  0.45931950441E+03  0.47674677545E+03  0.00000000000E+00 0. -1.
         22    1    3    3    0    0  0.23126321690E+02  0.38783525553E+02 -0.15468882498E+03  0.16114472124E+03  0.00000000000E+00 0. -1.
         22    1    3    3    0    0  0.79544306536E+02 -0.99667963094E+02 -0.48494557747E+03  0.50143116445E+03  0.00000000000E+00 0. -1.
</event>
<event>
 7    1  0.5736319E-006  0.1210961E+03  0.7818608E-02  0.1323189E+00
          2   -1    0    0  502    0  0.00000000000E+00  0.00000000000E+00  0.14805070378E+04  0.14805070378E+04  0.00000000000E+00 0. -1.
          1   -1    0    0  501    0 -0.00000000000E+00 -0.00000000000E+00 -0.14596830316E+03  0.14596830316E+03  0.00000000000E+00 0. -1.
         25    2    1    2    0    0  0.13192766366E+03 -0.10036078230E+03  0.42907329025E+03  0.47666236873E+03  0.12500372111E+03 0.  0.
          2    1    1    2  501    0 -0.10714785771E+03  0.50515904074E+02 -0.92500428134E+02  0.15029587214E+03  0.00000000000E+00 0. -1.
          1    1    1    2  502    0 -0.24779805950E+02  0.49844878230E+02  0.99796587257E+03  0.99951710014E+03  0.00000000000E+00 0. -1.
         22    1    3    3    0    0  0.93964174475E+01 -0.42231020718E+02  0.23969922775E+02  0.49460175592E+02  0.00000000000E+00 0.  1.
         22    1    3    3    0    0  0.12253124622E+03 -0.58129761585E+02  0.40510336748E+03  0.42720219314E+03  0.00000000000E+00 0.  1.
</event>
<event>
 7    1  0.5736319E-006  0.3928480E+02  0.7818608E-02  0.1588641E+00
          2   -1    0    0  502    0  0.00000000000E+00  0.00000000000E+00  0.12915047274E+04  0.12915047274E+04  0.00000000000E+00 0. -1.
          1   -1    0    0  501    0 -0.00000000000E+00 -0.00000000000E+00 -0.10649809050E+03  0.10649809050E+03  0.00000000000E+00 0. -1.
         25    2    1    2    0    0 -0.11594090870E+02  0.41598860050E+02  0.60683576070E+03  0.62107967537E+03  0.12500173835E+03 0.  0.
          2    1    1    2  501    0  0.29829487442E+02 -0.25596246754E+02 -0.95262466710E+02  0.10305291715E+03  0.00000000000E+00 0. -1.
          1    1    1    2  502    0 -0.18235396572E+02 -0.16002613296E+02  0.67343334295E+03  0.67387022542E+03  0.00000000000E+00 0. -1.
         22    1    3    3    0    0 -0.30559207421E+02  0.77129459104E+02  0.50132617006E+03  0.50814441590E+03  0.00000000000E+00 0. -1.
         22    1    3    3    0    0  0.18965116551E+02 -0.35530599054E+02  0.10550959064E+03  0.11293525947E+03  0.00000000000E+00 0. -1.
</event>
<event>
 7    1  0.5736319E-006  0.1285507E+03  0.7818608E-02  0.1254691E+00
          2   -1    0    0  502    0  0.00000000000E+00  0.00000000000E+00  0.68140631440E+03  0.68140631440E+03  0.00000000000E+00 0. -1.
          1   -1    0    0  501    0 -0.00000000000E+00 -0.00000000000E+00 -0.54035619852E+03  0.54035619852E+03  0.00000000000E+00 0. -1.
         25    2    1    2    0    0  0.10226000583E+03  0.24345246218E+02 -0.20299454935E+02  0.16457776702E+03  0.12499589481E+03 0.  0.
          2    1    1    2  501    0 -0.68121514553E+02 -0.11806766607E+03 -0.43329615160E+03  0.45423129516E+03  0.00000000000E+00 0. -1.
          1    1    1    2  502    0 -0.34138491282E+02  0.93722419853E+02  0.59464572242E+03  0.60295345074E+03  0.00000000000E+00 0. -1.
         22    1    3    3    0    0  0.52809947591E+02 -0.75858683827E+01 -0.69669562876E+02  0.87751261843E+02  0.00000000000E+00 0. -1.
         22    1    3    3    0    0  0.49450058244E+02  0.31931114601E+02  0.49370107940E+02  0.76826505179E+02  0.00000000000E+00 0. -1.
</event>
<event>
 7    1  0.5736319E-006  0.8461239E+02  0.7818608E-02  0.1468282E+00
          2   -1    0    0  502    0  0.00000000000E+00  0.00000000000E+00  0.20914052442E+04  0.20914052442E+04  0.00000000000E+00 0. -1.
          1   -1    0    0  501    0 -0.00000000000E+00 -0.00000000000E+00 -0.15231867294E+02  0.15231867294E+02  0.00000000000E+00 0. -1.
         25    2    1    2    0    0 -0.51970226698E+02  0.51573821319E+02  0.92875690322E+03  0.93998706878E+03  0.12500216272E+03 0.  0.
          2    1    1    2  501    0  0.75742047724E+02 -0.43859371611E+02  0.19313748236E+03  0.21204383831E+03  0.00000000000E+00 0. -1.
          1    1    1    2  502    0 -0.23771821026E+02 -0.77144497081E+01  0.95427899128E+03  0.95460620437E+03  0.00000000000E+00 0. -1.
         22    1    3    3    0    0 -0.55814533613E+02  0.33821923696E+02  0.18796316226E+03  0.19897068892E+03  0.00000000000E+00 0.  1.
         22    1    3    3    0    0  0.38443069155E+01  0.17751897623E+02  0.74079374097E+03  0.74101637986E+03  0.00000000000E+00 0.  1.
</event>
<event>
 7    1  0.5736319E-006  0.3101533E+02  0.7818608E-02  0.1644886E+00
          2   -1    0    0  502    0  0.00000000000E+00  0.00000000000E+00  0.42418217477E+03  0.42418217477E+03  0.00000000000E+00 0. -1.
          1   -1    0    0  501    0 -0.00000000000E+00 -0.00000000000E+00 -0.12309798355E+04  0.12309798355E+04  0.00000000000E+00 0. -1.
         25    2    1    2    0    0 -0.18277150607E+02  0.18851577885E+02 -0.15310538432E+03  0.19938716954E+03  0.12499819378E+03 0.  0.
          2    1    1    2  501    0 -0.12767992994E+02 -0.17994179359E+02 -0.10540166623E+04  0.10542475689E+04  0.00000000000E+00 0. -1.
          1    1    1    2  502    0  0.31045143601E+02 -0.85739852579E+00  0.40032438589E+03  0.40152727182E+03  0.00000000000E+00 0. -1.
         22    1    3    3    0    0  0.73972550178E+01 -0.50158040800E+02 -0.85635706852E+02  0.99518956621E+02  0.00000000000E+00 0. -1.
         22    1    3    3    0    0 -0.25674405625E+02  0.69009618685E+02 -0.67469677466E+02  0.99868212924E+02  0.00000000000E+00 0. -1.
</event>
<event>
 7    1  0.5736319E-006  0.2436610E+03  0.7818608E-02  0.1181526E+00
          2   -1    0    0  502    0  0.00000000000E+00  0.00000000000E+00  0.68770407378E+03  0.68770407378E+03  0.00000000000E+00 0. -1.
          1   -1    0    0  501    0 -0.00000000000E+00 -0.00000000000E+00 -0.11299552545E+04  0.11299552545E+04  0.00000000000E+00 0. -1.
         25    2    1    2    0    0  0.26602385483E+02 -0.59914219374E+02  0.19389196136E+03  0.23982604274E+03  0.12500015000E+03 0.  0.
          2    1    1    2  501    0 -0.23154168316E+03 -0.75888802316E+02 -0.10601041419E+04  0.10877460425E+04  0.00000000000E+00 0. -1.
          1    1    1    2  502    0  0.20493929768E+03  0.13580302169E+03  0.42396099980E+03  0.49008724303E+03  0.00000000000E+00 0. -1.
         22    1    3    3    0    0 -0.25939365966E+02  0.25758722183E+02  0.79844271861E+02  0.87814977220E+02  0.00000000000E+00 0. -1.
         22    1    3    3    0    0  0.52541751450E+02 -0.85672941557E+02  0.11404768950E+03  0.15201106552E+03  0.00000000000E+00 0. -1.
</event>
<event>
 7    1  0.5736319E-006  0.1550494E+03  0.7818608E-02  0.1250900E+00
          2   -1    0    0  502    0  0.00000000000E+00  0.00000000000E+00  0.10005618003E+04  0.10005618003E+04  0.00000000000E+00 0. -1.
          1   -1    0    0  501    0 -0.00000000000E+00 -0.00000000000E+00 -0.21612936061E+03  0.21612936061E+03  0.00000000000E+00 0. -1.
         25    2    1    2    0    0 -0.59676753892E+01  0.17513516212E+03  0.12213499811E+03  0.24748838935E+03  0.12500242773E+03 0.  0.
          2    1    1    2  501    0  0.77263461488E+02 -0.37484204194E+02 -0.13334185750E+03  0.15860251892E+03  0.00000000000E+00 0. -1.
          1    1    1    2  502    0 -0.71295786099E+02 -0.13765095793E+03  0.79563929908E+03  0.81060025264E+03  0.00000000000E+00 0. -1.
         22    1    3    3    0    0 -0.87568883648E+01 -0.69669669636E+01  0.50595316873E+02  0.51818025937E+02  0.00000000000E+00 0. -1.
         22    1    3    3    0    0  0.27892129756E+01  0.18210212909E+03  0.71539681237E+02  0.19567036341E+03  0.00000000000E+00 0. -1.
</event>
<event>
 7    1  0.5736319E-006  0.6878796E+02  0.7818608E-02  0.1421359E+00
          2   -1    0    0  502    0  0.00000000000E+00  0.00000000000E+00  0.12391137066E+04  0.12391137066E+04  0.00000000000E+00 0. -1.
          1   -1    0    0  501    0 -0.00000000000E+00 -0.00000000000E+00 -0.29658569890E+03  0.29658569890E+03  0.00000000000E+00 0. -1.
         25    2    1    2    0    0 -0.42005804786E+02  0.55272052473E+02 -0.30826909321E+02  0.14627139669E+03  0.12500214291E+03 0.  0.
          2    1    1    2  501    0 -0.24235053283E+02 -0.36186081347E+02 -0.20473850719E+03  0.20931943679E+03  0.00000000000E+00 0. -1.
          1    1    1    2  502    0  0.66240858069E+02 -0.19085971126E+02  0.11780934242E+04  0.11801085720E+04  0.00000000000E+00 0. -1.
         22    1    3    3    0    0  0.29140493141E+02  0.53331118501E+02  0.13726086463E+02  0.62303948436E+02  0.00000000000E+00 0.  1.
         22    1    3    3    0    0 -0.71146297927E+02  0.19409339717E+01 -0.44552995784E+02  0.83967448257E+02  0.00000000000E+00 0.  1.
</event>
<event>
 7    1  0.5736319E-006  0.9047091E+02  0.7818608E-02  0.1319187E+00
          2   -1    0    0  502    0  0.00000000000E+00  0.00000000000E+00  0.34076495166E+03  0.34076495166E+03  0.00000000000E+00 0. -1.
          1   -1    0    0  501    0 -0.00000000000E+00 -0.00000000000E+00 -0.16636232416E+03  0.16636232416E+03  0.00000000000E+00 0. -1.
         25    2    1    2    0    0  0.11072736440E+02 -0.38038600963E+01  0.57594409058E+02  0.13812727072E+03  0.12499980847E+03 0.  0.
          2    1    1    2  501    0  0.17357734520E+01 -0.90454256478E+02 -0.98422139946E+02  0.13368583716E+03  0.00000000000E+00 0. -1.
          1    1    1    2  502    0 -0.12808509893E+02  0.94258116574E+02  0.21523035838E+03  0.23531416794E+03  0.00000000000E+00 0. -1.
         22    1    3    3    0    0 -0.52068341975E+02 -0.24737214059E+02  0.36971683879E+02  0.68483190670E+02  0.00000000000E+00 0. -1.
         22    1    3    3    0    0  0.63141078416E+02  0.20933353963E+02  0.20622725179E+02  0.69644080046E+02  0.00000000000E+00 0. -1.
</event>
<event>
 7    1  0.6954374E-006  0.7659669E+02  0.7818608E-02  0.1349308E+00
          2   -1    0    0  502    0  0.00000000000E+00  0.00000000000E+00  0.22919735668E+04  0.22919735668E+04  0.00000000000E+00 0. -1.
          1   -1    0    0  501    0 -0.00000000000E+00 -0.00000000000E+00 -0.18647834699E+04  0.18647834699E+04  0.00000000000E+00 0. -1.
         25    2    1    2    0    0  0.13761004086E+03  0.44220131650E+02 -0.12497706657E+03  0.22833722992E+03  0.12500671987E+03 0.  0.
          2    1    1    2  501    0 -0.69381309148E+02 -0.99480555479E+01 -0.16867477330E+04  0.16882033778E+04  0.00000000000E+00 0. -1.
          1    1    1    2  502    0 -0.68228731707E+02 -0.34272076103E+02  0.22389148965E+04  0.22402164290E+04  0.00000000000E+00 0. -1.
         22    1    3    3    0    0  0.18891194655E+02 -0.10196115309E+01  0.25275612464E+02  0.31571718809E+02  0.00000000000E+00 0. -1.
         22    1    3    3    0    0  0.11871884620E+03  0.45239743181E+02 -0.15025267904E+03  0.19676551111E+03  0.00000000000E+00 0. -1.
</event>
<event>
 7    1  0.5736319E-006  0.5543564E+02  0.7818608E-02  0.1531171E+00
          2   -1    0    0  502    0  0.00000000000E+00  0.00000000000E+00  0.26238337752E+04  0.26238337752E+04  0.00000000000E+00 0. -1.
          1   -1    0    0  501    0 -0.00000000000E+00 -0.00000000000E+00 -0.34117090095E+03  0.34117090095E+03  0.00000000000E+00 0. -1.
         25    2    1    2    0    0 -0.94505827553E+01 -0.32340575217E+02 -0.28901455889E+02  0.13264511922E+03  0.12499682868E+03 0.  0.
          2    1    1    2  501    0 -0.19806492215E+02 -0.14846171713E+02 -0.25950899450E+03  0.26068683161E+03  0.00000000000E+00 0. -1.
          1    1    1    2  502    0  0.29257074971E+02  0.47186746930E+02  0.25710733247E+04  0.25716727254E+04  0.00000000000E+00 0. -1.
         22    1    3    3    0    0 -0.60745630156E+02 -0.44369120208E+02 -0.68676932672E+01  0.75536849431E+02  0.00000000000E+00 0.  1.
         22    1    3    3    0    0  0.51295047401E+02  0.12028544991E+02 -0.22033762621E+02  0.57108269784E+02  0.00000000000E+00 0.  1.
</event>
<event>
 7    1  0.5736319E-006  0.7969062E+02  0.7818608E-02  0.1331714E+00
          2   -1    0    0  502    0  0.00000000000E+00  0.00000000000E+00  0.47453011074E+03  0.47453011074E+03  0.00000000000E+00 0. -1.
          1   -1    0    0  501    0 -0.00000000000E+00 -0.00000000000E+00 -0.40944378487E+04  0.40944378487E+04  0.00000000000E+00 0. -1.
         25    2    1    2    0    0  0.32373921502E+02 -0.90072795835E+02 -0.29763948218E+03  0.33671248140E+03  0.12499941772E+03 0.  0.
          2    1    1    2  501    0  0.43585105185E+02  0.65231130195E+02 -0.37733416589E+04  0.37741571293E+04  0.00000000000E+00 0. -1.
          1    1    1    2  502    0 -0.75959026687E+02  0.24841665641E+02  0.45107340315E+03  0.45809834874E+03  0.00000000000E+00 0. -1.
         22    1    3    3    0    0  0.66805918347E+02 -0.46434150683E+02 -0.25194359641E+03  0.26475410639E+03  0.00000000000E+00 0. -1.
         22    1    3    3    0    0 -0.34431996845E+02 -0.43638645152E+02 -0.45695885768E+02  0.71958375007E+02  0.00000000000E+00 0. -1.
</event>
<event>
 7    1  0.5736319E-006  0.6871957E+02  0.7818608E-02  0.1454439E+00
          2   -1    0    0  502    0  0.00000000000E+00  0.00000000000E+00  0.34528301809E+03  0.34528301809E+03  0.00000000000E+00 0. -1.
          1   -1    0    0  501    0 -0.00000000000E+00 -0.00000000000E+00 -0.70231291606E+03  0.70231291606E+03  0.00000000000E+00 0. -1.
         25    2    1    2    0    0  0.82988371610E+02  0.99134836774E+01  0.77081013912E+02  0.16896964719E+03  0.12499564786E+03 0.  0.
          2    1    1    2  501    0 -0.17986548373E+02 -0.28877614425E+02 -0.65075676148E+03  0.65164545203E+03  0.00000000000E+00 0. -1.
          1    1    1    2  502    0 -0.65001823237E+02  0.18964130748E+02  0.21664584960E+03  0.22698083493E+03  0.00000000000E+00 0. -1.
         22    1    3    3    0    0  0.10750504929E+03  0.14103063490E+02  0.25024506696E+02  0.11127649329E+03  0.00000000000E+00 0.  1.
         22    1    3    3    0    0 -0.24516677681E+02 -0.41895798129E+01  0.52056507216E+02  0.57693153901E+02  0.00000000000E+00 0.  1.
</event>
<event>
 7    1  0.5736319E-006  0.1023593E+03  0.7818608E-02  0.1310901E+00
          2   -1    0    0  502    0  0.00000000000E+00  0.00000000000E+00  0.45187974466E+03  0.45187974466E+03  0.00000000000E+00 0. -1.
          1   -1    0    0  501    0 -0.00000000000E+00 -0.00000000000E+00 -0.12414571569E+04  0.12414571569E+04  0.00000000000E+00 0. -1.
         25    2    1    2    0    0  0.12848704863E+03 -0.11221989988E+03 -0.25634355424E+03  0.33232369412E+03  0.12499916912E+03 0.  0.
          2    1    1    2  501    0 -0.78752105107E+02  0.58058220598E+02 -0.94130183607E+03  0.94637296961E+03  0.00000000000E+00 0. -1.
          1    1    1    2  502    0 -0.49734943518E+02  0.54161679281E+02  0.40806797806E+03  0.41464023783E+03  0.00000000000E+00 0. -1.
         22    1    3    3    0    0  0.10812381366E+03 -0.12844836214E+03 -0.25616451176E+03  0.30628417834E+03  0.00000000000E+00 0.  1.
         22    1    3    3    0    0  0.20363234968E+02  0.16228462265E+02 -0.17904248218E+00  0.26039515780E+02  0.00000000000E+00 0.  1.
</event>
<event>
 7    1  0.5736319E-006  0.6405889E+02  0.7818608E-02  0.1477875E+00
          2   -1    0    0  502    0  0.00000000000E+00  0.00000000000E+00  0.36180052028E+03  0.36180052028E+03  0.00000000000E+00 0. -1.
          1   -1    0    0  501    0 -0.00000000000E+00 -0.00000000000E+00 -0.73763141887E+03  0.73763141887E+03  0.00000000000E+00 0. -1.
         25    2    1    2    0    0  0.52772026917E+02 -0.70696069251E+02 -0.15476698166E+03  0.21762631055E+03  0.12500228558E+03 0.  0.
          2    1    1    2  501    0 -0.32211525811E+01  0.30659460246E+02 -0.54792650029E+03  0.54879306486E+03  0.00000000000E+00 0. -1.
          1    1    1    2  502    0 -0.49550874336E+02  0.40036609005E+02  0.32686258336E+03  0.33301256374E+03  0.00000000000E+00 0. -1.
         22    1    3    3    0    0  0.21353206253E+02  0.12169257607E+02 -0.11989881565E+03  0.12239189614E+03  0.00000000000E+00 0.  1.
         22    1    3    3    0    0  0.31418820664E+02 -0.82865326858E+02 -0.34868166011E+02  0.95234414411E+02  0.00000000000E+00 0.  1.
</event>
<event>
 7    1  0.5736319E-006  0.8136960E+02  0.7818608E-02  0.1451076E+00
          2   -1    0    0  502    0  0.00000000000E+00  0.00000000000E+00  0.13952366940E+04  0.13952366940E+04  0.00000000000E+00 0. -1.
          1   -1    0    0  501    0 -0.00000000000E+00 -0.00000000000E+00 -0.32493947775E+03  0.32493947775E+03  0.00000000000E+00 0. -1.
         25    2    1    2    0    0  0.45943503805E+02 -0.27007816488E+02  0.31665531362E+03  0.34458091092E+03  0.12500075533E+03 0.  0.
          2    1    1    2  501    0 -0.74676748799E+02  0.33464960095E+02 -0.30538497560E+03  0.31615898483E+03  0.00000000000E+00 0. -1.
          1    1    1    2  502    0  0.28733244994E+02 -0.64571436068E+01  0.10590268783E+04  0.10594362760E+04  0.00000000000E+00 0. -1.
         22    1    3    3    0    0  0.88181585967E+02 -0.29223129392E+02  0.23312044500E+03  0.25094845143E+03  0.00000000000E+00 0.  1.
         22    1    3    3    0    0 -0.42238082163E+02  0.22153129041E+01  0.83534868615E+02  0.93632459492E+02  0.00000000000E+00 0.  1.
</event>
<event>
 7    1  0.5736319E-006  0.1152462E+03  0.7818608E-02  0.1360885E+00
          2   -1    0    0  502    0  0.00000000000E+00  0.00000000000E+00  0.11330131721E+04  0.11330131721E+04  0.00000000000E+00 0. -1.
          1   -1    0    0  501    0 -0.00000000000E+00 -0.00000000000E+00 -0.30505230750E+03  0.30505230750E+03  0.00000000000E+00 0. -1.
         25    2    1    2    0    0 -0.13136543089E+03  0.36894390360E+02  0.53619917821E+02  0.19265934527E+03  0.12499782102E+03 0.  0.
          2    1    1    2  501    0  0.16873289457E+02 -0.38719131962E+02 -0.23036055238E+03  0.23420047645E+03  0.00000000000E+00 0. -1.
          1    1    1    2  502    0  0.11449214143E+03  0.18247416016E+01  0.10047014992E+04  0.10112056579E+04  0.00000000000E+00 0. -1.
         22    1    3    3    0    0 -0.11060844172E+03  0.72062672413E+02  0.69079454589E+02  0.14899405082E+03  0.00000000000E+00 0. -1.
         22    1    3    3    0    0 -0.20756989168E+02 -0.35168282053E+02 -0.15459536768E+02  0.43665294445E+02  0.00000000000E+00 0. -1.
</event>
<event>
 7    1  0.5736319E-006  0.3426432E+02  0.7818608E-02  0.1631811E+00
          2   -1    0    0  502    0  0.00000000000E+00  0.00000000000E+00  0.26300059883E+03  0.26300059883E+03  0.00000000000E+00 0. -1.
          1   -1    0    0  501    0 -0.00000000000E+00 -0.00000000000E+00 -0.34619919937E+03  0.34619919937E+03  0.00000000000E+00 0. -1.
         25    2    1    2    0    0  0.15567970185E+02  0.30729040090E+02  0.43832817404E+02  0.13686822614E+03  0.12499983938E+03 0.  0.
          2    1    1    2  501    0  0.57293807134E+01 -0.33853813992E+02 -0.29802103142E+03  0.29999240273E+03  0.00000000000E+00 0. -1.
          1    1    1    2  502    0 -0.21297350899E+02  0.31247739018E+01  0.17098961348E+03  0.17233916933E+03  0.00000000000E+00 0. -1.
         22    1    3    3    0    0  0.39971255062E+02  0.38252213908E+02  0.77120802570E+02  0.94913388355E+02  0.00000000000E+00 0. -1.
         22    1    3    3    0    0 -0.24403284877E+02 -0.75231738173E+01 -0.33287985165E+02  0.41954837783E+02  0.00000000000E+00 0. -1.
</event>
<event>
 7    1  0.5736319E-006  0.1403345E+03  0.7818608E-02  0.1306077E+00
          2   -1    0    0  502    0  0.00000000000E+00  0.00000000000E+00  0.16148367697E+04  0.16148367697E+04  0.00000000000E+00 0. -1.
          1   -1    0    0  501    0 -0.00000000000E+00 -0.00000000000E+00 -0.23934278672E+03  0.23934278672E+03  0.00000000000E+00 0. -1.
         25    2    1    2    0    0  0.49312985146E+02  0.11395900721E+03  0.84291489607E+01  0.17639487697E+03  0.12500270494E+03 0.  0.
          2    1    1    2  501    0 -0.55823474786E+01 -0.14900366316E+03 -0.11893270974E+03  0.19073081472E+03  0.00000000000E+00 0. -1.
          1    1    1    2  502    0 -0.43730637667E+02  0.35044655949E+02  0.14859975438E+04  0.14870538648E+04  0.00000000000E+00 0. -1.
         22    1    3    3    0    0 -0.34281167177E+02  0.72682403514E+02 -0.11151636902E+02  0.81131308440E+02  0.00000000000E+00 0. -1.
         22    1    3    3    0    0  0.83594152323E+02  0.41276603693E+02  0.19580785862E+02  0.95263568535E+02  0.00000000000E+00 0. -1.
</event>
<event>
 7    1  0.5736319E-006  0.1643775E+03  0.7818608E-02  0.1364971E+00
          2   -1    0    0  502    0  0.00000000000E+00  0.00000000000E+00  0.66385232148E+03  0.66385232148E+03  0.00000000000E+00 0. -1.
          1   -1    0    0  501    0 -0.00000000000E+00 -0.00000000000E+00 -0.38000687069E+03  0.38000687069E+03  0.00000000000E+00 0. -1.
         25    2    1    2    0    0  0.14140407984E+03 -0.46469756391E+02  0.40118595073E+03  0.44579538773E+03  0.12501523350E+03 0.  0.
          2    1    1    2  501    0 -0.14741960751E+03  0.74447121930E+02 -0.33766478942E+03  0.37588884615E+03  0.00000000000E+00 0. -1.
          1    1    1    2  502    0  0.60155276789E+01 -0.27977365539E+02  0.22032428948E+03  0.22217495829E+03  0.00000000000E+00 0. -1.
         22    1    3    3    0    0  0.59721129554E+02 -0.66869389932E+02  0.30530436241E+03  0.31819629528E+03  0.00000000000E+00 0. -1.
         22    1    3    3    0    0  0.81682950282E+02  0.20399633541E+02  0.95881588323E+02  0.12759909245E+03  0.00000000000E+00 0. -1.
</event>
<event>
 7    1  0.5736319E-006  0.8441026E+02  0.7818608E-02  0.1461298E+00
          2   -1    0    0  502    0  0.00000000000E+00  0.00000000000E+00  0.23369505988E+03  0.23369505988E+03  0.00000000000E+00 0. -1.
          1   -1    0    0  501    0 -0.00000000000E+00 -0.00000000000E+00 -0.77423849562E+03  0.77423849562E+03  0.00000000000E+00 0. -1.
         25    2    1    2    0    0 -0.61456744181E+02 -0.18655646500E+02 -0.13130685381E+03  0.19233217871E+03  0.12500085023E+03 0.  0.
          2    1    1    2  501    0  0.76647147020E+02  0.40182590202E+02 -0.60849015776E+03  0.61461345396E+03  0.00000000000E+00 0. -1.
          1    1    1    2  502    0 -0.15190402839E+02 -0.21526943702E+02  0.19925357583E+03  0.20098792283E+03  0.00000000000E+00 0. -1.
         22    1    3    3    0    0  0.17853074417E+02 -0.51565591609E+02 -0.47509798019E+02  0.72352770589E+02  0.00000000000E+00 0. -1.
         22    1    3    3    0    0 -0.79309818598E+02  0.32909945109E+02 -0.83797055790E+02  0.11997940812E+03  0.00000000000E+00 0. -1.
</event>
<event>
 7    1  0.5736319E-006  0.1882834E+03  0.7818608E-02  0.1252925E+00
          2   -1    0    0  502    0  0.00000000000E+00  0.00000000000E+00  0.10677874902E+04  0.10677874902E+04  0.00000000000E+00 0. -1.
          1   -1    0    0  501    0 -0.00000000000E+00 -0.00000000000E+00 -0.35278180148E+03  0.35278180148E+03  0.00000000000E+00 0. -1.
         25    2    1    2    0    0 -0.54940669959E+02  0.11799479295E+03  0.16247314376E+02  0.18118821415E+03  0.12499578130E+03 0.  0.
          2    1    1    2  501    0 -0.79804695783E+00  0.69302320414E+02 -0.25580140767E+03  0.26502416618E+03  0.00000000000E+00 0. -1.
          1    1    1    2  502    0  0.55738716917E+02 -0.18729711337E+03  0.95455978197E+03  0.97435691130E+03  0.00000000000E+00 0. -1.
         22    1    3    3    0    0 -0.47534084458E+02  0.12189491572E+03 -0.29965911526E+02  0.13422300666E+03  0.00000000000E+00 0.  1.
         22    1    3    3    0    0 -0.74065855015E+01 -0.39001227645E+01  0.46213225902E+02  0.46965207491E+02  0.00000000000E+00 0.  1.
</event>
<event>
 7    1  0.5736319E-006  0.1517443E+03  0.7818608E-02  0.1390085E+00
          2   -1    0    0  502    0  0.00000000000E+00  0.00000000000E+00  0.78995463327E+03  0.78995463327E+03  0.00000000000E+00 0. -1.
          1   -1    0    0  501    0 -0.00000000000E+00 -0.00000000000E+00 -0.20848014921E+03  0.20848014921E+03  0.00000000000E+00 0. -1.
         25    2    1    2    0    0 -0.15301017257E+02 -0.13227055773E+03  0.37446976913E+03  0.41663132918E+03  0.12499773954E+03 0.  0.
          2    1    1    2  501    0  0.13029594966E+01  0.15327154206E+03 -0.15554514178E+03  0.21837617645E+03  0.00000000000E+00 0. -1.
          1    1    1    2  502    0  0.13998057761E+02 -0.21000984325E+02  0.36254985670E+03  0.36342727685E+03  0.00000000000E+00 0. -1.
         22    1    3    3    0    0  0.46601068122E+02 -0.15045943528E+02  0.12230851990E+03  0.13174753890E+03  0.00000000000E+00 0.  1.
         22    1    3    3    0    0 -0.61902085379E+02 -0.11722461420E+03  0.25216124924E+03  0.28488379028E+03  0.00000000000E+00 0.  1.
</event>
<event>
 7    1  0.5736319E-006  0.1131298E+03  0.7818608E-02  0.1345186E+00
          2   -1    0    0  502    0  0.00000000000E+00  0.00000000000E+00  0.15715731930E+04  0.15715731930E+04  0.00000000000E+00 0. -1.
          1   -1    0    0  501    0 -0.00000000000E+00 -0.00000000000E+00 -0.32744322540E+04  0.32744322540E+04  0.00000000000E+00 0. -1.
         25    2    1    2    0    0  0.10739295485E+03 -0.81189923411E+02  0.38352841572E+03  0.42525288038E+03  0.12498366370E+03 0.  0.
          2    1    1    2  501    0 -0.60396598838E+02  0.95621671038E+02 -0.32520688806E+04  0.32540349195E+04  0.00000000000E+00 0. -1.
          1    1    1    2  502    0 -0.46996356015E+02 -0.14431747627E+02  0.11656814039E+04  0.11667176471E+04  0.00000000000E+00 0. -1.
         22    1    3    3    0    0  0.57322826348E+02 -0.12626672582E+02  0.30163581493E+03  0.30729384004E+03  0.00000000000E+00 0. -1.
         22    1    3    3    0    0  0.50070128506E+02 -0.68563250828E+02  0.81892600788E+02  0.11795904033E+03  0.00000000000E+00 0. -1.
</event>
<event>
 7    1  0.5736319E-006  0.9145415E+02  0.7818608E-02  0.1434597E+00
          2   -1    0    0  502    0  0.00000000000E+00  0.00000000000E+00  0.16091826864E+04  0.16091826864E+04  0.00000000000E+00 0. -1.
          1   -1    0    0  501    0 -0.00000000000E+00 -0.00000000000E+00 -0.45246543199E+03  0.45246543199E+03  0.00000000000E+00 0. -1.
         25    2    1    2    0    0 -0.85754712986E+02 -0.44065777823E+02  0.12163255353E+03  0.19928409310E+03  0.12499603238E+03 0.  0.
          2    1    1    2  501    0 -0.44787827189E+01  0.29281062431E+02 -0.41166419405E+03  0.41272854127E+03  0.00000000000E+00 0. -1.
          1    1    1    2  502    0  0.90233495705E+02  0.14784715392E+02  0.14467488950E+04  0.14496354841E+04  0.00000000000E+00 0. -1.
         22    1    3    3    0    0 -0.28380066223E+02  0.29587485642E+02 -0.56984193548E+01  0.41392263149E+02  0.00000000000E+00 0. -1.
         22    1    3    3    0    0 -0.57374646763E+02 -0.73653263465E+02  0.12733097288E+03  0.15789182995E+03  0.00000000000E+00 0. -1.
</event>
<event>
 7    1  0.5736319E-006  0.8063681E+02  0.7818608E-02  0.1417807E+00
          2   -1    0    0  502    0  0.00000000000E+00  0.00000000000E+00  0.27100985934E+03  0.27100985934E+03  0.00000000000E+00 0. -1.
          1   -1    0    0  501    0 -0.00000000000E+00 -0.00000000000E+00 -0.27461032721E+03  0.27461032721E+03  0.00000000000E+00 0. -1.
         25    2    1    2    0    0  0.99635364932E+02 -0.46769366818E+02 -0.11681479845E+03  0.20343973965E+03  0.12500980327E+03 0.  0.
          2    1    1    2  501    0 -0.62794413839E+02  0.36739244986E+02 -0.10106424317E+03  0.12452667095E+03  0.00000000000E+00 0. -1.
          1    1    1    2  502    0 -0.36840951093E+02  0.10030121832E+02  0.21427857374E+03  0.21765377595E+03  0.00000000000E+00 0. -1.
         22    1    3    3    0    0  0.87669624026E+02 -0.75459591533E+02 -0.43104462953E+02  0.12344273027E+03  0.00000000000E+00 0.  1.
         22    1    3    3    0    0  0.11965740906E+02  0.28690224715E+02 -0.73710335498E+02  0.79997009374E+02  0.00000000000E+00 0.  1.
</event>
<event>
 7    1  0.5736319E-006  0.1153205E+03  0.7818608E-02  0.1428815E+00
          2   -1    0    0  502    0  0.00000000000E+00  0.00000000000E+00  0.31572347227E+03  0.31572347227E+03  0.00000000000E+00 0. -1.
          1   -1    0    0  501    0 -0.00000000000E+00 -0.00000000000E+00 -0.67936847936E+03  0.67936847936E+03  0.00000000000E+00 0. -1.
         25    2    1    2    0    0 -0.10307777271E+03 -0.29966534971E+02 -0.13264153711E+03  0.21152533700E+03  0.12500468143E+03 0.  0.
          2    1    1    2  501    0  0.11662210925E+03  0.95015744130E+01 -0.49997178271E+03  0.51348104131E+03  0.00000000000E+00 0. -1.
          1    1    1    2  502    0 -0.13544336544E+02  0.20464960558E+02  0.26896831273E+03  0.27008557332E+03  0.00000000000E+00 0. -1.
         22    1    3    3    0    0 -0.47008046567E+02  0.16549534256E+02 -0.12932702769E+03  0.13859698272E+03  0.00000000000E+00 0. -1.
         22    1    3    3    0    0 -0.56069726139E+02 -0.46516069227E+02 -0.33145094230E+01  0.72928354282E+02  0.00000000000E+00 0. -1.
</event>
<event>
 7    1  0.5736319E-006  0.8684246E+02  0.7818608E-02  0.1312071E+00
          2   -1    0    0  502    0  0.00000000000E+00  0.00000000000E+00  0.10265899870E+04  0.10265899870E+04  0.00000000000E+00 0. -1.
          1   -1    0    0  501    0 -0.00000000000E+00 -0.00000000000E+00 -0.13512544741E+03  0.13512544741E+03  0.00000000000E+00 0. -1.
         25    2    1    2    0    0 -0.94148152122E+02 -0.39405245931E+02  0.14349638283E+02  0.16200811446E+03  0.12499627626E+03 0.  0.
          2    1    1    2  501    0  0.72710005265E+02 -0.45472838607E+02 -0.28118541822E+02  0.90250630528E+02  0.00000000000E+00 0. -1.
          1    1    1    2  502    0  0.21438146858E+02  0.84878084538E+02  0.90523344311E+03  0.90945668940E+03  0.00000000000E+00 0. -1.
         22    1    3    3    0    0 -0.60403026741E+02  0.36876298290E+02 -0.17197403101E+02  0.72829511110E+02  0.00000000000E+00 0.  1.
         22    1    3    3    0    0 -0.33745125381E+02 -0.76281544221E+02  0.31547041384E+02  0.89178603352E+02  0.00000000000E+00 0.  1.
</event>
<event>
 7    1  0.5736319E-006  0.5413270E+02  0.7818608E-02  0.1444733E+00
          2   -1    0    0  502    0  0.00000000000E+00  0.00000000000E+00  0.80287231073E+03  0.80287231073E+03  0.00000000000E+00 0. -1.
          1   -1    0    0  501    0 -0.00000000000E+00 -0.00000000000E+00 -0.92714910881E+03  0.92714910881E+03  0.00000000000E+00 0. -1.
         25    2    1    2    0    0 -0.20739751534E+02  0.28846123332E+02  0.19682781744E+03  0.23585682826E+03  0.12500007037E+03 0.  0.
          2    1    1    2  501    0 -0.20401873386E+02 -0.50283388077E+02 -0.90590409054E+03  0.90752789314E+03  0.00000000000E+00 0. -1.
          1    1    1    2  502    0  0.41141624920E+02  0.21437264745E+02  0.58479947503E+03  0.58663669815E+03  0.00000000000E+00 0. -1.
         22    1    3    3    0    0  0.14323358610E+02 -0.45514451074E+02  0.74446327444E+02  0.88424993799E+02  0.00000000000E+00 0.  1.
         22    1    3    3    0    0 -0.35063110144E+02  0.74360574406E+02  0.12238148999E+03  0.14743183446E+03  0.00000000000E+00 0.  1.
</event>
<event>
 7    1  0.5736319E-006  0.7307010E+02  0.7818608E-02  0.1370136E+00
          2   -1    0    0  502    0  0.00000000000E+00  0.00000000000E+00  0.67695929961E+03  0.67695929961E+03  0.00000000000E+00 0. -1.
          1   -1    0    0  501    0 -0.00000000000E+00 -0.00000000000E+00 -0.23104824751E+04  0.23104824751E+04  0.00000000000E+00 0. -1.
         25    2    1    2    0    0  0.43614721253E+02  0.65114934070E+02  0.39059491656E+03  0.41753232490E+03  0.12500661962E+03 0.  0.
          2    1    1    2  501    0 -0.72335847632E+02 -0.10539550418E+02 -0.22929395802E+04  0.22941045040E+04  0.00000000000E+00 0. -1.
          1    1    1    2  502    0  0.28721126379E+02 -0.54575383652E+02  0.26882148817E+03  0.27580494575E+03  0.00000000000E+00 0. -1.
         22    1    3    3    0    0  0.47079413816E+02  0.11273118480E+02  0.39964338294E+02  0.62775016853E+02  0.00000000000E+00 0. -1.
         22    1    3    3    0    0 -0.34646925634E+01  0.53841815590E+02  0.35063057826E+03  0.35475730805E+03  0.00000000000E+00 0. -1.
</event>
<event>
 7    1  0.5736319E-006  0.1006702E+03  0.7818608E-02  0.1329575E+00
          2   -1    0    0  502    0  0.00000000000E+00  0.00000000000E+00  0.75375862014E+03  0.75375862014E+03  0.00000000000E+00 0. -1.
          1   -1    0    0  501    0 -0.00000000000E+00 -0.00000000000E+00 -0.16858227242E+03  0.16858227242E+03  0.00000000000E+00 0. -1.
         25    2    1    2    0    0  0.76838157467E+02  0.90791649279E+02  0.38131951099E+03  0.41854191899E+03  0.12500216987E+03 0.  0.
          2    1    1    2  501    0 -0.62914480607E+02  0.68058654723E+01 -0.13596261027E+03  0.14996794013E+03  0.00000000000E+00 0. -1.
          1    1    1    2  502    0 -0.13923676860E+02 -0.97597514751E+02  0.33981944700E+03  0.35383103344E+03  0.00000000000E+00 0. -1.
         22    1    3    3    0    0  0.54888841904E+02 -0.10442554225E+02  0.21876898777E+03  0.22579127953E+03  0.00000000000E+00 0.  1.
         22    1    3    3    0    0  0.21949315563E+02  0.10123420350E+03  0.16255052322E+03  0.19275063946E+03  0.00000000000E+00 0.  1.
</event>
<event>
 7    1  0.5736319E-006  0.4438863E+02  0.7818608E-02  0.1519611E+00
          2   -1    0    0  502    0  0.00000000000E+00  0.00000000000E+00  0.18557591085E+04  0.18557591085E+04  0.00000000000E+00 0. -1.
          1   -1    0    0  501    0 -0.00000000000E+00 -0.00000000000E+00 -0.93869861310E+02  0.93869861310E+02  0.00000000000E+00 0. -1.
         25    2    1    2    0    0 -0.25494615360E+02 -0.22304761211E+02  0.31556881335E+02  0.13329852748E+03  0.12500073153E+03 0.  0.
          2    1    1    2  501    0  0.34441491530E+01  0.47362956451E+02 -0.29680957192E+02  0.56000634166E+02  0.00000000000E+00 0. -1.
          1    1    1    2  502    0  0.22050466207E+02 -0.25058195240E+02  0.17600133231E+04  0.17603298082E+04  0.00000000000E+00 0. -1.
         22    1    3    3    0    0  0.50101881829E+02 -0.39481980771E+01  0.22208860946E+02  0.54945612521E+02  0.00000000000E+00 0.  1.
         22    1    3    3    0    0 -0.75596497189E+02 -0.18356563134E+02  0.93480203891E+01  0.78352914959E+02  0.00000000000E+00 0.  1.
</event>
<event>
 7    1  0.5736319E-006  0.1969695E+03  0.7818608E-02  0.1184582E+00
          2   -1    0    0  502    0  0.00000000000E+00  0.00000000000E+00  0.15036742243E+04  0.15036742243E+04  0.00000000000E+00 0. -1.
          1   -1    0    0  501    0 -0.00000000000E+00 -0.00000000000E+00 -0.11887797112E+04  0.11887797112E+04  0.00000000000E+00 0. -1.
         25    2    1    2    0    0  0.11603883379E+03  0.11515164161E+03  0.61302142329E+02  0.21472775956E+03  0.12500058622E+03 0.  0.
          2    1    1    2  501    0 -0.10324004101E+03  0.88604935262E+02 -0.11002234476E+04  0.11086031641E+04  0.00000000000E+00 0. -1.
          1    1    1    2  502    0 -0.12798792780E+02 -0.20375657688E+03  0.13538158184E+04  0.13691230119E+04  0.00000000000E+00 0. -1.
         22    1    3    3    0    0 -0.57454287525E+00  0.76128799735E+02 -0.25403626252E+01  0.76173339764E+02  0.00000000000E+00 0. -1.
         22    1    3    3    0    0  0.11661337666E+03  0.39022841880E+02  0.63842504955E+02  0.13855441979E+03  0.00000000000E+00 0. -1.
</event>
<event>
 7    1  0.5736319E-006  0.1319977E+03  0.7818608E-02  0.1294132E+00
          2   -1    0    0  502    0  0.00000000000E+00  0.00000000000E+00  0.22617113501E+03  0.22617113501E+03  0.00000000000E+00 0. -1.
          1   -1    0    0  501    0 -0.00000000000E+00 -0.00000000000E+00 -0.60183858059E+03  0.60183858059E+03  0.00000000000E+00 0. -1.
         25    2    1    2    0    0 -0.11500044487E+03 -0.11498063541E+03 -0.34421493319E+02  0.20798618156E+03  0.12501105423E+03 0.  0.
          2    1    1    2  501    0  0.48720837926E+02  0.12055164255E+03 -0.46320379409E+03  0.48110723693E+03  0.00000000000E+00 0. -1.
          1    1    1    2  502    0  0.66279606949E+02 -0.55710071397E+01  0.12195784182E+03  0.13891629710E+03  0.00000000000E+00 0. -1.
         22    1    3    3    0    0 -0.47050554295E+02  0.10021367742E+02  0.24506924647E+02  0.53988626826E+02  0.00000000000E+00 0. -1.
         22    1    3    3    0    0 -0.67949890580E+02 -0.12500200315E+03 -0.58928417966E+02  0.15399755474E+03  0.00000000000E+00 0. -1.
</event>
<event>
 7    1  0.5736319E-006  0.7264988E+02  0.7818608E-02  0.1356708E+00
          2   -1    0    0  502    0  0.00000000000E+00  0.00000000000E+00  0.70138633839E+03  0.70138633839E+03  0.00000000000E+00 0. -1.
          1   -1    0    0  501    0 -0.00000000000E+00 -0.00000000000E+00 -0.24405849900E+04  0.24405849900E+04  0.00000000000E+00 0. -1.
         25    2    1    2    0    0  0.24165693053E+01 -0.24269267233E+02  0.89151962029E+02  0.15545950813E+03  0.12499899677E+03 0.  0.
          2    1    1    2  501    0  0.66798313506E+02  0.29306052588E+02 -0.24047970182E+04  0.24059030650E+04  0.00000000000E+00 0. -1.
          1    1    1    2  502    0 -0.69214882812E+02 -0.50367853554E+01  0.57644640463E+03  0.58060875520E+03  0.00000000000E+00 0. -1.
         22    1    3    3    0    0 -0.24044951240E+02  0.44034735346E+02  0.17895531924E+02  0.53267885822E+02  0.00000000000E+00 0.  1.
         22    1    3    3    0    0  0.26461520545E+02 -0.68304002579E+02  0.71256430104E+02  0.10219162230E+03  0.00000000000E+00 0.  1.
</event>
<event>
 7    1  0.5736319E-006  0.1243351E+03  0.7818608E-02  0.1329336E+00
          2   -1    0    0  502    0  0.00000000000E+00  0.00000000000E+00  0.32564701465E+03  0.32564701465E+03  0.00000000000E+00 0. -1.
          1   -1    0    0  501    0 -0.00000000000E+00 -0.00000000000E+00 -0.19239261883E+04  0.19239261883E+04  0.00000000000E+00 0. -1.
         25    2    1    2    0    0 -0.59592953407E+02 -0.14633917633E+03 -0.28123098349E+03  0.34595169801E+03  0.12500094663E+03 0.  0.
          2    1    1    2  501    0 -0.15723189239E+02  0.48878247456E+02 -0.15969720139E+04  0.15977972071E+04  0.00000000000E+00 0. -1.
          1    1    1    2  502    0  0.75316142646E+02  0.97460928879E+02  0.27992382380E+03  0.30582429781E+03  0.00000000000E+00 0. -1.
         22    1    3    3    0    0  0.74888405378E+01 -0.13281530995E+03 -0.18776832380E+03  0.23011504234E+03  0.00000000000E+00 0.  1.
         22    1    3    3    0    0 -0.67081793945E+02 -0.13523866386E+02 -0.93462659692E+02  0.11583665567E+03  0.00000000000E+00 0.  1.
</event>
<event>
 7    1  0.5736319E-006  0.4957627E+02  0.7818608E-02  0.1454388E+00
          2   -1    0    0  502    0  0.00000000000E+00  0.00000000000E+00  0.29740319955E+03  0.29740319955E+03  0.00000000000E+00 0. -1.
          1   -1    0    0  501    0 -0.00000000000E+00 -0.00000000000E+00 -0.34400628367E+03  0.34400628367E+03  0.00000000000E+00 0. -1.
         25    2    1    2    0    0  0.57374532409E+00 -0.33597368001E+02  0.21176163712E+03  0.24818873455E+03  0.12500217871E+03 0.  0.
          2    1    1    2  501    0  0.48180644743E+02 -0.11680413374E+02 -0.30689041494E+03  0.31086899711E+03  0.00000000000E+00 0. -1.
          1    1    1    2  502    0 -0.48754390067E+02  0.45277781375E+02  0.48525693692E+02  0.82351751563E+02  0.00000000000E+00 0. -1.
         22    1    3    3    0    0  0.44747852120E+02 -0.37246909758E+02  0.19017419915E+03  0.19888672298E+03  0.00000000000E+00 0.  1.
         22    1    3    3    0    0 -0.44174106796E+02  0.36495417570E+01  0.21587437962E+02  0.49302011562E+02  0.00000000000E+00 0.  1.
</event>
<event>
 7    1  0.5736319E-006  0.7499125E+02  0.7818608E-02  0.1382704E+00
          2   -1    0    0  502    0  0.00000000000E+00  0.00000000000E+00  0.20904600007E+04  0.20904600007E+04  0.00000000000E+00 0. -1.
          1   -1    0    0  501    0 -0.00000000000E+00 -0.00000000000E+00 -0.13426755402E+03  0.13426755402E+03  0.00000000000E+00 0. -1.
         25    2    1    2    0    0  0.57745503392E+02  0.28416123530E+02  0.57198996569E+03  0.58901558403E+03  0.12499927258E+03 0.  0.
          2    1    1    2  501    0 -0.24719959222E+02 -0.71402121329E+02 -0.11386996284E+03  0.13665909319E+03  0.00000000000E+00 0. -1.
          1    1    1    2  502    0 -0.33025544170E+02  0.42985997800E+02  0.14980724439E+04  0.14990528775E+04  0.00000000000E+00 0. -1.
         22    1    3    3    0    0  0.21811054386E+02  0.87389402114E+01  0.10002990846E+02  0.25537247215E+02  0.00000000000E+00 0.  1.
         22    1    3    3    0    0  0.35934449006E+02  0.19677183318E+02  0.56198697484E+03  0.56347833681E+03  0.00000000000E+00 0.  1.
</event>
<event>
 7    1  0.5736319E-006  0.8654960E+02  0.7818608E-02  0.1352979E+00
          2   -1    0    0  502    0  0.00000000000E+00  0.00000000000E+00  0.82543563744E+03  0.82543563744E+03  0.00000000000E+00 0. -1.
          1   -1    0    0  501    0 -0.00000000000E+00 -0.00000000000E+00 -0.36290157795E+03  0.36290157795E+03  0.00000000000E+00 0. -1.
         25    2    1    2    0    0 -0.36063481050E+02 -0.81757198388E+02 -0.16538054168E+02  0.15454228123E+03  0.12499998119E+03 0.  0.
          2    1    1    2  501    0  0.78832379798E+02  0.39502938856E+02 -0.26911694144E+03  0.28319419919E+03  0.00000000000E+00 0. -1.
          1    1    1    2  502    0 -0.42768898748E+02  0.42254259531E+02  0.74818905511E+03  0.75060073497E+03  0.00000000000E+00 0. -1.
         22    1    3    3    0    0 -0.15966131392E+02 -0.18013525130E+02 -0.66742303017E+02  0.70950260403E+02  0.00000000000E+00 0. -1.
         22    1    3    3    0    0 -0.20097349658E+02 -0.63743673258E+02  0.50204248848E+02  0.83592020828E+02  0.00000000000E+00 0. -1.
</event>
<event>
 7    1  0.5736319E-006  0.1201742E+03  0.7818608E-02  0.1255976E+00
          2   -1    0    0  502    0  0.00000000000E+00  0.00000000000E+00  0.69577007798E+03  0.69577007798E+03  0.00000000000E+00 0. -1.
          1   -1    0    0  501    0 -0.00000000000E+00 -0.00000000000E+00 -0.60522492858E+03  0.60522492858E+03  0.00000000000E+00 0. -1.
         25    2    1    2    0    0  0.16301736283E+03 -0.12865137095E+03  0.51793707351E+03  0.57184632068E+03  0.12499426599E+03 0.  0.
          2    1    1    2  501    0 -0.60946258893E+02  0.10256933954E+03 -0.55270453324E+03  0.56543542244E+03  0.00000000000E+00 0. -1.
          1    1    1    2  502    0 -0.10207110393E+03  0.26082031404E+02  0.12531260913E+03  0.16371326344E+03  0.00000000000E+00 0. -1.
         22    1    3    3    0    0  0.74810510889E+02  0.66774573305E+01  0.11103364603E+03  0.13405100345E+03  0.00000000000E+00 0. -1.
         22    1    3    3    0    0  0.88206851939E+02 -0.13532882828E+03  0.40690342748E+03  0.43779531723E+03  0.00000000000E+00 0. -1.
</event>
<event>
 7    1  0.5736319E-006  0.1411020E+03  0.7818608E-02  0.1363697E+00
          2   -1    0    0  502    0  0.00000000000E+00  0.00000000000E+00  0.56705628759E+03  0.56705628759E+03  0.00000000000E+00 0. -1.
          1   -1    0    0  501    0 -0.00000000000E+00 -0.00000000000E+00 -0.10378003815E+04  0.10378003815E+04  0.00000000000E+00 0. -1.
         25    2    1    2    0    0  0.30344634657E+02  0.16071016725E+03  0.92451285078E+02  0.22565288490E+03  0.12499371840E+03 0.  0.
          2    1    1    2  501    0 -0.24232693073E+02 -0.23410074669E+02 -0.95932160704E+03  0.95991312145E+03  0.00000000000E+00 0. -1.
          1    1    1    2  502    0 -0.61119415847E+01 -0.13730009258E+03  0.39612622809E+03  0.41929066271E+03  0.00000000000E+00 0. -1.
         22    1    3    3    0    0 -0.24148180179E+02  0.13957255717E+03  0.88607951945E+02  0.16707783357E+03  0.00000000000E+00 0.  1.
         22    1    3    3    0    0  0.54492814836E+02  0.21137610082E+02  0.38433331327E+01  0.58575051330E+02  0.00000000000E+00 0.  1.
</event>
<event>
 7    1  0.5736319E-006  0.9223444E+02  0.7818608E-02  0.1335844E+00
          2   -1    0    0  502    0  0.00000000000E+00  0.00000000000E+00  0.20519129200E+04  0.20519129200E+04  0.00000000000E+00 0. -1.
          1   -1    0    0  501    0 -0.00000000000E+00 -0.00000000000E+00 -0.15543190345E+03  0.15543190345E+03  0.00000000000E+00 0. -1.
         25    2    1    2    0    0 -0.12540166047E+03 -0.51272184387E+02  0.51844422872E+02  0.19148545648E+03  0.12499769005E+03 0.  0.
          2    1    1    2  501    0  0.85993422835E+02 -0.89415535835E+00 -0.63312682425E+02  0.10679028065E+03  0.00000000000E+00 0. -1.
          1    1    1    2  502    0  0.39408237636E+02  0.52166339745E+02  0.19079492761E+04  0.19090690864E+04  0.00000000000E+00 0. -1.
         22    1    3    3    0    0 -0.33025871705E+02 -0.65357679320E+02  0.64000860867E+02  0.97254535317E+02  0.00000000000E+00 0.  1.
         22    1    3    3    0    0 -0.92375788766E+02  0.14085494933E+02 -0.12156437994E+02  0.94230921159E+02  0.00000000000E+00 0.  1.
</event>
<event>
 7    1  0.5736319E-006  0.5304817E+02  0.7818608E-02  0.1463996E+00
          2   -1    0    0  502    0  0.00000000000E+00  0.00000000000E+00  0.10347209597E+03  0.10347209597E+03  0.00000000000E+00 0. -1.
          1   -1    0    0  501    0 -0.00000000000E+00 -0.00000000000E+00 -0.29716352235E+03  0.29716352235E+03  0.00000000000E+00 0. -1.
         25    2    1    2    0    0 -0.50015312174E+02 -0.71685151249E+02 -0.64085482251E+01  0.15266625191E+03  0.12500249045E+03 0.  0.
          2    1    1    2  501    0  0.15552655705E+02  0.49267270527E+02 -0.19869541602E+03  0.20530225862E+03  0.00000000000E+00 0. -1.
          1    1    1    2  502    0  0.34462656469E+02  0.22417880722E+02  0.11412537872E+02  0.42667107795E+02  0.00000000000E+00 0. -1.
         22    1    3    3    0    0 -0.10381256867E+02 -0.74111382535E+02 -0.52811093356E+02  0.91593007904E+02  0.00000000000E+00 0.  1.
         22    1    3    3    0    0 -0.39634055307E+02  0.24262312857E+01  0.46402545131E+02  0.61073244002E+02  0.00000000000E+00 0.  1.
</event>
<event>
 7    1  0.5736319E-006  0.6386429E+02  0.7818608E-02  0.1412267E+00
          2   -1    0    0  502    0  0.00000000000E+00  0.00000000000E+00  0.50121224296E+02  0.50121224296E+02  0.00000000000E+00 0. -1.
          1   -1    0    0  501    0 -0.00000000000E+00 -0.00000000000E+00 -0.91735159207E+03  0.91735159207E+03  0.00000000000E+00 0. -1.
         25    2    1    2    0    0  0.16436956251E+01 -0.26789277282E+02 -0.25795416088E+03  0.28790009327E+03  0.12500298987E+03 0.  0.
          2    1    1    2  501    0 -0.44628626498E+02  0.52956990852E+02 -0.62345521878E+03  0.62728985884E+03  0.00000000000E+00 0. -1.
          1    1    1    2  502    0  0.42984930873E+02 -0.26167713570E+02  0.14179011895E+02  0.52282864247E+02  0.00000000000E+00 0. -1.
         22    1    3    3    0    0  0.35592825936E+02 -0.60433854917E+02 -0.20450277597E+03  0.21619547974E+03  0.00000000000E+00 0. -1.
         22    1    3    3    0    0 -0.33949130311E+02  0.33644577635E+02 -0.53451384912E+02  0.71704613535E+02  0.00000000000E+00 0. -1.
</event>
<event>
 7    1  0.5736319E-006  0.1386688E+03  0.7818608E-02  0.1319665E+00
          2   -1    0    0  502    0  0.00000000000E+00  0.00000000000E+00  0.11491462548E+03  0.11491462548E+03  0.00000000000E+00 0. -1.
          1   -1    0    0  501    0 -0.00000000000E+00 -0.00000000000E+00 -0.11078537563E+04  0.11078537563E+04  0.00000000000E+00 0. -1.
         25    2    1    2    0    0  0.13756434745E+03 -0.45941614770E+02 -0.64241835625E+02  0.20195779895E+03  0.12500142981E+03 0.  0.
          2    1    1    2  501    0 -0.10837515231E+03  0.86736490270E+02 -0.95440364056E+03  0.96444528176E+03  0.00000000000E+00 0. -1.
          1    1    1    2  502    0 -0.29189195134E+02 -0.40794875500E+02  0.25706345332E+02  0.56365301116E+02  0.00000000000E+00 0. -1.
         22    1    3    3    0    0  0.15956716092E+03 -0.49158908069E+02 -0.66248684473E+02  0.17963063569E+03  0.00000000000E+00 0.  1.
         22    1    3    3    0    0 -0.22002813468E+02  0.32172932992E+01  0.20068488477E+01  0.22327163254E+02  0.00000000000E+00 0.  1.
</event>
<event>
 7    1  0.5736319E-006  0.9711595E+02  0.7818608E-02  0.1350720E+00
          2   -1    0    0  502    0  0.00000000000E+00  0.00000000000E+00  0.94980777320E+02  0.94980777320E+02  0.00000000000E+00 0. -1.
          1   -1    0    0  501    0 -0.00000000000E+00 -0.00000000000E+00 -0.78909243841E+03  0.78909243841E+03  0.00000000000E+00 0. -1.
         25    2    1    2    0    0 -0.11612081040E+03 -0.41205343723E+02 -0.13894075425E+03  0.22385849718E+03  0.12500468235E+03 0.  0.
          2    1    1    2  501    0  0.68098497308E+02  0.67227876857E+02 -0.58850002634E+03  0.59622921244E+03  0.00000000000E+00 0. -1.
          1    1    1    2  502    0  0.48022313088E+02 -0.26022533134E+02  0.33329119507E+02  0.63985506110E+02  0.00000000000E+00 0. -1.
         22    1    3    3    0    0 -0.42542083710E+02 -0.56829769383E+02 -0.61646606274E+01  0.71256260182E+02  0.00000000000E+00 0. -1.
         22    1    3    3    0    0 -0.73578726686E+02  0.15624425660E+02 -0.13277609363E+03  0.15260223700E+03  0.00000000000E+00 0. -1.
</event>
<event>
 7    1  0.5736319E-006  0.6828445E+02  0.7818608E-02  0.1497707E+00
          2   -1    0    0  502    0  0.00000000000E+00  0.00000000000E+00  0.18919963134E+03  0.18919963134E+03  0.00000000000E+00 0. -1.
          1   -1    0    0  501    0 -0.00000000000E+00 -0.00000000000E+00 -0.10550147778E+04  0.10550147778E+04  0.00000000000E+00 0. -1.
         25    2    1    2    0    0  0.16894578611E+02 -0.62240098361E+02 -0.12921611546E+03  0.19099967965E+03  0.12499926600E+03 0.  0.
          2    1    1    2  501    0  0.75647076981E+01  0.68212453483E+02 -0.89258007255E+03  0.89521469466E+03  0.00000000000E+00 0. -1.
          1    1    1    2  502    0 -0.24459286309E+02 -0.59723551219E+01  0.15598104151E+03  0.15800003488E+03  0.00000000000E+00 0. -1.
         22    1    3    3    0    0  0.26276603710E+02 -0.22571077641E+01  0.17882630510E+02  0.31864445891E+02  0.00000000000E+00 0. -1.
         22    1    3    3    0    0 -0.93820250985E+01 -0.59982990597E+02 -0.14709874597E+03  0.15913523376E+03  0.00000000000E+00 0. -1.
</event>
<event>
 7    1  0.5736319E-006  0.8595424E+02  0.7818608E-02  0.1495174E+00
          2   -1    0    0  502    0  0.00000000000E+00  0.00000000000E+00  0.34688181970E+02  0.34688181970E+02  0.00000000000E+00 0. -1.
          1   -1    0    0  501    0 -0.00000000000E+00 -0.00000000000E+00 -0.69796561806E+03  0.69796561806E+03  0.00000000000E+00 0. -1.
         25    2    1    2    0    0 -0.52640208546E+02 -0.46142683734E+02 -0.41633731901E+03  0.44031205854E+03  0.12505121699E+03 0.  0.
          2    1    1    2  501    0 -0.96490786406E+01 -0.17922488196E+02 -0.17883938590E+03  0.17999401726E+03  0.00000000000E+00 0. -1.
          1    1    1    2  502    0  0.62289287187E+02  0.64065171930E+02 -0.68100731174E+02  0.11234772423E+03  0.00000000000E+00 0. -1.
         22    1    3    3    0    0 -0.56231786135E+02 -0.47236359259E+02 -0.42477507251E+03  0.43107673289E+03  0.00000000000E+00 0.  1.
         22    1    3    3    0    0  0.35915775885E+01  0.10936755243E+01  0.84377534998E+01  0.92353256494E+01  0.00000000000E+00 0.  1.
</event>
<event>
 7    1  0.5736319E-006  0.4953975E+02  0.7818608E-02  0.1551501E+00
          2   -1    0    0  502    0  0.00000000000E+00  0.00000000000E+00  0.41199476375E+03  0.41199476375E+03  0.00000000000E+00 0. -1.
          1   -1    0    0  501    0 -0.00000000000E+00 -0.00000000000E+00 -0.13630191362E+04  0.13630191362E+04  0.00000000000E+00 0. -1.
         25    2    1    2    0    0 -0.53226151799E+02  0.51064441197E+02  0.31624010609E+03  0.34795572882E+03  0.12499913652E+03 0.  0.
          2    1    1    2  501    0  0.35200261971E+02 -0.34811480975E+02 -0.13448520164E+04  0.13457629225E+04  0.00000000000E+00 0. -1.
          1    1    1    2  502    0  0.18025889828E+02 -0.16252960222E+02  0.77587537834E+02  0.81295248614E+02  0.00000000000E+00 0. -1.
         22    1    3    3    0    0  0.15955524447E+01  0.73106583379E+02  0.24349197310E+03  0.25423504732E+03  0.00000000000E+00 0. -1.
         22    1    3    3    0    0 -0.54821704244E+02 -0.22042142182E+02  0.72748132989E+02  0.93720681504E+02  0.00000000000E+00 0. -1.
</event>
<event>
 7    1  0.5736319E-006  0.1082923E+03  0.7818608E-02  0.1432317E+00
          2   -1    0    0  502    0  0.00000000000E+00  0.00000000000E+00  0.43630128187E+03  0.43630128187E+03  0.00000000000E+00 0. -1.
          1   -1    0    0  501    0 -0.00000000000E+00 -0.00000000000E+00 -0.13475491013E+03  0.13475491013E+03  0.00000000000E+00 0. -1.
         25    2    1    2    0    0 -0.86645782005E+01  0.89971869712E+02 -0.10591936037E+02  0.15462113035E+03  0.12500197033E+03 0.  0.
          2    1    1    2  501    0 -0.19233704784E+02  0.16665837421E+02 -0.40021377942E+02  0.47427800171E+02  0.00000000000E+00 0. -1.
          1    1    1    2  502    0  0.27898282985E+02 -0.10663770713E+03  0.35215968572E+03  0.36900726147E+03  0.00000000000E+00 0. -1.
         22    1    3    3    0    0 -0.54310011281E+02  0.20973043249E+02 -0.35541560241E+02  0.68210324533E+02  0.00000000000E+00 0. -1.
         22    1    3    3    0    0  0.45645433081E+02  0.68998826464E+02  0.24949624204E+02  0.86410805820E+02  0.00000000000E+00 0. -1.
</event>
<event>
 7    1  0.5736319E-006  0.5689247E+02  0.7818608E-02  0.1448613E+00
          2   -1    0    0  502    0  0.00000000000E+00  0.00000000000E+00  0.16016518407E+03  0.16016518407E+03  0.00000000000E+00 0. -1.
          1   -1    0    0  501    0 -0.00000000000E+00 -0.00000000000E+00 -0.20378170266E+04  0.20378170266E+04  0.00000000000E+00 0. -1.
         25    2    1    2    0    0 -0.91638365539E+01  0.34105699418E+02  0.58997808823E+02  0.14265176201E+03  0.12498643577E+03 0.  0.
          2    1    1    2  501    0  0.27803424455E+02  0.32659712561E+02 -0.19754339226E+04  0.19758995090E+04  0.00000000000E+00 0. -1.
          1    1    1    2  502    0 -0.18639587901E+02 -0.66765411979E+02  0.38784271252E+02  0.79430939629E+02  0.00000000000E+00 0. -1.
         22    1    3    3    0    0  0.28303669735E+02  0.67740442151E+02  0.55774116833E+02  0.92198792464E+02  0.00000000000E+00 0.  1.
         22    1    3    3    0    0 -0.37467506288E+02 -0.33634742733E+02  0.32236919897E+01  0.50452969548E+02  0.00000000000E+00 0.  1.
</event>
<event>
 7    1  0.5736319E-006  0.7858587E+02  0.7818608E-02  0.1336879E+00
          2   -1    0    0  502    0  0.00000000000E+00  0.00000000000E+00  0.18214558970E+04  0.18214558970E+04  0.00000000000E+00 0. -1.
          1   -1    0    0  501    0 -0.00000000000E+00 -0.00000000000E+00 -0.94470631990E+03  0.94470631990E+03  0.00000000000E+00 0. -1.
         25    2    1    2    0    0  0.14394156279E+03  0.44433444474E+02  0.54367698671E+03  0.57784337923E+03  0.12499920223E+03 0.  0.
          2    1    1    2  501    0 -0.68106206145E+02 -0.38800715521E+02 -0.92481699614E+03  0.92813276377E+03  0.00000000000E+00 0. -1.
          1    1    1    2  502    0 -0.75835356641E+02 -0.56327289528E+01  0.12578895865E+04  0.12601860739E+04  0.00000000000E+00 0. -1.
         22    1    3    3    0    0  0.38757380625E+02  0.76349237932E+02  0.25133759098E+03  0.26552198652E+03  0.00000000000E+00 0.  1.
         22    1    3    3    0    0  0.10518418216E+03 -0.31915793459E+02  0.29233939573E+03  0.31232139271E+03  0.00000000000E+00 0.  1.
</event>
<event>
 7    1  0.5736319E-006  0.8949433E+02  0.7818608E-02  0.1356845E+00
          2   -1    0    0  502    0  0.00000000000E+00  0.00000000000E+00  0.12645110240E+04  0.12645110240E+04  0.00000000000E+00 0. -1.
          1   -1    0    0  501    0 -0.00000000000E+00 -0.00000000000E+00 -0.11613812646E+04  0.11613812646E+04  0.00000000000E+00 0. -1.
         25    2    1    2    0    0  0.11634675709E+03  0.62594235520E-01  0.31656004423E+02  0.17367734242E+03  0.12500057940E+03 0.  0.
          2    1    1    2  501    0 -0.78823185484E+02  0.41870347738E+02 -0.10878605562E+04  0.10915158315E+04  0.00000000000E+00 0. -1.
          1    1    1    2  502    0 -0.37523571604E+02 -0.41932941974E+02  0.11593343111E+04  0.11606991148E+04  0.00000000000E+00 0. -1.
         22    1    3    3    0    0  0.35693244159E+02 -0.59239674525E+02  0.16993819374E+01  0.69182617870E+02  0.00000000000E+00 0. -1.
         22    1    3    3    0    0  0.80653512929E+02  0.59302268760E+02  0.29956622486E+02  0.10449472455E+03  0.00000000000E+00 0. -1.
</event>
<event>
 7    1  0.5736319E-006  0.6465165E+02  0.7818608E-02  0.1446794E+00
          2   -1    0    0  502    0  0.00000000000E+00  0.00000000000E+00  0.36282139785E+03  0.36282139785E+03  0.00000000000E+00 0. -1.
          1   -1    0    0  501    0 -0.00000000000E+00 -0.00000000000E+00 -0.41556966243E+03  0.41556966243E+03  0.00000000000E+00 0. -1.
         25    2    1    2    0    0  0.51361297137E+02 -0.26568737293E+02 -0.23817050030E+03  0.27512699070E+03  0.12500317257E+03 0.  0.
          2    1    1    2  501    0 -0.22023186505E+02 -0.31279835195E+02 -0.15349785516E+03  0.15819304780E+03  0.00000000000E+00 0. -1.
          1    1    1    2  502    0 -0.29338110633E+02  0.57848572487E+02  0.33892009088E+03  0.34507102179E+03  0.00000000000E+00 0. -1.
         22    1    3    3    0    0 -0.16997164360E+02  0.26228956205E+02 -0.14396209089E+03  0.14731580144E+03  0.00000000000E+00 0. -1.
         22    1    3    3    0    0  0.68358461497E+02 -0.52797693497E+02 -0.94208409411E+02  0.12781118926E+03  0.00000000000E+00 0. -1.
</event>
<event>
 7    1  0.5736319E-006  0.8858599E+02  0.7818608E-02  0.1410187E+00
          2   -1    0    0  502    0  0.00000000000E+00  0.00000000000E+00  0.85102522037E+03  0.85102522037E+03  0.00000000000E+00 0. -1.
          1   -1    0    0  501    0 -0.00000000000E+00 -0.00000000000E+00 -0.17360487928E+03  0.17360487928E+03  0.00000000000E+00 0. -1.
         25    2    1    2    0    0 -0.11496335868E+03 -0.94784063512E+01 -0.43874164384E+02  0.17566178090E+03  0.12500281974E+03 0.  0.
          2    1    1    2  501    0  0.78091704912E+02  0.96796556792E+01 -0.38969844825E+02  0.87810357679E+02  0.00000000000E+00 0. -1.
          1    1    1    2  502    0  0.36871653771E+02 -0.20124932799E+00  0.76026435030E+03  0.76115796106E+03  0.00000000000E+00 0. -1.
         22    1    3    3    0    0 -0.12809904913E+03 -0.41430283741E+02 -0.27416985739E+02  0.13739550905E+03  0.00000000000E+00 0.  1.
         22    1    3    3    0    0  0.13135690452E+02  0.31951877389E+02 -0.16457178644E+02  0.38266271850E+02  0.00000000000E+00 0.  1.
</event>
<event>
 7    1  0.5736319E-006  0.1466883E+03  0.7818608E-02  0.1314245E+00
          2   -1    0    0  502    0  0.00000000000E+00  0.00000000000E+00  0.82787822653E+02  0.82787822653E+02  0.00000000000E+00 0. -1.
          1   -1    0    0  501    0 -0.00000000000E+00 -0.00000000000E+00 -0.11988178196E+04  0.11988178196E+04  0.00000000000E+00 0. -1.
         25    2    1    2    0    0  0.12824191810E+03  0.24184657960E+02 -0.21227513731E+03  0.27877930201E+03  0.12500511218E+03 0.  0.
          2    1    1    2  501    0  0.10962468705E+02  0.48561576011E+02 -0.82612350482E+03  0.82762216476E+03  0.00000000000E+00 0. -1.
          1    1    1    2  502    0 -0.13920438681E+03 -0.72746233971E+02 -0.77631354856E+02  0.17520417552E+03  0.00000000000E+00 0. -1.
         22    1    3    3    0    0  0.15126447926E+03  0.34803181880E+02 -0.17849443113E+03  0.23654273631E+03  0.00000000000E+00 0. -1.
         22    1    3    3    0    0 -0.23022561160E+02 -0.10618523920E+02 -0.33780706179E+02  0.42236565705E+02  0.00000000000E+00 0. -1.
</event>
<event>
 7    1  0.5736319E-006  0.5954222E+02  0.7818608E-02  0.1401260E+00
          2   -1    0    0  502    0  0.00000000000E+00  0.00000000000E+00  0.43783173280E+03  0.43783173280E+03  0.00000000000E+00 0. -1.
          1   -1    0    0  501    0 -0.00000000000E+00 -0.00000000000E+00 -0.11592339737E+04  0.11592339737E+04  0.00000000000E+00 0. -1.
         25    2    1    2    0    0 -0.96353045602E+02  0.20037205087E+01 -0.13015198648E+03  0.20458031502E+03  0.12500256564E+03 0.  0.
          2    1    1    2  501    0  0.49023342349E+02  0.32955719621E+02 -0.98882106176E+03  0.99058389838E+03  0.00000000000E+00 0. -1.
          1    1    1    2  502    0  0.47329703254E+02 -0.34959440130E+02  0.39757080736E+03  0.40190149307E+03  0.00000000000E+00 0. -1.
         22    1    3    3    0    0 -0.72906125852E+02  0.34998933209E+02 -0.14111362487E+03  0.16264465450E+03  0.00000000000E+00 0.  1.
         22    1    3    3    0    0 -0.23446919750E+02 -0.32995212700E+02  0.10961638393E+02  0.41935660519E+02  0.00000000000E+00 0.  1.
</event>
<event>
 7    1  0.5736319E-006  0.4683581E+02  0.7818608E-02  0.1557196E+00
          2   -1    0    0  502    0  0.00000000000E+00  0.00000000000E+00  0.44437660741E+03  0.44437660741E+03  0.00000000000E+00 0. -1.
          1   -1    0    0  501    0 -0.00000000000E+00 -0.00000000000E+00 -0.66996631916E+03  0.66996631916E+03  0.00000000000E+00 0. -1.
         25    2    1    2    0    0  0.37377316155E+02  0.29277578196E+02 -0.32429971591E+03  0.35078131207E+03  0.12499193097E+03 0.  0.
          2    1    1    2  501    0  0.90632131505E+01 -0.23036870408E+02 -0.33068859049E+03  0.33161390669E+03  0.00000000000E+00 0. -1.
          1    1    1    2  502    0 -0.46440529305E+02 -0.62407077889E+01  0.42939859465E+03  0.43194770781E+03  0.00000000000E+00 0. -1.
         22    1    3    3    0    0 -0.13106557423E+01  0.51037646039E+02 -0.45243143200E+02  0.68216575246E+02  0.00000000000E+00 0.  1.
         22    1    3    3    0    0  0.38687971897E+02 -0.21760067842E+02 -0.27905657271E+03  0.28256473683E+03  0.00000000000E+00 0.  1.
</event>
<event>
 7    1  0.5736319E-006  0.1393944E+03  0.7818608E-02  0.1368994E+00
          2   -1    0    0  502    0  0.00000000000E+00  0.00000000000E+00  0.11137569544E+04  0.11137569544E+04  0.00000000000E+00 0. -1.
          1   -1    0    0  501    0 -0.00000000000E+00 -0.00000000000E+00 -0.21935589312E+03  0.21935589312E+03  0.00000000000E+00 0. -1.
         25    2    1    2    0    0 -0.12211827336E+03  0.51363781366E+02  0.13400005907E+03  0.22612150498E+03  0.12499523375E+03 0.  0.
          2    1    1    2  501    0 -0.16511015117E+02 -0.28150363508E+02 -0.16641125202E+03  0.16958113511E+03  0.00000000000E+00 0. -1.
          1    1    1    2  502    0  0.13862928847E+03 -0.23213417857E+02  0.92681225421E+03  0.93741020740E+03  0.00000000000E+00 0. -1.
         22    1    3    3    0    0 -0.11823915899E+03 -0.34766145180E+01  0.12183812377E+03  0.16981494036E+03  0.00000000000E+00 0.  1.
         22    1    3    3    0    0 -0.38791143711E+01  0.54840395884E+02  0.12161935300E+02  0.56306564619E+02  0.00000000000E+00 0.  1.
</event>
<event>
 7    1  0.5736319E-006  0.1109711E+03  0.7818608E-02  0.1286916E+00
          2   -1    0    0  502    0  0.00000000000E+00  0.00000000000E+00  0.66520978369E+03  0.66520978369E+03  0.00000000000E+00 0. -1.
          1   -1    0    0  501    0 -0.00000000000E+00 -0.00000000000E+00 -0.33571041577E+04  0.33571041577E+04  0.00000000000E+00 0. -1.
         25    2    1    2    0    0  0.30523657340E+02  0.24787782763E+02 -0.12411117917E+03  0.18048522711E+03  0.12500081831E+03 0.  0.
          2    1    1    2  501    0 -0.50018694956E-01  0.84642847850E+02 -0.31991776672E+04  0.32002971988E+04  0.00000000000E+00 0. -1.
          1    1    1    2  502    0 -0.30473638645E+02 -0.10943063061E+03  0.63139447240E+03  0.64153151547E+03  0.00000000000E+00 0. -1.
         22    1    3    3    0    0 -0.35852023189E+02 -0.13790949914E+02 -0.87229771073E+02  0.95313119914E+02  0.00000000000E+00 0. -1.
         22    1    3    3    0    0  0.66375680529E+02  0.38578732677E+02 -0.36881408100E+02  0.85172107195E+02  0.00000000000E+00 0. -1.
</event>
<event>
 7    1  0.5736319E-006  0.4962290E+02  0.7818608E-02  0.1525376E+00
          2   -1    0    0  502    0  0.00000000000E+00  0.00000000000E+00  0.10727703862E+04  0.10727703862E+04  0.00000000000E+00 0. -1.
          1   -1    0    0  501    0 -0.00000000000E+00 -0.00000000000E+00 -0.32912074335E+03  0.32912074335E+03  0.00000000000E+00 0. -1.
         25    2    1    2    0    0 -0.39880412801E+02 -0.53480101761E+02  0.43445293430E+03  0.45697249381E+03  0.12499575741E+03 0.  0.
          2    1    1    2  501    0  0.42862856599E+02  0.24902730940E+02 -0.31559605442E+03  0.31946555377E+03  0.00000000000E+00 0. -1.
          1    1    1    2  502    0 -0.29824437978E+01  0.28577370820E+02  0.62479276293E+03  0.62545308194E+03  0.00000000000E+00 0. -1.
         22    1    3    3    0    0  0.39873107966E+02  0.68346835829E+01  0.15408412830E+03  0.15930629690E+03  0.00000000000E+00 0. -1.
         22    1    3    3    0    0 -0.79753520767E+02 -0.60314785344E+02  0.28036880600E+03  0.29766619691E+03  0.00000000000E+00 0. -1.
</event>
<event>
 7    1  0.5736319E-006  0.1850997E+03  0.7818608E-02  0.1189657E+00
          2   -1    0    0  502    0  0.00000000000E+00  0.00000000000E+00  0.14674293315E+04  0.14674293315E+04  0.00000000000E+00 0. -1.
          1   -1    0    0  501    0 -0.00000000000E+00 -0.00000000000E+00 -0.12141123370E+04  0.12141123370E+04  0.00000000000E+00 0. -1.
         25    2    1    2    0    0  0.20945498540E+03 -0.17401595461E+03  0.20569791128E+03  0.36344094506E+03  0.12499898591E+03 0.  0.
          2    1    1    2  501    0 -0.13649237365E+03  0.97892791175E+01 -0.11242425753E+04  0.11325402272E+04  0.00000000000E+00 0. -1.
          1    1    1    2  502    0 -0.72962611749E+02  0.16422667549E+03  0.11718616585E+04  0.11855604963E+04  0.00000000000E+00 0. -1.
         22    1    3    3    0    0  0.15593039531E+03 -0.14902345632E+03  0.90354602376E+02  0.23385087745E+03  0.00000000000E+00 0. -1.
         22    1    3    3    0    0  0.53524590096E+02 -0.24992498282E+02  0.11534330890E+03  0.12959006761E+03  0.00000000000E+00 0. -1.
</event>
<event>
 7    1  0.5736319E-006  0.8217365E+02  0.7818608E-02  0.1410506E+00
          2   -1    0    0  502    0  0.00000000000E+00  0.00000000000E+00  0.22273614113E+03  0.22273614113E+03  0.00000000000E+00 0. -1.
          1   -1    0    0  501    0 -0.00000000000E+00 -0.00000000000E+00 -0.12438092925E+04  0.12438092925E+04  0.00000000000E+00 0. -1.
         25    2    1    2    0    0  0.18462582265E+02 -0.76607238498E+02  0.17440957198E+02  0.14879244745E+03  0.12500187797E+03 0.  0.
          2    1    1    2  501    0  0.21070962287E+02  0.79654290411E+02 -0.11738449313E+04  0.11767330683E+04  0.00000000000E+00 0. -1.
          1    1    1    2  502    0 -0.39533544551E+02 -0.30470519133E+01  0.13533082268E+03  0.14101991787E+03  0.00000000000E+00 0. -1.
         22    1    3    3    0    0 -0.23917763157E+02  0.26813850831E+02  0.23106050201E+01  0.36005289700E+02  0.00000000000E+00 0. -1.
         22    1    3    3    0    0  0.42380345422E+02 -0.10342108933E+03  0.15130352177E+02  0.11278715775E+03  0.00000000000E+00 0. -1.
</event>
<event>
 7    1  0.5736319E-006  0.3713268E+02  0.7818608E-02  0.1583296E+00
          2   -1    0    0  502    0  0.00000000000E+00  0.00000000000E+00  0.26366024403E+04  0.26366024403E+04  0.00000000000E+00 0. -1.
          1   -1    0    0  501    0 -0.00000000000E+00 -0.00000000000E+00 -0.16753825480E+03  0.16753825480E+03  0.00000000000E+00 0. -1.
         25    2    1    2    0    0  0.47325531164E+02 -0.41823115843E+02  0.92684729100E+03  0.93736854444E+03  0.12500003341E+03 0.  0.
          2    1    1    2  501    0 -0.25209786424E+02  0.27183902222E+02 -0.16005547082E+03  0.16429318796E+03  0.00000000000E+00 0. -1.
          1    1    1    2  502    0 -0.22115744739E+02  0.14639213621E+02  0.17022723654E+04  0.17024789627E+04  0.00000000000E+00 0. -1.
         22    1    3    3    0    0  0.71719627667E+02 -0.64459065621E+02  0.81472706148E+03  0.82041383511E+03  0.00000000000E+00 0. -1.
         22    1    3    3    0    0 -0.24394096503E+02  0.22635949778E+02  0.11212022953E+03  0.11695470934E+03  0.00000000000E+00 0. -1.
</event>
<event>
 7    1  0.5736319E-006  0.1310672E+03  0.7818608E-02  0.1277613E+00
          2   -1    0    0  502    0  0.00000000000E+00  0.00000000000E+00  0.97754618305E+03  0.97754618305E+03  0.00000000000E+00 0. -1.
          1   -1    0    0  501    0 -0.00000000000E+00 -0.00000000000E+00 -0.49482852247E+03  0.49482852247E+03  0.00000000000E+00 0. -1.
         25    2    1    2    0    0  0.22956642243E+02  0.52210912913E+02 -0.17493643472E+03  0.22244307856E+03  0.12500072063E+03 0.  0.
          2    1    1    2  501    0  0.20583494886E+01  0.78245623433E+02 -0.28623368174E+03  0.29674287684E+03  0.00000000000E+00 0. -1.
          1    1    1    2  502    0 -0.25014991732E+02 -0.13045653635E+03  0.94388777704E+03  0.95318875011E+03  0.00000000000E+00 0. -1.
         22    1    3    3    0    0  0.69271186947E+02  0.55009024003E+02 -0.93470656241E+02  0.12869053439E+03  0.00000000000E+00 0. -1.
         22    1    3    3    0    0 -0.46314544704E+02 -0.27981110900E+01 -0.81465778478E+02  0.93752544177E+02  0.00000000000E+00 0. -1.
</event>
<event>
 7    1  0.5736319E-006  0.1165300E+03  0.7818608E-02  0.1304320E+00
          2   -1    0    0  502    0  0.00000000000E+00  0.00000000000E+00  0.55198497824E+03  0.55198497824E+03  0.00000000000E+00 0. -1.
          1   -1    0    0  501    0 -0.00000000000E+00 -0.00000000000E+00 -0.63759467908E+03  0.63759467908E+03  0.00000000000E+00 0. -1.
         25    2    1    2    0    0  0.72978369528E+02  0.11484562659E+03 -0.40788600806E+02  0.18921979041E+03  0.12500023505E+03 0.  0.
          2    1    1    2  501    0  0.30447549578E+02 -0.61451701088E+02 -0.51318625095E+03  0.51774848431E+03  0.00000000000E+00 0. -1.
          1    1    1    2  502    0 -0.10342591911E+03 -0.53393925497E+02  0.46836515092E+03  0.48261138260E+03  0.00000000000E+00 0. -1.
         22    1    3    3    0    0  0.36795417447E+02  0.48140393162E+02  0.44410666964E+02  0.75124613404E+02  0.00000000000E+00 0. -1.
         22    1    3    3    0    0  0.36182952081E+02  0.66705233423E+02 -0.85199267770E+02  0.11409517701E+03  0.00000000000E+00 0. -1.
</event>
<event>
 7    1  0.5736319E-006  0.6091289E+02  0.7818608E-02  0.1445011E+00
          2   -1    0    0  502    0  0.00000000000E+00  0.00000000000E+00  0.55421428610E+03  0.55421428610E+03  0.00000000000E+00 0. -1.
          1   -1    0    0  501    0 -0.00000000000E+00 -0.00000000000E+00 -0.15924174367E+03  0.15924174367E+03  0.00000000000E+00 0. -1.
         25    2    1    2    0    0 -0.74694427259E+02 -0.29889291724E+02  0.22537090565E+03  0.26997579863E+03  0.12498903755E+03 0.  0.
          2    1    1    2  501    0  0.37607615255E+02 -0.16685411774E+02 -0.13086072000E+03  0.13717603191E+03  0.00000000000E+00 0. -1.
          1    1    1    2  502    0  0.37086812004E+02  0.46574703498E+02  0.30046235678E+03  0.30630419924E+03  0.00000000000E+00 0. -1.
         22    1    3    3    0    0 -0.39749852141E+02 -0.29638766876E+02  0.84989795944E+01  0.50306459837E+02  0.00000000000E+00 0.  1.
         22    1    3    3    0    0 -0.34944575118E+02 -0.25052484803E+00  0.21687192606E+03  0.21966933879E+03  0.00000000000E+00 0.  1.
</event>
<event>
 7    1  0.5736319E-006  0.7971987E+02  0.7818608E-02  0.1330521E+00
          2   -1    0    0  502    0  0.00000000000E+00  0.00000000000E+00  0.68769890936E+03  0.68769890936E+03  0.00000000000E+00 0. -1.
          1   -1    0    0  501    0 -0.00000000000E+00 -0.00000000000E+00 -0.32228134596E+03  0.32228134596E+03  0.00000000000E+00 0. -1.
         25    2    1    2    0    0 -0.57740687119E+02  0.55674413455E+02  0.96882529135E+02  0.17732734629E+03  0.12500054412E+03 0.  0.
          2    1    1    2  501    0  0.78614100249E+02  0.20777254248E+02 -0.27325534290E+03  0.28509709482E+03  0.00000000000E+00 0. -1.
          1    1    1    2  502    0 -0.20873413129E+02 -0.76451667703E+02  0.54179037717E+03  0.54755581420E+03  0.00000000000E+00 0. -1.
         22    1    3    3    0    0 -0.73045320859E+02  0.83041088188E+02  0.51084406515E+02  0.12182388032E+03  0.00000000000E+00 0. -1.
         22    1    3    3    0    0  0.15304633739E+02 -0.27366674733E+02  0.45798122620E+02  0.55503465976E+02  0.00000000000E+00 0. -1.
</event>
<event>
 7    1  0.5736319E-006  0.1260505E+03  0.7818608E-02  0.1246054E+00
          2   -1    0    0  502    0  0.00000000000E+00  0.00000000000E+00  0.18392611288E+04  0.18392611288E+04  0.00000000000E+00 0. -1.
          1   -1    0    0  501    0 -0.00000000000E+00 -0.00000000000E+00 -0.15457741652E+03  0.15457741652E+03  0.00000000000E+00 0. -1.
         25    2    1    2    0    0 -0.86436916901E+02  0.17744446236E+03  0.67876905971E+03  0.71785002542E+03  0.12499337883E+03 0.  0.
          2    1    1    2  501    0  0.10393102240E+03 -0.67947934352E+02 -0.10313041152E+03  0.16141394296E+03  0.00000000000E+00 0. -1.
          1    1    1    2  502    0 -0.17494105502E+02 -0.10949652801E+03  0.11090450640E+04  0.11145745769E+04  0.00000000000E+00 0. -1.
         22    1    3    3    0    0 -0.43039358630E+02  0.59501916580E+02  0.45772053952E+03  0.46357411141E+03  0.00000000000E+00 0.  1.
         22    1    3    3    0    0 -0.43397558271E+02  0.11794254578E+03  0.22104852019E+03  0.25427591401E+03  0.00000000000E+00 0.  1.
</event>
<event>
 7    1  0.5736319E-006  0.6172343E+02  0.7818608E-02  0.1490184E+00
          2   -1    0    0  502    0  0.00000000000E+00  0.00000000000E+00  0.12825705710E+04  0.12825705710E+04  0.00000000000E+00 0. -1.
          1   -1    0    0  501    0 -0.00000000000E+00 -0.00000000000E+00 -0.13517871641E+03  0.13517871641E+03  0.00000000000E+00 0. -1.
         25    2    1    2    0    0 -0.70239599311E+02  0.17929610473E+02  0.27505464408E+03  0.31070253006E+03  0.12500373081E+03 0.  0.
          2    1    1    2  501    0  0.21700094273E+02  0.19753639226E+02 -0.11454967126E+03  0.11824858367E+03  0.00000000000E+00 0. -1.
          1    1    1    2  502    0  0.48539505038E+02 -0.37683249698E+02  0.98688688181E+03  0.98879817372E+03  0.00000000000E+00 0. -1.
         22    1    3    3    0    0  0.14359365343E+02  0.14697738138E+02 -0.23358987899E+01  0.20680215245E+02  0.00000000000E+00 0. -1.
         22    1    3    3    0    0 -0.84598964654E+02  0.32318723346E+01  0.27739054287E+03  0.29002231482E+03  0.00000000000E+00 0. -1.
</event>
<event>
 7    1  0.5736319E-006  0.9123984E+02  0.7818608E-02  0.1459566E+00
          2   -1    0    0  502    0  0.00000000000E+00  0.00000000000E+00  0.25365611397E+04  0.25365611397E+04  0.00000000000E+00 0. -1.
          1   -1    0    0  501    0 -0.00000000000E+00 -0.00000000000E+00 -0.29909602758E+02  0.29909602758E+02  0.00000000000E+00 0. -1.
         25    2    1    2    0    0  0.93810073550E+02 -0.18971638758E+02  0.11965397308E+04  0.12068526025E+04  0.12500249558E+03 0.  0.
          2    1    1    2  501    0 -0.81664236586E+02  0.40459660623E+02  0.59672015642E+02  0.10893475628E+03  0.00000000000E+00 0. -1.
          1    1    1    2  502    0 -0.12145836963E+02 -0.21488021865E+02  0.12504397905E+04  0.12506833837E+04  0.00000000000E+00 0. -1.
         22    1    3    3    0    0  0.56064331205E+02 -0.72049069584E+02  0.76443292966E+03  0.76986491127E+03  0.00000000000E+00 0.  1.
         22    1    3    3    0    0  0.37745742344E+02  0.53077430826E+02  0.43210680113E+03  0.43698769125E+03  0.00000000000E+00 0.  1.
</event>
<event>
 7    1  0.5802081E-006  0.4546396E+02  0.7818608E-02  0.1528165E+00
          2   -1    0    0  502    0  0.00000000000E+00  0.00000000000E+00  0.11307655424E+04  0.11307655424E+04  0.00000000000E+00 0. -1.
          1   -1    0    0  501    0 -0.00000000000E+00 -0.00000000000E+00 -0.65637851643E+03  0.65637851643E+03  0.00000000000E+00 0. -1.
         25    2    1    2    0    0  0.86614031752E+01 -0.25338231855E+02 -0.13458264401E+03  0.18562066843E+03  0.12500199432E+03 0.  0.
          2    1    1    2  501    0  0.30691166783E+02  0.24237470852E+01 -0.49532968104E+03  0.49628551781E+03  0.00000000000E+00 0. -1.
          1    1    1    2  502    0 -0.39352569958E+02  0.22914484769E+02  0.11042993510E+04  0.11052378726E+04  0.00000000000E+00 0. -1.
         22    1    3    3    0    0 -0.69720372698E+01 -0.40193582581E+02 -0.15232595283E+03  0.15769378330E+03  0.00000000000E+00 0. -1.
         22    1    3    3    0    0  0.15633440445E+02  0.14855350726E+02  0.17743308827E+02  0.27926885137E+02  0.00000000000E+00 0. -1.
</event>
<event>
 7    1  0.5736319E-006  0.1742947E+03  0.7818608E-02  0.1265120E+00
          2   -1    0    0  502    0  0.00000000000E+00  0.00000000000E+00  0.61715436755E+03  0.61715436755E+03  0.00000000000E+00 0. -1.
          1   -1    0    0  501    0 -0.00000000000E+00 -0.00000000000E+00 -0.18692534810E+04  0.18692534810E+04  0.00000000000E+00 0. -1.
         25    2    1    2    0    0 -0.15753291980E+03 -0.17347226810E+03  0.35128663343E+02  0.26789580640E+03  0.12499956589E+03 0.  0.
          2    1    1    2  501    0  0.99594570758E+02  0.14103469652E+03 -0.17462234972E+04  0.17547382615E+04  0.00000000000E+00 0. -1.
          1    1    1    2  502    0  0.57938349044E+02  0.32437571584E+02  0.45899572037E+03  0.46377378070E+03  0.00000000000E+00 0. -1.
         22    1    3    3    0    0  0.11889602964E+02 -0.27604921677E+02  0.32565792629E+02  0.44316195787E+02  0.00000000000E+00 0.  1.
         22    1    3    3    0    0 -0.16942252277E+03 -0.14586734643E+03  0.25628707138E+01  0.22357961061E+03  0.00000000000E+00 0.  1.
</event>
<event>
 7    1  0.5736319E-006  0.1804956E+03  0.7818608E-02  0.1259975E+00
          2   -1    0    0  502    0  0.00000000000E+00  0.00000000000E+00  0.56729343971E+02  0.56729343971E+02  0.00000000000E+00 0. -1.
          1   -1    0    0  501    0 -0.00000000000E+00 -0.00000000000E+00 -0.20638413559E+04  0.20638413559E+04  0.00000000000E+00 0. -1.
         25    2    1    2    0    0  0.13228557958E+03  0.95771905437E+02 -0.70277664956E+03  0.73226014038E+03  0.12505263523E+03 0.  0.
          2    1    1    2  501    0  0.49212185854E+02 -0.46097809424E+02 -0.11293139160E+04  0.11313252265E+04  0.00000000000E+00 0. -1.
          1    1    1    2  502    0 -0.18149776543E+03 -0.49674096013E+02 -0.17502144632E+03  0.25698533294E+03  0.00000000000E+00 0. -1.
         22    1    3    3    0    0  0.94075915378E+02  0.13349190884E+02 -0.20102333926E+03  0.22234851400E+03  0.00000000000E+00 0. -1.
         22    1    3    3    0    0  0.38209664203E+02  0.82422714554E+02 -0.50175331030E+03  0.50991162637E+03  0.00000000000E+00 0. -1.
</event>
<event>
 7    1  0.5736319E-006  0.6284751E+02  0.7818608E-02  0.1484832E+00
          2   -1    0    0  502    0  0.00000000000E+00  0.00000000000E+00  0.41625654572E+04  0.41625654572E+04  0.00000000000E+00 0. -1.
          1   -1    0    0  501    0 -0.00000000000E+00 -0.00000000000E+00 -0.80853658337E+02  0.80853658337E+02  0.00000000000E+00 0. -1.
         25    2    1    2    0    0  0.21484732080E+02 -0.25581233307E+02  0.19419146474E+03  0.23334919451E+03  0.12500211356E+03 0.  0.
          2    1    1    2  501    0  0.21644720865E+02 -0.20654723162E+02 -0.57354248033E+02  0.64688648909E+02  0.00000000000E+00 0. -1.
          1    1    1    2  502    0 -0.43129452946E+02  0.46235956468E+02  0.39448745821E+04  0.39453812721E+04  0.00000000000E+00 0. -1.
         22    1    3    3    0    0  0.12936103685E+02  0.12173004135E+02 -0.13355137548E+02  0.22223512485E+02  0.00000000000E+00 0. -1.
         22    1    3    3    0    0  0.85486283951E+01 -0.37754237441E+02  0.20754660228E+03  0.21112568203E+03  0.00000000000E+00 0. -1.
</event>
<event>
 7    1  0.5736319E-006  0.5377638E+02  0.7818608E-02  0.1442772E+00
          2   -1    0    0  502    0  0.00000000000E+00  0.00000000000E+00  0.54866546152E+03  0.54866546152E+03  0.00000000000E+00 0. -1.
          1   -1    0    0  501    0 -0.00000000000E+00 -0.00000000000E+00 -0.20264791195E+03  0.20264791195E+03  0.00000000000E+00 0. -1.
         25    2    1    2    0    0  0.86578863299E+02 -0.92370071330E+01  0.28426623735E+03  0.32250892675E+03  0.12499396893E+03 0.  0.
          2    1    1    2  501    0 -0.44046014717E+02 -0.17472282588E+02 -0.17782002416E+03  0.18402525115E+03  0.00000000000E+00 0. -1.
          1    1    1    2  502    0 -0.42532848582E+02  0.26709289721E+02  0.23957133638E+03  0.24477919556E+03  0.00000000000E+00 0. -1.
         22    1    3    3    0    0  0.10920980835E+03  0.20486154767E+02  0.24076259953E+03  0.26516616321E+03  0.00000000000E+00 0. -1.
         22    1    3    3    0    0 -0.22630945055E+02 -0.29723161900E+02  0.43503637818E+02  0.57342763544E+02  0.00000000000E+00 0. -1.
</event>
<event>
 7    1  0.5736319E-006  0.5907169E+02  0.7818608E-02  0.1485065E+00
          2   -1    0    0  502    0  0.00000000000E+00  0.00000000000E+00  0.41250132754E+03  0.41250132754E+03  0.00000000000E+00 0. -1.
          1   -1    0    0  501    0 -0.00000000000E+00 -0.00000000000E+00 -0.61743429078E+03  0.61743429078E+03  0.00000000000E+00 0. -1.
         25    2    1    2    0    0 -0.11304822146E+01 -0.29735921983E+02  0.99216952332E+01  0.12888423875E+03  0.12500881535E+03 0.  0.
          2    1    1    2  501    0  0.16883002792E+02  0.57335512462E+02 -0.55561091800E+03  0.55881650743E+03  0.00000000000E+00 0. -1.
          1    1    1    2  502    0 -0.15752520577E+02 -0.27599590480E+02  0.34075625953E+03  0.34223487214E+03  0.00000000000E+00 0. -1.
         22    1    3    3    0    0  0.51970860779E+02  0.13490157158E+02 -0.15437352097E+02  0.55868296466E+02  0.00000000000E+00 0.  1.
         22    1    3    3    0    0 -0.53101342993E+02 -0.43226079140E+02  0.25359047330E+02  0.73015942280E+02  0.00000000000E+00 0.  1.
</event>
<event>
 7    1  0.5736319E-006  0.6258811E+02  0.7818608E-02  0.1469432E+00
          2   -1    0    0  502    0  0.00000000000E+00  0.00000000000E+00  0.69981779294E+02  0.69981779294E+02  0.00000000000E+00 0. -1.
          1   -1    0    0  501    0 -0.00000000000E+00 -0.00000000000E+00 -0.39874033843E+03  0.39874033843E+03  0.00000000000E+00 0. -1.
         25    2    1    2    0    0 -0.23157546900E+02  0.38746201453E+02 -0.89773974644E+02  0.16038027815E+03  0.12499970796E+03 0.  0.
          2    1    1    2  501    0  0.56173358457E+02 -0.33016410810E+02 -0.26049649064E+03  0.26852178909E+03  0.00000000000E+00 0. -1.
          1    1    1    2  502    0 -0.33015811557E+02 -0.57297906426E+01  0.21511906150E+02  0.39820050475E+02  0.00000000000E+00 0. -1.
         22    1    3    3    0    0  0.27809973615E+02  0.57446443760E+02 -0.11083450196E+02  0.64779096948E+02  0.00000000000E+00 0.  1.
         22    1    3    3    0    0 -0.50967520515E+02 -0.18700242307E+02 -0.78690524448E+02  0.95601181204E+02  0.00000000000E+00 0.  1.
</event>
<event>
 7    1  0.5736319E-006  0.4801898E+02  0.7818608E-02  0.1550215E+00
          2   -1    0    0  502    0  0.00000000000E+00  0.00000000000E+00  0.53478552173E+03  0.53478552173E+03  0.00000000000E+00 0. -1.
          1   -1    0    0  501    0 -0.00000000000E+00 -0.00000000000E+00 -0.28045297286E+02  0.28045297286E+02  0.00000000000E+00 0. -1.
         25    2    1    2    0    0  0.47779907636E+00  0.30411027209E+01  0.18256168187E+03  0.22127505955E+03  0.12499763077E+03 0.  0.
          2    1    1    2  501    0 -0.91355881853E+01 -0.50273135751E+02  0.23265770132E+03  0.23820254644E+03  0.00000000000E+00 0. -1.
          1    1    1    2  502    0  0.86577891089E+01  0.47232033030E+02  0.91520841258E+02  0.10335321302E+03  0.00000000000E+00 0. -1.
         22    1    3    3    0    0 -0.46829877254E+02  0.41067992318E+02  0.11238522610E+03  0.12849146448E+03  0.00000000000E+00 0.  1.
         22    1    3    3    0    0  0.47307676330E+02 -0.38026889597E+02  0.70176455763E+02  0.92783595079E+02  0.00000000000E+00 0.  1.
</event>
<event>
 7    1  0.5736319E-006  0.1161735E+03  0.7818608E-02  0.1453042E+00
          2   -1    0    0  502    0  0.00000000000E+00  0.00000000000E+00  0.96146822902E+03  0.96146822902E+03  0.00000000000E+00 0. -1.
          1   -1    0    0  501    0 -0.00000000000E+00 -0.00000000000E+00 -0.87868448593E+02  0.87868448593E+02  0.00000000000E+00 0. -1.
         25    2    1    2    0    0 -0.79846853114E+02  0.10521840679E+03  0.37910239281E+03  0.42046518573E+03  0.12500366033E+03 0.  0.
          2    1    1    2  501    0  0.10572740886E+02 -0.17366085786E+02 -0.59921569098E+02  0.63276838010E+02  0.00000000000E+00 0. -1.
          1    1    1    2  502    0  0.69274112227E+02 -0.87852321000E+02  0.55441895672E+03  0.56559465388E+03  0.00000000000E+00 0. -1.
         22    1    3    3    0    0  0.21968895122E+02  0.71192754750E+02  0.15627419131E+03  0.17312614924E+03  0.00000000000E+00 0. -1.
         22    1    3    3    0    0 -0.10181574824E+03  0.34025652036E+02  0.22282820150E+03  0.24733903649E+03  0.00000000000E+00 0. -1.
</event>
<event>
 7    1  0.5736319E-006  0.1075607E+03  0.7818608E-02  0.1317790E+00
          2   -1    0    0  502    0  0.00000000000E+00  0.00000000000E+00  0.24405700305E+03  0.24405700305E+03  0.00000000000E+00 0. -1.
          1   -1    0    0  501    0 -0.00000000000E+00 -0.00000000000E+00 -0.16107128310E+04  0.16107128310E+04  0.00000000000E+00 0. -1.
         25    2    1    2    0    0 -0.44726685999E+02  0.13907560072E+03 -0.83675606746E+03  0.85856143142E+03  0.12499806377E+03 0.  0.
          2    1    1    2  501    0  0.62743578540E+02 -0.75827625760E+02 -0.75515899047E+03  0.76154559047E+03  0.00000000000E+00 0. -1.
          1    1    1    2  502    0 -0.18016892541E+02 -0.63247974957E+02  0.22525922994E+03  0.23466281219E+03  0.00000000000E+00 0. -1.
         22    1    3    3    0    0  0.21320137604E+02  0.10866900995E+03 -0.37136766615E+03  0.38752734800E+03  0.00000000000E+00 0. -1.
         22    1    3    3    0    0 -0.66046823603E+02  0.30406590769E+02 -0.46538840131E+03  0.47103408342E+03  0.00000000000E+00 0. -1.
</event>
<event>
 7    1  0.5736319E-006  0.2167418E+03  0.7818608E-02  0.1343417E+00
          2   -1    0    0  502    0  0.00000000000E+00  0.00000000000E+00  0.50934419111E+03  0.50934419111E+03  0.00000000000E+00 0. -1.
          1   -1    0    0  501    0 -0.00000000000E+00 -0.00000000000E+00 -0.18304499875E+03  0.18304499875E+03  0.00000000000E+00 0. -1.
         25    2    1    2    0    0  0.12061703774E+03 -0.18679708844E+03 -0.12784937718E+02  0.25540212121E+03  0.12500066739E+03 0.  0.
          2    1    1    2  501    0 -0.94699361036E+02  0.18413246509E+03  0.17575418982E+03  0.27159210026E+03  0.00000000000E+00 0. -1.
          1    1    1    2  502    0 -0.25917676701E+02  0.26646233450E+01  0.16332994026E+03  0.16539496839E+03  0.00000000000E+00 0. -1.
         22    1    3    3    0    0  0.79588903624E+02 -0.17248559312E+03  0.32409449836E+02  0.19270715049E+03  0.00000000000E+00 0. -1.
         22    1    3    3    0    0  0.41028134113E+02 -0.14311495320E+02 -0.45194387554E+02  0.62694970719E+02  0.00000000000E+00 0. -1.
</event>
<event>
 7    1  0.5736319E-006  0.2528850E+03  0.7818608E-02  0.1197427E+00
          2   -1    0    0  502    0  0.00000000000E+00  0.00000000000E+00  0.89137040173E+03  0.89137040173E+03  0.00000000000E+00 0. -1.
          1   -1    0    0  501    0 -0.00000000000E+00 -0.00000000000E+00 -0.46180524233E+03  0.46180524233E+03  0.00000000000E+00 0. -1.
         25    2    1    2    0    0  0.22130638713E+03 -0.32974278660E+02  0.43213272369E+03  0.50242148450E+03  0.12499934866E+03 0.  0.
          2    1    1    2  501    0  0.61946930709E+02 -0.67979691756E+02 -0.36695859149E+03  0.37830843050E+03  0.00000000000E+00 0. -1.
          1    1    1    2  502    0 -0.28325331784E+03  0.10095397042E+03  0.36439102720E+03  0.47244572906E+03  0.00000000000E+00 0. -1.
         22    1    3    3    0    0  0.14430469504E+02  0.55988192266E+01 -0.58167549454E+01  0.16535412452E+02  0.00000000000E+00 0.  1.
         22    1    3    3    0    0  0.20687591763E+03 -0.38573097886E+02  0.43794947863E+03  0.48588607205E+03  0.00000000000E+00 0.  1.
</event>
<event>
 7    1  0.5736319E-006  0.5447210E+02  0.7818608E-02  0.1453161E+00
          2   -1    0    0  502    0  0.00000000000E+00  0.00000000000E+00  0.12948679300E+03  0.12948679300E+03  0.00000000000E+00 0. -1.
          1   -1    0    0  501    0 -0.00000000000E+00 -0.00000000000E+00 -0.73218798416E+03  0.73218798416E+03  0.00000000000E+00 0. -1.
         25    2    1    2    0    0 -0.31120153205E+02  0.16272326736E+02 -0.21940925928E+03  0.25494660972E+03  0.12499639273E+03 0.  0.
          2    1    1    2  501    0 -0.19581224807E+02 -0.38645550172E+02 -0.48711638604E+03  0.48903913592E+03  0.00000000000E+00 0. -1.
          1    1    1    2  502    0  0.50701378012E+02  0.22373223435E+02  0.10382445416E+03  0.11768903152E+03  0.00000000000E+00 0. -1.
         22    1    3    3    0    0 -0.39152863644E+02  0.26667308357E+01 -0.23165576284E+03  0.23495627390E+03  0.00000000000E+00 0.  1.
         22    1    3    3    0    0  0.80327104399E+01  0.13605595901E+02  0.12246503562E+02  0.19990335823E+02  0.00000000000E+00 0.  1.
</event>
<event>
 7    1  0.5736319E-006  0.1067547E+03  0.7818608E-02  0.1389764E+00
          2   -1    0    0  502    0  0.00000000000E+00  0.00000000000E+00  0.17842059868E+03  0.17842059868E+03  0.00000000000E+00 0. -1.
          1   -1    0    0  501    0 -0.00000000000E+00 -0.00000000000E+00 -0.60286774684E+03  0.60286774684E+03  0.00000000000E+00 0. -1.
         25    2    1    2    0    0  0.31731185161E+02  0.12580856535E+03 -0.28783088897E+01  0.18018931096E+03  0.12500095958E+03 0.  0.
          2    1    1    2  501    0 -0.48239614022E+02 -0.93853119580E+02 -0.50201098565E+03  0.51298196667E+03  0.00000000000E+00 0. -1.
          1    1    1    2  502    0  0.16508428861E+02 -0.31955445768E+02  0.80442146388E+02  0.88117067888E+02  0.00000000000E+00 0. -1.
         22    1    3    3    0    0  0.93835594749E+01  0.56994100465E+02 -0.63468638210E+02  0.85817519845E+02  0.00000000000E+00 0.  1.
         22    1    3    3    0    0  0.22347625686E+02  0.68814464883E+02  0.60590329320E+02  0.94371791114E+02  0.00000000000E+00 0.  1.
</event>
<event>
 7    1  0.5736319E-006  0.5263174E+02  0.7818608E-02  0.1455563E+00
          2   -1    0    0  502    0  0.00000000000E+00  0.00000000000E+00  0.13173570366E+03  0.13173570366E+03  0.00000000000E+00 0. -1.
          1   -1    0    0  501    0 -0.00000000000E+00 -0.00000000000E+00 -0.10347181029E+04  0.10347181029E+04  0.00000000000E+00 0. -1.
         25    2    1    2    0    0 -0.12901347521E+02  0.13790118922E+02 -0.55943649722E+03  0.57354388926E+03  0.12500714514E+03 0.  0.
          2    1    1    2  501    0 -0.39920521399E+02 -0.18636791214E+02 -0.46148931511E+03  0.46358749549E+03  0.00000000000E+00 0. -1.
          1    1    1    2  502    0  0.52821868920E+02  0.48466722926E+01  0.11794341314E+03  0.12932242176E+03  0.00000000000E+00 0. -1.
         22    1    3    3    0    0  0.24871243500E+01  0.42744566636E+02 -0.63870205649E+02  0.76893998037E+02  0.00000000000E+00 0.  1.
         22    1    3    3    0    0 -0.15388471871E+02 -0.28954447714E+02 -0.49556629157E+03  0.49664989122E+03  0.00000000000E+00 0.  1.
</event>
<event>
 7    1  0.5736319E-006  0.5316415E+02  0.7818608E-02  0.1437223E+00
          2   -1    0    0  502    0  0.00000000000E+00  0.00000000000E+00  0.84400443817E+03  0.84400443817E+03  0.00000000000E+00 0. -1.
          1   -1    0    0  501    0 -0.00000000000E+00 -0.00000000000E+00 -0.32514149102E+03  0.32514149102E+03  0.00000000000E+00 0. -1.
         25    2    1    2    0    0 -0.26762685195E+02  0.39657729474E+02  0.33052976626E+02  0.13786354609E+03  0.12499952500E+03 0.  0.
          2    1    1    2  501    0 -0.26852902479E+02 -0.42129396393E+02 -0.26948798671E+03  0.27407980479E+03  0.00000000000E+00 0. -1.
          1    1    1    2  502    0  0.53615587675E+02  0.24716669190E+01  0.75529795724E+03  0.75720257830E+03  0.00000000000E+00 0. -1.
         22    1    3    3    0    0 -0.18600107835E+02 -0.17002174309E+02 -0.38633160107E+02  0.46125470215E+02  0.00000000000E+00 0. -1.
         22    1    3    3    0    0 -0.81625773601E+01  0.56659903782E+02  0.71686136733E+02  0.91738075876E+02  0.00000000000E+00 0. -1.
</event>
<event>
 7    1  0.5736319E-006  0.8339417E+02  0.7818608E-02  0.1333995E+00
          2   -1    0    0  502    0  0.00000000000E+00  0.00000000000E+00  0.12731460202E+04  0.12731460202E+04  0.00000000000E+00 0. -1.
          1   -1    0    0  501    0 -0.00000000000E+00 -0.00000000000E+00 -0.47282512739E+03  0.47282512739E+03  0.00000000000E+00 0. -1.
         25    2    1    2    0    0  0.23239363131E+02 -0.13608845342E+02  0.11064138062E+04  0.11137785425E+04  0.12500345060E+03 0.  0.
          2    1    1    2  501    0 -0.93131763461E+00  0.83626681359E+02 -0.45686975788E+03  0.46446126303E+03  0.00000000000E+00 0. -1.
          1    1    1    2  502    0 -0.22308045497E+02 -0.70017836017E+02  0.15077684447E+03  0.16773134198E+03  0.00000000000E+00 0. -1.
         22    1    3    3    0    0  0.41732212114E+02 -0.60026622776E+02  0.79818571252E+03  0.80152679596E+03  0.00000000000E+00 0. -1.
         22    1    3    3    0    0 -0.18492848983E+02  0.46417777433E+02  0.30822809365E+03  0.31225174658E+03  0.00000000000E+00 0. -1.
</event>
<event>
 7    1  0.5736319E-006  0.4443255E+02  0.7818608E-02  0.1504812E+00
          2   -1    0    0  502    0  0.00000000000E+00  0.00000000000E+00  0.92796375638E+03  0.92796375638E+03  0.00000000000E+00 0. -1.
          1   -1    0    0  501    0 -0.00000000000E+00 -0.00000000000E+00 -0.28080812819E+03  0.28080812819E+03  0.00000000000E+00 0. -1.
         25    2    1    2    0    0 -0.65366684025E+01 -0.32262459401E+02  0.30730416066E+03  0.33338101203E+03  0.12499383067E+03 0.  0.
          2    1    1    2  501    0  0.40645726236E+02  0.18308006409E+02 -0.26534991556E+03  0.26906845940E+03  0.00000000000E+00 0. -1.
          1    1    1    2  502    0 -0.34109057834E+02  0.13954452992E+02  0.60520138309E+03  0.60632241314E+03  0.00000000000E+00 0. -1.
         22    1    3    3    0    0 -0.73799295023E+01 -0.33053902113E+02  0.31941981998E+03  0.32121028191E+03  0.00000000000E+00 0.  1.
         22    1    3    3    0    0  0.84326109981E+00  0.79144271231E+00 -0.12115659327E+02  0.12170730125E+02  0.00000000000E+00 0.  1.
</event>
<event>
 7    1  0.5736319E-006  0.5164678E+02  0.7818608E-02  0.1513981E+00
          2   -1    0    0  502    0  0.00000000000E+00  0.00000000000E+00  0.25345805567E+04  0.25345805567E+04  0.00000000000E+00 0. -1.
          1   -1    0    0  501    0 -0.00000000000E+00 -0.00000000000E+00 -0.15432251084E+03  0.15432251084E+03  0.00000000000E+00 0. -1.
         25    2    1    2    0    0  0.54691982644E+01 -0.41254994129E+02  0.15373590521E+04  0.15429937392E+04  0.12499974901E+03 0.  0.
          2    1    1    2  501    0  0.23975209983E+02  0.45801744541E+02 -0.14686437900E+03  0.15569764390E+03  0.00000000000E+00 0. -1.
          1    1    1    2  502    0 -0.29444408247E+02 -0.45467504123E+01  0.98976337269E+03  0.99021168445E+03  0.00000000000E+00 0. -1.
         22    1    3    3    0    0  0.64742044398E+02 -0.30197239858E+02  0.82344130074E+03  0.82653431954E+03  0.00000000000E+00 0.  1.
         22    1    3    3    0    0 -0.59272846134E+02 -0.11057754271E+02  0.71391775138E+03  0.71645941962E+03  0.00000000000E+00 0.  1.
</event>
<event>
 7    1  0.5736319E-006  0.9019466E+02  0.7818608E-02  0.1364010E+00
          2   -1    0    0  502    0  0.00000000000E+00  0.00000000000E+00  0.39937634677E+03  0.39937634677E+03  0.00000000000E+00 0. -1.
          1   -1    0    0  501    0 -0.00000000000E+00 -0.00000000000E+00 -0.15076009458E+04  0.15076009458E+04  0.00000000000E+00 0. -1.
         25    2    1    2    0    0  0.84786027780E+02  0.95270329044E+02  0.12252165990E+02  0.17899832170E+03  0.12500070998E+03 0.  0.
          2    1    1    2  501    0 -0.33612942790E+02 -0.83217656815E+02 -0.14205261650E+04  0.14233585612E+04  0.00000000000E+00 0. -1.
          1    1    1    2  502    0 -0.51173084990E+02 -0.12052672228E+02  0.30004940000E+03  0.30462040965E+03  0.00000000000E+00 0. -1.
         22    1    3    3    0    0  0.26478490661E+02 -0.23453778325E+02  0.28910925701E+02  0.45684043279E+02  0.00000000000E+00 0. -1.
         22    1    3    3    0    0  0.58307537119E+02  0.11872410737E+03 -0.16658759711E+02  0.13331427842E+03  0.00000000000E+00 0. -1.
</event>
<event>
 7    1  0.5736319E-006  0.4357438E+02  0.7818608E-02  0.1499613E+00
          2   -1    0    0  502    0  0.00000000000E+00  0.00000000000E+00  0.31583318831E+02  0.31583318831E+02  0.00000000000E+00 0. -1.
          1   -1    0    0  501    0 -0.00000000000E+00 -0.00000000000E+00 -0.13480789307E+04  0.13480789307E+04  0.00000000000E+00 0. -1.
         25    2    1    2    0    0 -0.25945476295E+02  0.10482682376E+02 -0.53629345014E+03  0.55138202493E+03  0.12501367282E+03 0.  0.
          2    1    1    2  501    0 -0.94738342821E+01 -0.37771355378E+02 -0.78253850302E+03  0.78350682035E+03  0.00000000000E+00 0. -1.
          1    1    1    2  502    0  0.35419310577E+02  0.27288673002E+02  0.23363413032E+01  0.44773404233E+02  0.00000000000E+00 0. -1.
         22    1    3    3    0    0  0.36687665854E+02 -0.81685380403E+00 -0.39152863352E+03  0.39324460956E+03  0.00000000000E+00 0. -1.
         22    1    3    3    0    0 -0.62633142150E+02  0.11299536180E+02 -0.14476481661E+03  0.15813741538E+03  0.00000000000E+00 0. -1.
</event>
<event>
 7    1  0.5736319E-006  0.1211733E+03  0.7818608E-02  0.1382198E+00
          2   -1    0    0  502    0  0.00000000000E+00  0.00000000000E+00  0.80773079286E+02  0.80773079286E+02  0.00000000000E+00 0. -1.
          1   -1    0    0  501    0 -0.00000000000E+00 -0.00000000000E+00 -0.17055734070E+04  0.17055734070E+04  0.00000000000E+00 0. -1.
         25    2    1    2    0    0  0.39864867629E+02 -0.14602981045E+03 -0.32867539885E+03  0.38283265578E+03  0.12497764324E+03 0.  0.
          2    1    1    2  501    0 -0.25727065257E+02  0.11545401172E+03 -0.13416648326E+04  0.13468689742E+04  0.00000000000E+00 0. -1.
          1    1    1    2  502    0 -0.14137802372E+02  0.30575798723E+02  0.45539903672E+02  0.56644856341E+02  0.00000000000E+00 0. -1.
         22    1    3    3    0    0  0.57524020144E+02 -0.15442207741E+03 -0.23425911271E+03  0.28641320286E+03  0.00000000000E+00 0. -1.
         22    1    3    3    0    0 -0.17659152516E+02  0.83922669629E+01 -0.94416286140E+02  0.96419452917E+02  0.00000000000E+00 0. -1.
</event>
<event>
 7    1  0.5736319E-006  0.3336577E+02  0.7818608E-02  0.1625876E+00
          2   -1    0    0  502    0  0.00000000000E+00  0.00000000000E+00  0.16311960296E+04  0.16311960296E+04  0.00000000000E+00 0. -1.
          1   -1    0    0  501    0 -0.00000000000E+00 -0.00000000000E+00 -0.39535665639E+02  0.39535665639E+02  0.00000000000E+00 0. -1.
         25    2    1    2    0    0  0.97620032492E+01 -0.34031715448E+02  0.10977369898E+03  0.17007084380E+03  0.12498148887E+03 0.  0.
          2    1    1    2  501    0  0.13004632559E+02  0.31765583971E+02  0.22382611716E+02  0.40977482844E+02  0.00000000000E+00 0. -1.
          1    1    1    2  502    0 -0.22766635808E+02  0.22661314777E+01  0.14595040533E+04  0.14596833686E+04  0.00000000000E+00 0. -1.
         22    1    3    3    0    0  0.61687540982E+02  0.76427122547E+01  0.64363522279E+02  0.89478638586E+02  0.00000000000E+00 0. -1.
         22    1    3    3    0    0 -0.51925537733E+02 -0.41674427703E+02  0.45410176700E+02  0.80592205213E+02  0.00000000000E+00 0. -1.
</event>
<event>
 7    1  0.5736319E-006  0.3004325E+03  0.7818608E-02  0.1173882E+00
          2   -1    0    0  502    0  0.00000000000E+00  0.00000000000E+00  0.10464538957E+04  0.10464538957E+04  0.00000000000E+00 0. -1.
          1   -1    0    0  501    0 -0.00000000000E+00 -0.00000000000E+00 -0.78058710806E+03  0.78058710806E+03  0.00000000000E+00 0. -1.
         25    2    1    2    0    0  0.67309114306E+02  0.24368955999E+03  0.33635016110E+03  0.43894306138E+03  0.12499784696E+03 0.  0.
          2    1    1    2  501    0  0.71529084847E+02  0.70754799961E+02 -0.68050350961E+03  0.68790092185E+03  0.00000000000E+00 0. -1.
          1    1    1    2  502    0 -0.13883819915E+03 -0.31444435995E+03  0.61002013619E+03  0.70019702056E+03  0.00000000000E+00 0. -1.
         22    1    3    3    0    0 -0.17430827644E+02  0.11902034802E+03  0.90394672377E+02  0.15046884657E+03  0.00000000000E+00 0. -1.
         22    1    3    3    0    0  0.84739941950E+02  0.12466921197E+03  0.24595548872E+03  0.28847421481E+03  0.00000000000E+00 0. -1.
</event>
<event>
 7    1  0.5736319E-006  0.6389607E+02  0.7818608E-02  0.1457178E+00
          2   -1    0    0  502    0  0.00000000000E+00  0.00000000000E+00  0.53853695948E+02  0.53853695948E+02  0.00000000000E+00 0. -1.
          1   -1    0    0  501    0 -0.00000000000E+00 -0.00000000000E+00 -0.33765356404E+04  0.33765356404E+04  0.00000000000E+00 0. -1.
         25    2    1    2    0    0 -0.63293186790E+02  0.97616729933E+01 -0.17109606152E+04  0.17167152169E+04  0.12499436562E+03 0.  0.
          2    1    1    2  501    0  0.49708583764E+02 -0.42953500567E+02 -0.16556566163E+04  0.16569594978E+04  0.00000000000E+00 0. -1.
          1    1    1    2  502    0  0.13584603026E+02  0.33191827573E+02  0.43935287019E+02  0.56714621593E+02  0.00000000000E+00 0. -1.
         22    1    3    3    0    0 -0.62573463887E+01  0.26477768014E+02 -0.13919074806E+04  0.13921733589E+04  0.00000000000E+00 0.  1.
         22    1    3    3    0    0 -0.57035840401E+02 -0.16716095020E+02 -0.31905313465E+03  0.32454185809E+03  0.00000000000E+00 0.  1.
</event>
<event>
 7    1  0.5736319E-006  0.1223977E+03  0.7818608E-02  0.1329587E+00
          2   -1    0    0  502    0  0.00000000000E+00  0.00000000000E+00  0.20482373305E+04  0.20482373305E+04  0.00000000000E+00 0. -1.
          1   -1    0    0  501    0 -0.00000000000E+00 -0.00000000000E+00 -0.37391040694E+03  0.37391040694E+03  0.00000000000E+00 0. -1.
         25    2    1    2    0    0 -0.66151590990E+00 -0.11719147638E+03  0.39870486759E+03  0.43396397757E+03  0.12499953059E+03 0.  0.
          2    1    1    2  501    0 -0.51087481766E+02  0.11167009507E+03 -0.34526916255E+03  0.36645727655E+03  0.00000000000E+00 0. -1.
          1    1    1    2  502    0  0.51748997676E+02  0.55213813177E+01  0.16208912185E+04  0.16217264833E+04  0.00000000000E+00 0. -1.
         22    1    3    3    0    0  0.29695650423E+02 -0.10383408936E+03  0.16044092444E+03  0.19340279213E+03  0.00000000000E+00 0. -1.
         22    1    3    3    0    0 -0.30357166333E+02 -0.13357387022E+02  0.23826394315E+03  0.24056118544E+03  0.00000000000E+00 0. -1.
</event>
<event>
 7    1  0.7498702E-006  0.1057430E+03  0.7818608E-02  0.1379813E+00
          2   -1    0    0  502    0  0.00000000000E+00  0.00000000000E+00  0.15365311746E+04  0.15365311746E+04  0.00000000000E+00 0. -1.
          1   -1    0    0  501    0 -0.00000000000E+00 -0.00000000000E+00 -0.95530592111E+03  0.95530592111E+03  0.00000000000E+00 0. -1.
         25    2    1    2    0    0  0.88069074707E+02 -0.10266246757E+03 -0.17560230039E+03  0.25447412458E+03  0.12500067205E+03 0.  0.
          2    1    1    2  501    0 -0.38143086982E+02  0.97068858164E+01 -0.73788342009E+03  0.73893237875E+03  0.00000000000E+00 0. -1.
          1    1    1    2  502    0 -0.49925987725E+02  0.92955581750E+02  0.14947109740E+04  0.14984305924E+04  0.00000000000E+00 0. -1.
         22    1    3    3    0    0 -0.11170015987E+02 -0.52028023910E+02 -0.88740500547E+01  0.53948431798E+02  0.00000000000E+00 0.  1.
         22    1    3    3    0    0  0.99239090694E+02 -0.50634443657E+02 -0.16672825034E+03  0.20052569279E+03  0.00000000000E+00 0.  1.
</event>
<event>
 7    1  0.5736319E-006  0.1515934E+03  0.7818608E-02  0.1342090E+00
          2   -1    0    0  502    0  0.00000000000E+00  0.00000000000E+00  0.21871340871E+04  0.21871340871E+04  0.00000000000E+00 0. -1.
          1   -1    0    0  501    0 -0.00000000000E+00 -0.00000000000E+00 -0.35655424471E+03  0.35655424471E+03  0.00000000000E+00 0. -1.
         25    2    1    2    0    0 -0.14754629764E+03  0.11421732960E+03  0.19219425429E+04  0.19350202385E+04  0.12499870809E+03 0.  0.
          2    1    1    2  501    0  0.12654724400E+03 -0.82931225021E+02 -0.33213079549E+03  0.36496939374E+03  0.00000000000E+00 0. -1.
          1    1    1    2  502    0  0.20999053633E+02 -0.31286104584E+02  0.24076809498E+03  0.24369869954E+03  0.00000000000E+00 0. -1.
         22    1    3    3    0    0  0.18894810244E+02  0.34906002414E+02  0.29277678900E+03  0.29545505756E+03  0.00000000000E+00 0.  1.
         22    1    3    3    0    0 -0.16644110788E+03  0.79311327191E+02  0.16291657539E+04  0.16395651809E+04  0.00000000000E+00 0.  1.
</event>
<event>
 7    1  0.5736319E-006  0.6105675E+02  0.7818608E-02  0.1434535E+00
          2   -1    0    0  502    0  0.00000000000E+00  0.00000000000E+00  0.17079748635E+02  0.17079748635E+02  0.00000000000E+00 0. -1.
          1   -1    0    0  501    0 -0.00000000000E+00 -0.00000000000E+00 -0.25332449106E+04  0.25332449106E+04  0.00000000000E+00 0. -1.
         25    2    1    2    0    0 -0.30165811114E+02  0.21364768257E+02 -0.36568423811E+03  0.38822225323E+03  0.12500050567E+03 0.  0.
          2    1    1    2  501    0 -0.43169754347E+02  0.10334622337E+02 -0.18683582042E+04  0.18688854463E+04  0.00000000000E+00 0. -1.
          1    1    1    2  502    0  0.73335565461E+02 -0.31699390595E+02 -0.28212271963E+03  0.29321695970E+03  0.00000000000E+00 0. -1.
         22    1    3    3    0    0  0.17024748410E+02 -0.12623866076E+02 -0.36008224913E+01  0.21498138890E+02  0.00000000000E+00 0.  1.
         22    1    3    3    0    0 -0.47190559524E+02  0.33988634333E+02 -0.36208341562E+03  0.36672411434E+03  0.00000000000E+00 0.  1.
</event>
<event>
 7    1  0.5736319E-006  0.1035168E+03  0.7818608E-02  0.1372484E+00
          2   -1    0    0  502    0  0.00000000000E+00  0.00000000000E+00  0.31073347329E+03  0.31073347329E+03  0.00000000000E+00 0. -1.
          1   -1    0    0  501    0 -0.00000000000E+00 -0.00000000000E+00 -0.22203054278E+03  0.22203054278E+03  0.00000000000E+00 0. -1.
         25    2    1    2    0    0  0.11643811599E+03  0.62968159298E+02  0.15457794807E+03  0.23883428139E+03  0.12499859199E+03 0.  0.
          2    1    1    2  501    0 -0.74235302265E+02 -0.69440500430E+02 -0.16057755529E+03  0.19004740058E+03  0.00000000000E+00 0. -1.
          1    1    1    2  502    0 -0.42202813724E+02  0.64723411313E+01  0.94702537731E+02  0.10388233410E+03  0.00000000000E+00 0. -1.
         22    1    3    3    0    0  0.50119224701E+02  0.60580091850E+02  0.15349859897E+03  0.17246363124E+03  0.00000000000E+00 0.  1.
         22    1    3    3    0    0  0.66318891288E+02  0.23880674486E+01  0.10793490964E+01  0.66370650157E+02  0.00000000000E+00 0.  1.
</event>
<event>
 7    1  0.5736319E-006  0.5421338E+02  0.7818608E-02  0.1455975E+00
          2   -1    0    0  502    0  0.00000000000E+00  0.00000000000E+00  0.27110369861E+03  0.27110369861E+03  0.00000000000E+00 0. -1.
          1   -1    0    0  501    0 -0.00000000000E+00 -0.00000000000E+00 -0.14679777477E+03  0.14679777477E+03  0.00000000000E+00 0. -1.
         25    2    1    2    0    0 -0.61255605021E+02 -0.37960090136E+02 -0.70958049305E+01  0.14445370292E+03  0.12499321681E+03 0.  0.
          2    1    1    2  501    0  0.74294078921E+01  0.41990295073E+02 -0.60545849720E+02  0.74055255723E+02  0.00000000000E+00 0. -1.
          1    1    1    2  502    0  0.53826197129E+02 -0.40302049370E+01  0.19194757849E+03  0.19939251475E+03  0.00000000000E+00 0. -1.
         22    1    3    3    0    0 -0.87319835286E+02  0.48704867015E+01  0.16569550751E+02  0.89011377290E+02  0.00000000000E+00 0.  1.
         22    1    3    3    0    0  0.26064230265E+02 -0.42830576838E+02 -0.23665355681E+02  0.55442325628E+02  0.00000000000E+00 0.  1.
</event>
<event>
 7    1  0.5736319E-006  0.1016859E+03  0.7818608E-02  0.1394304E+00
          2   -1    0    0  502    0  0.00000000000E+00  0.00000000000E+00  0.21139023608E+04  0.21139023608E+04  0.00000000000E+00 0. -1.
          1   -1    0    0  501    0 -0.00000000000E+00 -0.00000000000E+00 -0.35191371242E+02  0.35191371242E+02  0.00000000000E+00 0. -1.
         25    2    1    2    0    0  0.11773662585E+03  0.36788661159E+02  0.78390565608E+03  0.80333504296E+03  0.12499517975E+03 0.  0.
          2    1    1    2  501    0 -0.19819435983E+02 -0.30545176090E+02 -0.96099180849E+01  0.37658576057E+02  0.00000000000E+00 0. -1.
          1    1    1    2  502    0 -0.97917189872E+02 -0.62434850692E+01  0.13044152516E+04  0.13081001130E+04  0.00000000000E+00 0. -1.
         22    1    3    3    0    0 -0.45401740393E+01 -0.33418293375E+02  0.18565113889E+03  0.18868953571E+03  0.00000000000E+00 0. -1.
         22    1    3    3    0    0  0.12227679989E+03  0.70206954534E+02  0.59825451719E+03  0.61464550726E+03  0.00000000000E+00 0. -1.
</event>
<event>
 7    1  0.5736319E-006  0.1299012E+03  0.7818608E-02  0.1332628E+00
          2   -1    0    0  502    0  0.00000000000E+00  0.00000000000E+00  0.12480701590E+04  0.12480701590E+04  0.00000000000E+00 0. -1.
          1   -1    0    0  501    0 -0.00000000000E+00 -0.00000000000E+00 -0.15256105679E+04  0.15256105679E+04  0.00000000000E+00 0. -1.
         25    2    1    2    0    0  0.38845461626E+02 -0.95879714513E+02 -0.69207690366E+01  0.16240410888E+03  0.12500123196E+03 0.  0.
          2    1    1    2  501    0 -0.64719794556E+01  0.13097200548E+03 -0.14374755599E+04  0.14434443315E+04  0.00000000000E+00 0. -1.
          1    1    1    2  502    0 -0.32373482170E+02 -0.35092290968E+02  0.11668559200E+04  0.11678322865E+04  0.00000000000E+00 0. -1.
         22    1    3    3    0    0 -0.27726009135E+02  0.46702491204E+01  0.25039862620E+02  0.37650199593E+02  0.00000000000E+00 0. -1.
         22    1    3    3    0    0  0.66571470761E+02 -0.10054996363E+03 -0.31960631656E+02  0.12475390928E+03  0.00000000000E+00 0. -1.
</event>
<event>
 7    1  0.5736319E-006  0.4934885E+03  0.7818608E-02  0.1233750E+00
          2   -1    0    0  502    0  0.00000000000E+00  0.00000000000E+00  0.51860701950E+03  0.51860701950E+03  0.00000000000E+00 0. -1.
          1   -1    0    0  501    0 -0.00000000000E+00 -0.00000000000E+00 -0.13856199785E+04  0.13856199785E+04  0.00000000000E+00 0. -1.
         25    2    1    2    0    0  0.16123972600E+03 -0.48559231610E+03 -0.77243406341E+03  0.93492104698E+03  0.12499934026E+03 0.  0.
          2    1    1    2  501    0  0.15721477362E+02  0.27979030616E+02 -0.39348307912E+03  0.39478972195E+03  0.00000000000E+00 0. -1.
          1    1    1    2  502    0 -0.17696120337E+03  0.45761328549E+03  0.29890418352E+03  0.57451622908E+03  0.00000000000E+00 0. -1.
         22    1    3    3    0    0  0.40126886998E+02 -0.31255688695E+03 -0.44500736564E+03  0.54528298168E+03  0.00000000000E+00 0.  1.
         22    1    3    3    0    0  0.12111283901E+03 -0.17303542916E+03 -0.32742669776E+03  0.38963806529E+03  0.00000000000E+00 0.  1.
</event>
<event>
 7    1  0.5736319E-006  0.5363406E+02  0.7818608E-02  0.1509173E+00
          2   -1    0    0  502    0  0.00000000000E+00  0.00000000000E+00  0.46273981113E+03  0.46273981113E+03  0.00000000000E+00 0. -1.
          1   -1    0    0  501    0 -0.00000000000E+00 -0.00000000000E+00 -0.10180973785E+04  0.10180973785E+04  0.00000000000E+00 0. -1.
         25    2    1    2    0    0 -0.21808329484E+02  0.28216340058E+02 -0.13271745089E+03  0.18577206238E+03  0.12500228921E+03 0.  0.
          2    1    1    2  501    0  0.70428050731E+01 -0.53913985943E+02 -0.85748715887E+03  0.85920925659E+03  0.00000000000E+00 0. -1.
          1    1    1    2  502    0  0.14765524411E+02  0.25697645885E+02  0.43484704239E+03  0.43585587066E+03  0.00000000000E+00 0. -1.
         22    1    3    3    0    0  0.49748914584E+02  0.28422503050E+02 -0.46959641966E+02  0.74081044508E+02  0.00000000000E+00 0. -1.
         22    1    3    3    0    0 -0.71557244068E+02 -0.20616299129E+00 -0.85757808925E+02  0.11169101787E+03  0.00000000000E+00 0. -1.
</event>
<event>
 7    1  0.5736319E-006  0.2485063E+03  0.7818608E-02  0.1295270E+00
          2   -1    0    0  502    0  0.00000000000E+00  0.00000000000E+00  0.91087332248E+03  0.91087332248E+03  0.00000000000E+00 0. -1.
          1   -1    0    0  501    0 -0.00000000000E+00 -0.00000000000E+00 -0.21886615967E+04  0.21886615967E+04  0.00000000000E+00 0. -1.
         25    2    1    2    0    0 -0.10632958744E+03  0.26125291272E+03  0.48664252837E+02  0.31233392533E+03  0.12500082333E+03 0.  0.
          2    1    1    2  501    0  0.92089367518E+02 -0.22932700601E+03 -0.20489796410E+04  0.20638286984E+04  0.00000000000E+00 0. -1.
          1    1    1    2  502    0  0.14240219917E+02 -0.31925906718E+02  0.72252711394E+03  0.72337229541E+03  0.00000000000E+00 0. -1.
         22    1    3    3    0    0 -0.55452286830E+02  0.21424378893E+02  0.29652553944E+02  0.66432176549E+02  0.00000000000E+00 0.  1.
         22    1    3    3    0    0 -0.50877300606E+02  0.23982853383E+03  0.19011698892E+02  0.24590174878E+03  0.00000000000E+00 0.  1.
</event>
<event>
 7    1  0.5736319E-006  0.1165046E+03  0.7818608E-02  0.1355815E+00
          2   -1    0    0  502    0  0.00000000000E+00  0.00000000000E+00  0.22805757314E+04  0.22805757314E+04  0.00000000000E+00 0. -1.
          1   -1    0    0  501    0 -0.00000000000E+00 -0.00000000000E+00 -0.13183027188E+03  0.13183027188E+03  0.00000000000E+00 0. -1.
         25    2    1    2    0    0  0.14948403334E+03  0.49043092341E+02  0.34261561343E+03  0.39719153912E+03  0.12499983620E+03 0.  0.
          2    1    1    2  501    0 -0.42478663852E+02 -0.98366544666E+01 -0.98217094233E+02  0.10746066375E+03  0.00000000000E+00 0. -1.
          1    1    1    2  502    0 -0.10700536949E+03 -0.39206437875E+02  0.19043469403E+04  0.19077538004E+04  0.00000000000E+00 0. -1.
         22    1    3    3    0    0  0.21540509658E+02  0.34341562246E+02  0.11843775459E+02  0.42232824568E+02  0.00000000000E+00 0. -1.
         22    1    3    3    0    0  0.12794352369E+03  0.14701530095E+02  0.33077183797E+03  0.35495871455E+03  0.00000000000E+00 0. -1.
</event>
<event>
 7    1  0.5736319E-006  0.5748107E+02  0.7818608E-02  0.1529228E+00
          2   -1    0    0  502    0  0.00000000000E+00  0.00000000000E+00  0.68290633444E+03  0.68290633444E+03  0.00000000000E+00 0. -1.
          1   -1    0    0  501    0 -0.00000000000E+00 -0.00000000000E+00 -0.41250386349E+03  0.41250386349E+03  0.00000000000E+00 0. -1.
         25    2    1    2    0    0  0.24943636879E+02 -0.24206127000E+02  0.21952095920E+03  0.25499323210E+03  0.12499590107E+03 0.  0.
          2    1    1    2  501    0 -0.47651353709E+02  0.32514726017E+02 -0.39232893785E+03  0.39654741758E+03  0.00000000000E+00 0. -1.
          1    1    1    2  502    0  0.22707716830E+02 -0.83085990165E+01  0.44321044960E+03  0.44386954824E+03  0.00000000000E+00 0. -1.
         22    1    3    3    0    0 -0.44958987917E+01 -0.21916093863E+02 -0.93337240045E+01  0.24241424875E+02  0.00000000000E+00 0. -1.
         22    1    3    3    0    0  0.29439535671E+02 -0.22900331368E+01  0.22885468321E+03  0.23075180723E+03  0.00000000000E+00 0. -1.
</event>
<event>
 7    1  0.5736319E-006  0.1137942E+03  0.7818608E-02  0.1357620E+00
          2   -1    0    0  502    0  0.00000000000E+00  0.00000000000E+00  0.33413205167E+03  0.33413205167E+03  0.00000000000E+00 0. -1.
          1   -1    0    0  501    0 -0.00000000000E+00 -0.00000000000E+00 -0.25751908256E+04  0.25751908256E+04  0.00000000000E+00 0. -1.
         25    2    1    2    0    0  0.38390388916E+01  0.96513931027E+02 -0.28197729007E+02  0.16046628076E+03  0.12499855294E+03 0.  0.
          2    1    1    2  501    0 -0.47145963646E+02 -0.10409700575E+03 -0.24777298059E+04  0.24803636668E+04  0.00000000000E+00 0. -1.
          1    1    1    2  502    0  0.43306924754E+02  0.75830747226E+01  0.26486876099E+03  0.26849292971E+03  0.00000000000E+00 0. -1.
         22    1    3    3    0    0  0.58364590235E+02  0.52123668927E+02 -0.42005443679E+02  0.88813059594E+02  0.00000000000E+00 0. -1.
         22    1    3    3    0    0 -0.54525551344E+02  0.44390262100E+02  0.13807714672E+02  0.71653221163E+02  0.00000000000E+00 0. -1.
</event>
<event>
 7    1  0.5736319E-006  0.4520187E+03  0.7818608E-02  0.1060424E+00
          2   -1    0    0  502    0  0.00000000000E+00  0.00000000000E+00  0.27783342692E+04  0.27783342692E+04  0.00000000000E+00 0. -1.
          1   -1    0    0  501    0 -0.00000000000E+00 -0.00000000000E+00 -0.61619196518E+03  0.61619196518E+03  0.00000000000E+00 0. -1.
         25    2    1    2    0    0  0.47758853555E+03  0.45513952575E+03  0.12792363066E+04  0.14447551443E+04  0.12501640518E+03 0.  0.
          2    1    1    2  501    0 -0.22758504681E+03 -0.16211127665E+03 -0.46797589528E+03  0.54504720723E+03  0.00000000000E+00 0. -1.
          1    1    1    2  502    0 -0.25000348874E+03 -0.29302824910E+03  0.13508818927E+04  0.14047238829E+04  0.00000000000E+00 0. -1.
         22    1    3    3    0    0  0.34063820073E+03  0.38175207794E+03  0.90624906013E+03  0.10406999528E+04  0.00000000000E+00 0.  1.
         22    1    3    3    0    0  0.13695033482E+03  0.73387447804E+02  0.37298724651E+03  0.40405519148E+03  0.00000000000E+00 0.  1.
</event>
<event>
 7    1  0.5736319E-006  0.8452077E+02  0.7818608E-02  0.1430998E+00
          2   -1    0    0  502    0  0.00000000000E+00  0.00000000000E+00  0.19957735020E+04  0.19957735020E+04  0.00000000000E+00 0. -1.
          1   -1    0    0  501    0 -0.00000000000E+00 -0.00000000000E+00 -0.32629234153E+02  0.32629234153E+02  0.00000000000E+00 0. -1.
         25    2    1    2    0    0  0.25306742282E+02 -0.48247680840E+02  0.33343095960E+03  0.36023673561E+03  0.12500412372E+03 0.  0.
          2    1    1    2  501    0  0.10264376393E+02 -0.31293893607E+02 -0.30538673324E+01  0.33075539383E+02  0.00000000000E+00 0. -1.
          1    1    1    2  502    0 -0.35571118675E+02  0.79541574446E+02  0.16327671756E+04  0.16350904612E+04  0.00000000000E+00 0. -1.
         22    1    3    3    0    0  0.20156727954E+02 -0.87991979095E+02  0.17619363582E+03  0.19797242074E+03  0.00000000000E+00 0.  1.
         22    1    3    3    0    0  0.51500143281E+01  0.39744298256E+02  0.15723732378E+03  0.16226431487E+03  0.00000000000E+00 0.  1.
</event>
<event>
 7    1  0.5736319E-006  0.1825663E+03  0.7818608E-02  0.1256406E+00
          2   -1    0    0  502    0  0.00000000000E+00  0.00000000000E+00  0.94590129277E+03  0.94590129277E+03  0.00000000000E+00 0. -1.
          1   -1    0    0  501    0 -0.00000000000E+00 -0.00000000000E+00 -0.57462501996E+03  0.57462501996E+03  0.00000000000E+00 0. -1.
         25    2    1    2    0    0  0.13320002178E+03  0.12610240103E+03 -0.14291027671E+03  0.26399245714E+03  0.12499843555E+03 0.  0.
          2    1    1    2  501    0 -0.78613748119E+02 -0.16839392395E+03 -0.34644200541E+03  0.39313954027E+03  0.00000000000E+00 0. -1.
          1    1    1    2  502    0 -0.54586273663E+02  0.42291522918E+02  0.86062855492E+03  0.86339431532E+03  0.00000000000E+00 0. -1.
         22    1    3    3    0    0  0.61495488426E+02  0.83808763690E+02 -0.64581519426E+01  0.10415042820E+03  0.00000000000E+00 0. -1.
         22    1    3    3    0    0  0.71704533356E+02  0.42293637340E+02 -0.13645212476E+03  0.15984202894E+03  0.00000000000E+00 0. -1.
</event>
<event>
 7    1  0.5736319E-006  0.3998251E+02  0.7818608E-02  0.1588427E+00
          2   -1    0    0  502    0  0.00000000000E+00  0.00000000000E+00  0.23536845926E+03  0.23536845926E+03  0.00000000000E+00 0. -1.
          1   -1    0    0  501    0 -0.00000000000E+00 -0.00000000000E+00 -0.17708831459E+04  0.17708831459E+04  0.00000000000E+00 0. -1.
         25    2    1    2    0    0  0.42918776449E+02 -0.61759631129E+01 -0.13850510113E+04  0.13913554449E+04  0.12499402393E+03 0.  0.
          2    1    1    2  501    0 -0.12811465523E+02 -0.20139586449E+02 -0.38058184440E+03  0.38132961710E+03  0.00000000000E+00 0. -1.
          1    1    1    2  502    0 -0.30107310926E+02  0.26315549562E+02  0.23011816914E+03  0.23356654317E+03  0.00000000000E+00 0. -1.
         22    1    3    3    0    0  0.57895036736E+02  0.47342885420E+02 -0.67420827127E+03  0.67834355390E+03  0.00000000000E+00 0.  1.
         22    1    3    3    0    0 -0.14976260287E+02 -0.53518848532E+02 -0.71084274008E+03  0.71301189096E+03  0.00000000000E+00 0.  1.
</event>
<event>
 7    1  0.5840370E-006  0.6937914E+02  0.7818608E-02  0.1414969E+00
          2   -1    0    0  502    0  0.00000000000E+00  0.00000000000E+00  0.22093483208E+04  0.22093483208E+04  0.00000000000E+00 0. -1.
          1   -1    0    0  501    0 -0.00000000000E+00 -0.00000000000E+00 -0.93740745174E+03  0.93740745174E+03  0.00000000000E+00 0. -1.
         25    2    1    2    0    0 -0.99945707445E+02 -0.39092076750E+02  0.23181895764E+02  0.16637459479E+03  0.12500308235E+03 0.  0.
          2    1    1    2  501    0  0.31099145253E+02  0.33023252158E+02 -0.86465166980E+03  0.86584074869E+03  0.00000000000E+00 0. -1.
          1    1    1    2  502    0  0.68846562192E+02  0.60688245922E+01  0.21134106431E+04  0.21145404291E+04  0.00000000000E+00 0. -1.
         22    1    3    3    0    0 -0.11441288339E+03 -0.25491136662E+02 -0.19938581264E+02  0.11890186272E+03  0.00000000000E+00 0.  1.
         22    1    3    3    0    0  0.14467175947E+02 -0.13600940088E+02  0.43120477028E+02  0.47472732072E+02  0.00000000000E+00 0.  1.
</event>
<event>
 7    1  0.5736319E-006  0.7240460E+02  0.7818608E-02  0.1431472E+00
          2   -1    0    0  502    0  0.00000000000E+00  0.00000000000E+00  0.44864198281E+02  0.44864198281E+02  0.00000000000E+00 0. -1.
          1   -1    0    0  501    0 -0.00000000000E+00 -0.00000000000E+00 -0.13676453947E+04  0.13676453947E+04  0.00000000000E+00 0. -1.
         25    2    1    2    0    0  0.12527079934E+02 -0.47190146993E+02 -0.92916480805E+03  0.93880473787E+03  0.12499303034E+03 0.  0.
          2    1    1    2  501    0 -0.29632223594E+02 -0.24278304682E+02 -0.39823470148E+03  0.40007297111E+03  0.00000000000E+00 0. -1.
          1    1    1    2  502    0  0.17105143660E+02  0.71468451675E+02  0.46183131080E+01  0.73631883994E+02  0.00000000000E+00 0. -1.
         22    1    3    3    0    0 -0.17998307619E+02  0.18881681733E+02 -0.47923706778E+02  0.54563162056E+02  0.00000000000E+00 0.  1.
         22    1    3    3    0    0  0.30525387553E+02 -0.66071828726E+02 -0.88124110127E+03  0.88424157582E+03  0.00000000000E+00 0.  1.
</event>
<event>
 7    1  0.5736319E-006  0.1152361E+03  0.7818608E-02  0.1273097E+00
          2   -1    0    0  502    0  0.00000000000E+00  0.00000000000E+00  0.91523312151E+03  0.91523312151E+03  0.00000000000E+00 0. -1.
          1   -1    0    0  501    0 -0.00000000000E+00 -0.00000000000E+00 -0.68074985151E+03  0.68074985151E+03  0.00000000000E+00 0. -1.
         25    2    1    2    0    0 -0.14696889059E+03 -0.10028827248E+03 -0.26391854898E+03  0.34196174297E+03  0.12500896271E+03 0.  0.
          2    1    1    2  501    0  0.54521821822E+02  0.90489766158E+02 -0.36788845514E+03  0.38275702771E+03  0.00000000000E+00 0. -1.
          1    1    1    2  502    0  0.92447068768E+02  0.97985063251E+01  0.86629027412E+03  0.87126420234E+03  0.00000000000E+00 0. -1.
         22    1    3    3    0    0 -0.78198678230E+02 -0.11815119033E+03 -0.20737932674E+03  0.25115915714E+03  0.00000000000E+00 0. -1.
         22    1    3    3    0    0 -0.68770212360E+02  0.17862917851E+02 -0.56539222239E+02  0.90802585830E+02  0.00000000000E+00 0. -1.
</event>
<event>
 7    1  0.5736319E-006  0.2871724E+03  0.7818608E-02  0.1311555E+00
          2   -1    0    0  502    0  0.00000000000E+00  0.00000000000E+00  0.24101462443E+03  0.24101462443E+03  0.00000000000E+00 0. -1.
          1   -1    0    0  501    0 -0.00000000000E+00 -0.00000000000E+00 -0.16590639472E+04  0.16590639472E+04  0.00000000000E+00 0. -1.
         25    2    1    2    0    0  0.10809265236E+03  0.24833800926E+03 -0.15557431902E+03  0.33642813180E+03  0.12499892316E+03 0.  0.
          2    1    1    2  501    0  0.10034707538E+02  0.24045248623E+02 -0.12664605794E+04  0.12667285694E+04  0.00000000000E+00 0. -1.
          1    1    1    2  502    0 -0.11812735989E+03 -0.27238325788E+03  0.39855756574E+01  0.29692187044E+03  0.00000000000E+00 0. -1.
         22    1    3    3    0    0 -0.20983952997E+02  0.71649298758E+02 -0.14428494203E+02  0.76040316549E+02  0.00000000000E+00 0.  1.
         22    1    3    3    0    0  0.12907660535E+03  0.17668871050E+03 -0.14114582482E+03  0.26038781525E+03  0.00000000000E+00 0.  1.
</event>
<event>
 7    1  0.5736319E-006  0.7022060E+02  0.7818608E-02  0.1402838E+00
          2   -1    0    0  502    0  0.00000000000E+00  0.00000000000E+00  0.26031888158E+04  0.26031888158E+04  0.00000000000E+00 0. -1.
          1   -1    0    0  501    0 -0.00000000000E+00 -0.00000000000E+00 -0.28344173027E+03  0.28344173027E+03  0.00000000000E+00 0. -1.
         25    2    1    2    0    0  0.10396472037E+03 -0.13212274509E+02  0.94687367663E+03  0.96082162445E+03  0.12500082893E+03 0.  0.
          2    1    1    2  501    0 -0.67278995451E+02 -0.19685308954E+02 -0.27164924845E+03  0.28054819337E+03  0.00000000000E+00 0. -1.
          1    1    1    2  502    0 -0.36685724920E+02  0.32897583464E+02  0.16445226574E+04  0.16452607283E+04  0.00000000000E+00 0. -1.
         22    1    3    3    0    0  0.38104795272E+02  0.54956388405E+02  0.45633611093E+03  0.46121017572E+03  0.00000000000E+00 0. -1.
         22    1    3    3    0    0  0.65859925099E+02 -0.68168662914E+02  0.49053756571E+03  0.49961144874E+03  0.00000000000E+00 0. -1.
</event>
<event>
 7    1  0.5736319E-006  0.1745373E+03  0.7818608E-02  0.1255705E+00
          2   -1    0    0  502    0  0.00000000000E+00  0.00000000000E+00  0.22045371755E+03  0.22045371755E+03  0.00000000000E+00 0. -1.
          1   -1    0    0  501    0 -0.00000000000E+00 -0.00000000000E+00 -0.32460367134E+04  0.32460367134E+04  0.00000000000E+00 0. -1.
         25    2    1    2    0    0  0.15203562357E+03 -0.70703008464E+02 -0.38773018972E+03  0.44053700734E+03  0.12499763427E+03 0.  0.
          2    1    1    2  501    0 -0.11555914728E+03  0.13362668828E+03 -0.28222276116E+04  0.28277515273E+04  0.00000000000E+00 0. -1.
          1    1    1    2  502    0 -0.36476476292E+02 -0.62923679816E+02  0.18437480549E+03  0.19820189632E+03  0.00000000000E+00 0. -1.
         22    1    3    3    0    0 -0.51175280961E+01 -0.14877722203E+02 -0.14607729417E+03  0.14692212761E+03  0.00000000000E+00 0. -1.
         22    1    3    3    0    0  0.15715315167E+03 -0.55825286261E+02 -0.24165289555E+03  0.29361487972E+03  0.00000000000E+00 0. -1.
</event>
<event>
 7    1  0.5736319E-006  0.9528020E+02  0.7818608E-02  0.1307806E+00
          2   -1    0    0  502    0  0.00000000000E+00  0.00000000000E+00  0.10639818910E+04  0.10639818910E+04  0.00000000000E+00 0. -1.
          1   -1    0    0  501    0 -0.00000000000E+00 -0.00000000000E+00 -0.38687481499E+03  0.38687481499E+03  0.00000000000E+00 0. -1.
         25    2    1    2    0    0 -0.14218965665E+03 -0.98307029465E+02 -0.71522866753E+02  0.22499695651E+03  0.12500375782E+03 0.  0.
          2    1    1    2  501    0  0.74109445932E+02  0.33303762051E+02 -0.22937277123E+03  0.24333766401E+03  0.00000000000E+00 0. -1.
          1    1    1    2  502    0  0.68080210721E+02  0.65003267414E+02  0.97800271400E+03  0.98252208548E+03  0.00000000000E+00 0. -1.
         22    1    3    3    0    0 -0.11121111218E+03 -0.12380314427E+03 -0.33573656566E+02  0.16977137691E+03  0.00000000000E+00 0.  1.
         22    1    3    3    0    0 -0.30978544472E+02  0.25496114806E+02 -0.37949210188E+02  0.55225579596E+02  0.00000000000E+00 0.  1.
</event>
<event>
 7    1  0.5736319E-006  0.2642114E+03  0.7818608E-02  0.1187491E+00
          2   -1    0    0  502    0  0.00000000000E+00  0.00000000000E+00  0.12929388450E+04  0.12929388450E+04  0.00000000000E+00 0. -1.
          1   -1    0    0  501    0 -0.00000000000E+00 -0.00000000000E+00 -0.19441765129E+04  0.19441765129E+04  0.00000000000E+00 0. -1.
         25    2    1    2    0    0 -0.16049561983E+03 -0.98001783949E+02 -0.10548978132E+03  0.24923199120E+03  0.12500119132E+03 0.  0.
          2    1    1    2  501    0 -0.97209312530E+02  0.13883393097E+02 -0.17503767499E+04  0.17531289643E+04  0.00000000000E+00 0. -1.
          1    1    1    2  502    0  0.25770493236E+03  0.84118390852E+02  0.12046288633E+04  0.12347544024E+04  0.00000000000E+00 0. -1.
         22    1    3    3    0    0 -0.12285658563E+02  0.21465430632E+01  0.24920019946E+02  0.27866690646E+02  0.00000000000E+00 0.  1.
         22    1    3    3    0    0 -0.14820996127E+03 -0.10014832701E+03 -0.13040980126E+03  0.22136530055E+03  0.00000000000E+00 0.  1.
</event>
<event>
 7    1  0.5736319E-006  0.1094481E+03  0.7818608E-02  0.1416261E+00
          2   -1    0    0  502    0  0.00000000000E+00  0.00000000000E+00  0.15299138678E+03  0.15299138678E+03  0.00000000000E+00 0. -1.
          1   -1    0    0  501    0 -0.00000000000E+00 -0.00000000000E+00 -0.14966074874E+04  0.14966074874E+04  0.00000000000E+00 0. -1.
         25    2    1    2    0    0 -0.39126964816E+02  0.77068913317E+02 -0.90796178052E+02  0.17703002539E+03  0.12500058865E+03 0.  0.
          2    1    1    2  501    0 -0.16909044866E+02  0.22903159896E+02 -0.13326158216E+04  0.13329198770E+04  0.00000000000E+00 0. -1.
          1    1    1    2  502    0  0.56036009682E+02 -0.99972073213E+02  0.79795899072E+02  0.13964897175E+03  0.00000000000E+00 0. -1.
         22    1    3    3    0    0 -0.20967230256E+02  0.10102880731E+02  0.29852196006E+02  0.37852959594E+02  0.00000000000E+00 0.  1.
         22    1    3    3    0    0 -0.18159734560E+02  0.66966032586E+02 -0.12064837406E+03  0.13917706579E+03  0.00000000000E+00 0.  1.
</event>
<event>
 7    1  0.5736319E-006  0.1011344E+03  0.7818608E-02  0.1281878E+00
          2   -1    0    0  502    0  0.00000000000E+00  0.00000000000E+00  0.32550695328E+02  0.32550695328E+02  0.00000000000E+00 0. -1.
          1   -1    0    0  501    0 -0.00000000000E+00 -0.00000000000E+00 -0.14794891368E+04  0.14794891368E+04  0.00000000000E+00 0. -1.
         25    2    1    2    0    0 -0.13433244311E+02 -0.48978922178E+01 -0.69499077693E+03  0.70628806919E+03  0.12500486095E+03 0.  0.
          2    1    1    2  501    0 -0.10110700383E+03  0.23554041496E+01 -0.63139047428E+03  0.63943889869E+03  0.00000000000E+00 0. -1.
          1    1    1    2  502    0  0.11454024814E+03  0.25424880682E+01 -0.12055719028E+03  0.16631286426E+03  0.00000000000E+00 0. -1.
         22    1    3    3    0    0  0.29327361738E+02 -0.32690260789E+02 -0.10129280511E+03  0.11040371219E+03  0.00000000000E+00 0. -1.
         22    1    3    3    0    0 -0.42760606049E+02  0.27792368571E+02 -0.59369797181E+03  0.59588435700E+03  0.00000000000E+00 0. -1.
</event>
<event>
 7    1  0.5736319E-006  0.5988422E+02  0.7818608E-02  0.1463812E+00
          2   -1    0    0  502    0  0.00000000000E+00  0.00000000000E+00  0.11866447733E+04  0.11866447733E+04  0.00000000000E+00 0. -1.
          1   -1    0    0  501    0 -0.00000000000E+00 -0.00000000000E+00 -0.85968563231E+02  0.85968563231E+02  0.00000000000E+00 0. -1.
         25    2    1    2    0    0  0.60973771367E+02  0.69654189267E+02  0.41469016242E+03  0.44290197485E+03  0.12499888655E+03 0.  0.
          2    1    1    2  501    0 -0.46659247867E+02 -0.36113131289E+02 -0.59230410213E+02  0.83603140832E+02  0.00000000000E+00 0. -1.
          1    1    1    2  502    0 -0.14314523499E+02 -0.33541057978E+02  0.74521645786E+03  0.74610822085E+03  0.00000000000E+00 0. -1.
         22    1    3    3    0    0  0.53643913484E+01  0.94482776681E+02  0.25470984066E+03  0.27172205415E+03  0.00000000000E+00 0.  1.
         22    1    3    3    0    0  0.55609380018E+02 -0.24828587414E+02  0.15998032176E+03  0.17117992070E+03  0.00000000000E+00 0.  1.
</event>
<event>
 7    1  0.5736319E-006  0.1240087E+03  0.7818608E-02  0.1293391E+00
          2   -1    0    0  502    0  0.00000000000E+00  0.00000000000E+00  0.58792213213E+03  0.58792213213E+03  0.00000000000E+00 0. -1.
          1   -1    0    0  501    0 -0.00000000000E+00 -0.00000000000E+00 -0.87641838004E+03  0.87641838004E+03  0.00000000000E+00 0. -1.
         25    2    1    2    0    0 -0.14896044780E+03 -0.42318600869E+02 -0.16565533782E+03  0.25893093506E+03  0.12499383662E+03 0.  0.
          2    1    1    2  501    0  0.11987262432E+03 -0.22765675187E+02 -0.65612902625E+03  0.66737771998E+03  0.00000000000E+00 0. -1.
          1    1    1    2  502    0  0.29087823476E+02  0.65084276056E+02  0.53328811616E+03  0.53803185715E+03  0.00000000000E+00 0. -1.
         22    1    3    3    0    0 -0.29307939563E+02 -0.64952604351E+02 -0.31983257951E+02  0.78107137462E+02  0.00000000000E+00 0. -1.
         22    1    3    3    0    0 -0.11965250823E+03  0.22634003482E+02 -0.13367207987E+03  0.18082379759E+03  0.00000000000E+00 0. -1.
</event>
<event>
 7    1  0.5736319E-006  0.7563359E+02  0.7818608E-02  0.1364000E+00
          2   -1    0    0  502    0  0.00000000000E+00  0.00000000000E+00  0.12854487691E+04  0.12854487691E+04  0.00000000000E+00 0. -1.
          1   -1    0    0  501    0 -0.00000000000E+00 -0.00000000000E+00 -0.95674984971E+02  0.95674984971E+02  0.00000000000E+00 0. -1.
         25    2    1    2    0    0  0.97282666418E+02 -0.83035751030E+02  0.42327160449E+03  0.45950447741E+03  0.12500664165E+03 0.  0.
          2    1    1    2  501    0 -0.31854001019E+02  0.54005843717E+02 -0.63088404391E+02  0.88946361956E+02  0.00000000000E+00 0. -1.
          1    1    1    2  502    0 -0.65428665399E+02  0.29029907313E+02  0.82959058407E+03  0.83267291474E+03  0.00000000000E+00 0. -1.
         22    1    3    3    0    0  0.13636423744E+02  0.32795128033E+02  0.97969485796E+02  0.10420888936E+03  0.00000000000E+00 0. -1.
         22    1    3    3    0    0  0.83646242675E+02 -0.11583087906E+03  0.32530211870E+03  0.35529558805E+03  0.00000000000E+00 0. -1.
</event>
<event>
 7    1  0.5736319E-006  0.9663067E+02  0.7818608E-02  0.1366129E+00
          2   -1    0    0  502    0  0.00000000000E+00  0.00000000000E+00  0.25390433886E+03  0.25390433886E+03  0.00000000000E+00 0. -1.
          1   -1    0    0  501    0 -0.00000000000E+00 -0.00000000000E+00 -0.15725860178E+03  0.15725860178E+03  0.00000000000E+00 0. -1.
         25    2    1    2    0    0 -0.33245487922E+02 -0.48985572890E+02 -0.85145860606E+02  0.16241790450E+03  0.12499963722E+03 0.  0.
          2    1    1    2  501    0 -0.46326263416E+02 -0.13351582160E+02  0.97230178231E+01  0.49182563006E+02  0.00000000000E+00 0. -1.
          1    1    1    2  502    0  0.79571751338E+02  0.62337155051E+02  0.17206857985E+03  0.19956247313E+03  0.00000000000E+00 0. -1.
         22    1    3    3    0    0  0.82388379947E+01 -0.71176605648E+02 -0.90092977110E+02  0.11511182462E+03  0.00000000000E+00 0. -1.
         22    1    3    3    0    0 -0.41484325916E+02  0.22191032758E+02  0.49471165040E+01  0.47306079877E+02  0.00000000000E+00 0. -1.
</event>
<event>
 7    1  0.5736319E-006  0.2653328E+03  0.7818608E-02  0.1213445E+00
          2   -1    0    0  502    0  0.00000000000E+00  0.00000000000E+00  0.91995894712E+03  0.91995894712E+03  0.00000000000E+00 0. -1.
          1   -1    0    0  501    0 -0.00000000000E+00 -0.00000000000E+00 -0.67053658067E+03  0.67053658067E+03  0.00000000000E+00 0. -1.
         25    2    1    2    0    0 -0.19066968362E+03  0.25828367456E+03  0.68252258178E+02  0.35121136265E+03  0.12500266281E+03 0.  0.
          2    1    1    2  501    0  0.12480568149E+03 -0.22503826169E+03 -0.49564240283E+03  0.55846223582E+03  0.00000000000E+00 0. -1.
          1    1    1    2  502    0  0.65864002132E+02 -0.33245412868E+02  0.67681251110E+03  0.68082192931E+03  0.00000000000E+00 0. -1.
         22    1    3    3    0    0 -0.99966952758E+02  0.22533414969E+03  0.63657284792E+02  0.25459992256E+03  0.00000000000E+00 0. -1.
         22    1    3    3    0    0 -0.90702730863E+02  0.32949524871E+02  0.45949733866E+01  0.96611440086E+02  0.00000000000E+00 0. -1.
</event>
<event>
 7    1  0.5736319E-006  0.4184275E+02  0.7818608E-02  0.1593221E+00
          2   -1    0    0  502    0  0.00000000000E+00  0.00000000000E+00  0.72946075974E+03  0.72946075974E+03  0.00000000000E+00 0. -1.
          1   -1    0    0  501    0 -0.00000000000E+00 -0.00000000000E+00 -0.11015780773E+03  0.11015780773E+03  0.00000000000E+00 0. -1.
         25    2    1    2    0    0  0.27816792718E+02 -0.14178568513E+02 -0.58775265516E+02  0.14161495046E+03  0.12500182636E+03 0.  0.
          2    1    1    2  501    0 -0.56428188447E+01 -0.21421265911E+02  0.38644162071E+01  0.22486568222E+02  0.00000000000E+00 0. -1.
          1    1    1    2  502    0 -0.22173973873E+02  0.35599834425E+02  0.67421380131E+03  0.67551704879E+03  0.00000000000E+00 0. -1.
         22    1    3    3    0    0 -0.17622980120E+02  0.37010909217E+02 -0.60576813140E+02  0.73143195990E+02  0.00000000000E+00 0. -1.
         22    1    3    3    0    0  0.45439772838E+02 -0.51189477731E+02  0.18015476235E+01  0.68471754467E+02  0.00000000000E+00 0. -1.
</event>
<event>
 7    1  0.5736319E-006  0.8942182E+02  0.7818608E-02  0.1337192E+00
          2   -1    0    0  502    0  0.00000000000E+00  0.00000000000E+00  0.16870102789E+04  0.16870102789E+04  0.00000000000E+00 0. -1.
          1   -1    0    0  501    0 -0.00000000000E+00 -0.00000000000E+00 -0.24001062119E+03  0.24001062119E+03  0.00000000000E+00 0. -1.
         25    2    1    2    0    0  0.86329738092E+02  0.78108753344E+02  0.12272303434E+03  0.21033255279E+03  0.12500015432E+03 0.  0.
          2    1    1    2  501    0 -0.66067710820E+02  0.87726648952E+01 -0.18919442769E+03  0.20059021295E+03  0.00000000000E+00 0. -1.
          1    1    1    2  502    0 -0.20262027272E+02 -0.86881418239E+02  0.15134710510E+04  0.15160981343E+04  0.00000000000E+00 0. -1.
         22    1    3    3    0    0  0.30289714936E+02  0.81375388028E+02  0.12720946757E+03  0.15401840554E+03  0.00000000000E+00 0. -1.
         22    1    3    3    0    0  0.56040023155E+02 -0.32666346837E+01 -0.44864332254E+01  0.56314147250E+02  0.00000000000E+00 0. -1.
</event>
<event>
 7    1  0.5736319E-006  0.9471829E+02  0.7818608E-02  0.1340271E+00
          2   -1    0    0  502    0  0.00000000000E+00  0.00000000000E+00  0.46088996802E+03  0.46088996802E+03  0.00000000000E+00 0. -1.
          1   -1    0    0  501    0 -0.00000000000E+00 -0.00000000000E+00 -0.13299287444E+04  0.13299287444E+04  0.00000000000E+00 0. -1.
         25    2    1    2    0    0  0.11543766277E+03 -0.99461483751E+02 -0.32391809960E+03  0.37916582653E+03  0.12500139209E+03 0.  0.
          2    1    1    2  501    0 -0.35783084202E+02  0.49725269278E+02 -0.97232301465E+03  0.97425103353E+03  0.00000000000E+00 0. -1.
          1    1    1    2  502    0 -0.79654578566E+02  0.49736214472E+02  0.42720233790E+03  0.43740185233E+03  0.00000000000E+00 0. -1.
         22    1    3    3    0    0  0.90522785185E+00 -0.20047777238E+01 -0.14679918297E+03  0.14681566228E+03  0.00000000000E+00 0.  1.
         22    1    3    3    0    0  0.11453243492E+03 -0.97456706027E+02 -0.17711891663E+03  0.23235016425E+03  0.00000000000E+00 0.  1.
</event>
<event>
 7    1  0.5736319E-006  0.6893618E+02  0.7818608E-02  0.1377531E+00
          2   -1    0    0  502    0  0.00000000000E+00  0.00000000000E+00  0.12282761453E+04  0.12282761453E+04  0.00000000000E+00 0. -1.
          1   -1    0    0  501    0 -0.00000000000E+00 -0.00000000000E+00 -0.78250888469E+03  0.78250888469E+03  0.00000000000E+00 0. -1.
         25    2    1    2    0    0  0.11236689537E+02  0.24890916395E+02  0.12638112595E+03  0.17984168143E+03  0.12500008189E+03 0.  0.
          2    1    1    2  501    0  0.42305546443E+02 -0.55167593788E+02 -0.75329693641E+03  0.75649818048E+03  0.00000000000E+00 0. -1.
          1    1    1    2  502    0 -0.53542235980E+02  0.30276677393E+02  0.10726830711E+04  0.10744451681E+04  0.00000000000E+00 0. -1.
         22    1    3    3    0    0 -0.97807409743E+01  0.65042300233E+02  0.11599772387E+03  0.13334779960E+03  0.00000000000E+00 0. -1.
         22    1    3    3    0    0  0.21017430511E+02 -0.40151383839E+02  0.10383402079E+02  0.46493881836E+02  0.00000000000E+00 0. -1.
</event>
<event>
 7    1  0.5736319E-006  0.4549108E+02  0.7818608E-02  0.1482250E+00
          2   -1    0    0  502    0  0.00000000000E+00  0.00000000000E+00  0.18348216158E+04  0.18348216158E+04  0.00000000000E+00 0. -1.
          1   -1    0    0  501    0 -0.00000000000E+00 -0.00000000000E+00 -0.43496808026E+03  0.43496808026E+03  0.00000000000E+00 0. -1.
         25    2    1    2    0    0  0.22715901142E+02  0.36902769782E+01  0.55804274690E+03  0.57233391620E+03  0.12499909584E+03 0.  0.
          2    1    1    2  501    0 -0.24601495116E+02  0.38357685900E+02 -0.42625889341E+03  0.42868775332E+03  0.00000000000E+00 0. -1.
          1    1    1    2  502    0  0.18855939735E+01 -0.42047962878E+02  0.12680696821E+04  0.12687680266E+04  0.00000000000E+00 0. -1.
         22    1    3    3    0    0 -0.26139481384E+02  0.42389993362E+02  0.12067139094E+03  0.13054412517E+03  0.00000000000E+00 0. -1.
         22    1    3    3    0    0  0.48855382527E+02 -0.38699716384E+02  0.43737135596E+03  0.44178979103E+03  0.00000000000E+00 0. -1.
</event>
<event>
 7    1  0.5736319E-006  0.1511156E+03  0.7818608E-02  0.1295513E+00
          2   -1    0    0  502    0  0.00000000000E+00  0.00000000000E+00  0.24822657495E+04  0.24822657495E+04  0.00000000000E+00 0. -1.
          1   -1    0    0  501    0 -0.00000000000E+00 -0.00000000000E+00 -0.74603055295E+03  0.74603055295E+03  0.00000000000E+00 0. -1.
         25    2    1    2    0    0  0.77084614516E+02 -0.92079715019E+02  0.63399974702E+03  0.65726924565E+03  0.12500588124E+03 0.  0.
          2    1    1    2  501    0  0.57324175192E+02  0.19578708608E+01 -0.72970358637E+03  0.73195438265E+03  0.00000000000E+00 0. -1.
          1    1    1    2  502    0 -0.13440878971E+03  0.90121844158E+02  0.18319390359E+04  0.18390726742E+04  0.00000000000E+00 0. -1.
         22    1    3    3    0    0  0.90248715333E+02 -0.11352719270E+03  0.57725642255E+03  0.59519596057E+03  0.00000000000E+00 0.  1.
         22    1    3    3    0    0 -0.13164100816E+02  0.21447477679E+02  0.56743324461E+02  0.62073285075E+02  0.00000000000E+00 0.  1.
</event>
<event>
 7    1  0.5736319E-006  0.1031998E+03  0.7818608E-02  0.1391294E+00
          2   -1    0    0  502    0  0.00000000000E+00  0.00000000000E+00  0.43369828514E+02  0.43369828514E+02  0.00000000000E+00 0. -1.
          1   -1    0    0  501    0 -0.00000000000E+00 -0.00000000000E+00 -0.23526267250E+04  0.23526267250E+04  0.00000000000E+00 0. -1.
         25    2    1    2    0    0  0.12418503797E+03 -0.46882246586E+02 -0.46300231155E+03  0.49761018715E+03  0.12499955660E+03 0.  0.
          2    1    1    2  501    0 -0.29978881422E+02  0.21260547373E+02 -0.17800454974E+04  0.17804248698E+04  0.00000000000E+00 0. -1.
          1    1    1    2  502    0 -0.94206156547E+02  0.25621699213E+02 -0.66209087562E+02  0.11796149659E+03  0.00000000000E+00 0. -1.
         22    1    3    3    0    0  0.24499784354E+02  0.63285228625E+01 -0.48957745445E+01  0.25773207860E+02  0.00000000000E+00 0. -1.
         22    1    3    3    0    0  0.99685253615E+02 -0.53210769448E+02 -0.45810653701E+03  0.47183697929E+03  0.00000000000E+00 0. -1.
</event>
<event>
 7    1  0.5736319E-006  0.7616345E+02  0.7818608E-02  0.1477950E+00
          2   -1    0    0  502    0  0.00000000000E+00  0.00000000000E+00  0.44220858113E+02  0.44220858113E+02  0.00000000000E+00 0. -1.
          1   -1    0    0  501    0 -0.00000000000E+00 -0.00000000000E+00 -0.10018274295E+04  0.10018274295E+04  0.00000000000E+00 0. -1.
         25    2    1    2    0    0 -0.69555380050E+02  0.47214906893E+02 -0.32300978236E+03  0.35640619199E+03  0.12499142316E+03 0.  0.
          2    1    1    2  501    0 -0.28008485115E+01 -0.25763051348E+02 -0.60958580073E+03  0.61013640116E+03  0.00000000000E+00 0. -1.
          1    1    1    2  502    0  0.72356228562E+02 -0.21451855545E+02 -0.25010988315E+02  0.79505694478E+02  0.00000000000E+00 0. -1.
         22    1    3    3    0    0 -0.29937131562E+02  0.22318496213E+02 -0.83198989334E+01  0.38256605150E+02  0.00000000000E+00 0.  1.
         22    1    3    3    0    0 -0.39618248488E+02  0.24896410680E+02 -0.31468988342E+03  0.31814958684E+03  0.00000000000E+00 0.  1.
</event>
<event>
 7    1  0.5736319E-006  0.7556797E+02  0.7818608E-02  0.1355962E+00
          2   -1    0    0  502    0  0.00000000000E+00  0.00000000000E+00  0.44498691369E+03  0.44498691369E+03  0.00000000000E+00 0. -1.
          1   -1    0    0  501    0 -0.00000000000E+00 -0.00000000000E+00 -0.66903411183E+03  0.66903411183E+03  0.00000000000E+00 0. -1.
         25    2    1    2    0    0 -0.37738410305E+01 -0.18408098677E+02  0.40885417588E+02  0.13285102010E+03  0.12499870478E+03 0.  0.
          2    1    1    2  501    0 -0.55460009911E+02 -0.37840523712E+02 -0.61654700174E+03  0.62019184394E+03  0.00000000000E+00 0. -1.
          1    1    1    2  502    0  0.59233850942E+02  0.56248622390E+02  0.35161438600E+03  0.36097816148E+03  0.00000000000E+00 0. -1.
         22    1    3    3    0    0 -0.99791704568E+01 -0.24891168630E+02  0.84328951827E+02  0.88490260679E+02  0.00000000000E+00 0.  1.
         22    1    3    3    0    0  0.62053294263E+01  0.64830699529E+01 -0.43443534239E+02  0.44360759422E+02  0.00000000000E+00 0.  1.
</event>
<event>
 7    1  0.5736319E-006  0.1187356E+03  0.7818608E-02  0.1413262E+00
          2   -1    0    0  502    0  0.00000000000E+00  0.00000000000E+00  0.21803091049E+04  0.21803091049E+04  0.00000000000E+00 0. -1.
          1   -1    0    0  501    0 -0.00000000000E+00 -0.00000000000E+00 -0.39667388401E+02  0.39667388401E+02  0.00000000000E+00 0. -1.
         25    2    1    2    0    0  0.65629161932E+02 -0.68867657370E+02  0.27098878071E+03  0.31322671035E+03  0.12500444664E+03 0.  0.
          2    1    1    2  501    0  0.23686494615E+02 -0.12663315034E+02 -0.57368977924E+01  0.27464915275E+02  0.00000000000E+00 0. -1.
          1    1    1    2  502    0 -0.89315656546E+02  0.81530972404E+02  0.18753898336E+04  0.18792848676E+04  0.00000000000E+00 0. -1.
         22    1    3    3    0    0  0.23995792135E+01  0.11796478751E+02 -0.90246345736E+01  0.15045229161E+02  0.00000000000E+00 0.  1.
         22    1    3    3    0    0  0.63229582718E+02 -0.80664136122E+02  0.28001341528E+03  0.29818148119E+03  0.00000000000E+00 0.  1.
</event>
<event>
 7    1  0.5736319E-006  0.9275618E+02  0.7818608E-02  0.1359476E+00
          2   -1    0    0  502    0  0.00000000000E+00  0.00000000000E+00  0.17339908578E+04  0.17339908578E+04  0.00000000000E+00 0. -1.
          1   -1    0    0  501    0 -0.00000000000E+00 -0.00000000000E+00 -0.20223370626E+03  0.20223370626E+03  0.00000000000E+00 0. -1.
         25    2    1    2    0    0 -0.70308658717E+02  0.98148772600E+02  0.10599226071E+04  0.10740748203E+04  0.12499718994E+03 0.  0.
          2    1    1    2  501    0  0.80339668138E+02 -0.46003510936E+02 -0.18304281391E+03  0.20512302898E+03  0.00000000000E+00 0. -1.
          1    1    1    2  502    0 -0.10031009420E+02 -0.52145261663E+02  0.65487735842E+03  0.65702671485E+03  0.00000000000E+00 0. -1.
         22    1    3    3    0    0 -0.96127976032E+02  0.94482778438E+02  0.67830737248E+03  0.69156957333E+03  0.00000000000E+00 0.  1.
         22    1    3    3    0    0  0.25819317314E+02  0.36659941617E+01  0.38161523459E+03  0.38250524693E+03  0.00000000000E+00 0.  1.
</event>
<event>
 7    1  0.5736319E-006  0.4837062E+02  0.7818608E-02  0.1511165E+00
          2   -1    0    0  502    0  0.00000000000E+00  0.00000000000E+00  0.20591557483E+04  0.20591557483E+04  0.00000000000E+00 0. -1.
          1   -1    0    0  501    0 -0.00000000000E+00 -0.00000000000E+00 -0.25837449091E+02  0.25837449091E+02  0.00000000000E+00 0. -1.
         25    2    1    2    0    0 -0.58644919258E+02 -0.12584684830E+02  0.83084202728E+03  0.84233146373E+03  0.12500487846E+03 0.  0.
          2    1    1    2  501    0  0.13572736965E+02  0.29444333813E+02 -0.62154627722E+01  0.33012421297E+02  0.00000000000E+00 0. -1.
          1    1    1    2  502    0  0.45072182293E+02 -0.16859648983E+02  0.12086917347E+04  0.12096493124E+04  0.00000000000E+00 0. -1.
         22    1    3    3    0    0 -0.44512213645E+02 -0.39663675634E+02  0.78490535108E+03  0.78716640838E+03  0.00000000000E+00 0.  1.
         22    1    3    3    0    0 -0.14132705613E+02  0.27078990804E+02  0.45936676205E+02  0.55165055349E+02  0.00000000000E+00 0.  1.
</event>
<event>
 7    1  0.5736319E-006  0.9462320E+02  0.7818608E-02  0.1393163E+00
          2   -1    0    0  502    0  0.00000000000E+00  0.00000000000E+00  0.45945895402E+03  0.45945895402E+03  0.00000000000E+00 0. -1.
          1   -1    0    0  501    0 -0.00000000000E+00 -0.00000000000E+00 -0.32117318333E+03  0.32117318333E+03  0.00000000000E+00 0. -1.
         25    2    1    2    0    0  0.22502178960E+02  0.66506397367E+02  0.26078160930E+03  0.29759253699E+03  0.12499928549E+03 0.  0.
          2    1    1    2  501    0  0.45126288703E+01 -0.95307574603E+02 -0.29293675194E+03  0.30808414149E+03  0.00000000000E+00 0. -1.
          1    1    1    2  502    0 -0.27014807830E+02  0.28801177236E+02  0.17044091333E+03  0.17495545887E+03  0.00000000000E+00 0. -1.
         22    1    3    3    0    0  0.46473106365E+02  0.89044334244E+02  0.13931003127E+03  0.17174378559E+03  0.00000000000E+00 0.  1.
         22    1    3    3    0    0 -0.23970927405E+02 -0.22537936877E+02  0.12147157803E+03  0.12584875140E+03  0.00000000000E+00 0.  1.
</event>
<event>
 7    1  0.5736319E-006  0.5802420E+02  0.7818608E-02  0.1478928E+00
          2   -1    0    0  502    0  0.00000000000E+00  0.00000000000E+00  0.45093860036E+03  0.45093860036E+03  0.00000000000E+00 0. -1.
          1   -1    0    0  501    0 -0.00000000000E+00 -0.00000000000E+00 -0.14926477118E+04  0.14926477118E+04  0.00000000000E+00 0. -1.
         25    2    1    2    0    0 -0.21646151954E+02 -0.12125641989E+02 -0.23782661390E+03  0.26981804734E+03  0.12499877321E+03 0.  0.
          2    1    1    2  501    0 -0.32254061826E+02 -0.10043343701E+02 -0.12366413030E+04  0.12371026253E+04  0.00000000000E+00 0. -1.
          1    1    1    2  502    0  0.53900213780E+02  0.22168985690E+02  0.43275880549E+03  0.43666563947E+03  0.00000000000E+00 0. -1.
         22    1    3    3    0    0  0.86122152890E+01  0.46604943124E+02 -0.16416404087E+03  0.17086843855E+03  0.00000000000E+00 0. -1.
         22    1    3    3    0    0 -0.30258367243E+02 -0.58730585113E+02 -0.73662573029E+02  0.98949608797E+02  0.00000000000E+00 0. -1.
</event>
<event>
 7    1  0.5736319E-006  0.1694650E+03  0.7818608E-02  0.1308755E+00
          2   -1    0    0  502    0  0.00000000000E+00  0.00000000000E+00  0.80832707928E+02  0.80832707928E+02  0.00000000000E+00 0. -1.
          1   -1    0    0  501    0 -0.00000000000E+00 -0.00000000000E+00 -0.82741405411E+03  0.82741405411E+03  0.00000000000E+00 0. -1.
         25    2    1    2    0    0  0.16311123289E+03 -0.10241826523E+03 -0.24511152247E+03  0.33585637201E+03  0.12500027528E+03 0.  0.
          2    1    1    2  501    0 -0.19802539203E+02  0.40729696422E+02 -0.35665558695E+03  0.35951947990E+03  0.00000000000E+00 0. -1.
          1    1    1    2  502    0 -0.14330869369E+03  0.61688568810E+02 -0.14481423676E+03  0.21287091012E+03  0.00000000000E+00 0. -1.
         22    1    3    3    0    0  0.10633140165E+03 -0.11257970207E+02 -0.18256687504E+03  0.21157450870E+03  0.00000000000E+00 0. -1.
         22    1    3    3    0    0  0.56779831245E+02 -0.91160295026E+02 -0.62544647434E+02  0.12428186331E+03  0.00000000000E+00 0. -1.
</event>
<event>
 7    1  0.5736319E-006  0.6597986E+02  0.7818608E-02  0.1397456E+00
          2   -1    0    0  502    0  0.00000000000E+00  0.00000000000E+00  0.10352678895E+04  0.10352678895E+04  0.00000000000E+00 0. -1.
          1   -1    0    0  501    0 -0.00000000000E+00 -0.00000000000E+00 -0.50900366414E+03  0.50900366414E+03  0.00000000000E+00 0. -1.
         25    2    1    2    0    0 -0.95022980025E+02 -0.80468472404E+01  0.28348901689E+03  0.32416980477E+03  0.12500368452E+03 0.  0.
          2    1    1    2  501    0  0.44166509931E+02 -0.32313303950E+02 -0.48568277776E+03  0.48875616704E+03  0.00000000000E+00 0. -1.
          1    1    1    2  502    0  0.50856470095E+02  0.40360151190E+02  0.72845798623E+03  0.73134558182E+03  0.00000000000E+00 0. -1.
         22    1    3    3    0    0  0.20260821318E+02 -0.22897867601E+02  0.11827806639E+03  0.12216592900E+03  0.00000000000E+00 0.  1.
         22    1    3    3    0    0 -0.11528380134E+03  0.14851020360E+02  0.16521095050E+03  0.20200387577E+03  0.00000000000E+00 0.  1.
</event>
<event>
 7    1  0.5736319E-006  0.5186996E+02  0.7818608E-02  0.1457818E+00
          2   -1    0    0  502    0  0.00000000000E+00  0.00000000000E+00  0.26208126147E+03  0.26208126147E+03  0.00000000000E+00 0. -1.
          1   -1    0    0  501    0 -0.00000000000E+00 -0.00000000000E+00 -0.77541702803E+03  0.77541702803E+03  0.00000000000E+00 0. -1.
         25    2    1    2    0    0 -0.74257074342E+02  0.58909019646E+02 -0.68463953371E+01  0.15702287755E+03  0.12499970104E+03 0.  0.
          2    1    1    2  501    0  0.43101141144E+02 -0.27876757947E+02 -0.68993047013E+03  0.69183731875E+03  0.00000000000E+00 0. -1.
          1    1    1    2  502    0  0.31155933198E+02 -0.31032261699E+02  0.18344109890E+03  0.18863809320E+03  0.00000000000E+00 0. -1.
         22    1    3    3    0    0 -0.10275079778E+03  0.71845670406E+02 -0.22781390147E+01  0.12539823251E+03  0.00000000000E+00 0.  1.
         22    1    3    3    0    0  0.28493723434E+02 -0.12936650761E+02 -0.45682563225E+01  0.31624645039E+02  0.00000000000E+00 0.  1.
</event>
<event>
 7    1  0.5736319E-006  0.2281990E+03  0.7818608E-02  0.1187705E+00
          2   -1    0    0  502    0  0.00000000000E+00  0.00000000000E+00  0.48059938467E+03  0.48059938467E+03  0.00000000000E+00 0. -1.
          1   -1    0    0  501    0 -0.00000000000E+00 -0.00000000000E+00 -0.87282272004E+03  0.87282272004E+03  0.00000000000E+00 0. -1.
         25    2    1    2    0    0  0.29911811809E+03  0.12881119048E+03 -0.17819108825E+03  0.39171583253E+03  0.12500103264E+03 0.  0.
          2    1    1    2  501    0 -0.90048816364E+02 -0.68962465295E+02 -0.54995891570E+03  0.56153309779E+03  0.00000000000E+00 0. -1.
          1    1    1    2  502    0 -0.20906930173E+03 -0.59848725184E+02  0.33592666858E+03  0.40017317438E+03  0.00000000000E+00 0. -1.
         22    1    3    3    0    0  0.16277664714E+03  0.13507775054E+03 -0.95021843291E+02  0.23188658057E+03  0.00000000000E+00 0. -1.
         22    1    3    3    0    0  0.13634147095E+03 -0.62665600614E+01 -0.83169244960E+02  0.15982925196E+03  0.00000000000E+00 0. -1.
</event>
<event>
 7    1  0.5736319E-006  0.1924896E+03  0.7818608E-02  0.1337418E+00
          2   -1    0    0  502    0  0.00000000000E+00  0.00000000000E+00  0.69885483129E+03  0.69885483129E+03  0.00000000000E+00 0. -1.
          1   -1    0    0  501    0 -0.00000000000E+00 -0.00000000000E+00 -0.47400356543E+03  0.47400356543E+03  0.00000000000E+00 0. -1.
         25    2    1    2    0    0  0.11997594732E+03 -0.15507882206E+03 -0.41479093535E+02  0.23619913985E+03  0.12500339786E+03 0.  0.
          2    1    1    2  501    0 -0.92127224208E+02  0.16846904133E+03 -0.30721351558E+03  0.36228357330E+03  0.00000000000E+00 0. -1.
          1    1    1    2  502    0 -0.27848723117E+02 -0.13390219276E+02  0.57354387498E+03  0.57437568357E+03  0.00000000000E+00 0. -1.
         22    1    3    3    0    0  0.12294764875E+03 -0.17334208114E+03 -0.30530408867E+02  0.21469910874E+03  0.00000000000E+00 0.  1.
         22    1    3    3    0    0 -0.29717014245E+01  0.18263259085E+02 -0.10948684668E+02  0.21500031109E+02  0.00000000000E+00 0.  1.
</event>
<event>
 7    1  0.5736319E-006  0.1192437E+03  0.7818608E-02  0.1264831E+00
          2   -1    0    0  502    0  0.00000000000E+00  0.00000000000E+00  0.17668313223E+04  0.17668313223E+04  0.00000000000E+00 0. -1.
          1   -1    0    0  501    0 -0.00000000000E+00 -0.00000000000E+00 -0.85528866163E+03  0.85528866163E+03  0.00000000000E+00 0. -1.
         25    2    1    2    0    0  0.10148024559E+03 -0.13200049224E+03  0.13566142312E+03  0.24849871499E+03  0.12500087771E+03 0.  0.
          2    1    1    2  501    0  0.11631338868E+02  0.96631588967E+02 -0.79366325314E+03  0.79960884901E+03  0.00000000000E+00 0. -1.
          1    1    1    2  502    0 -0.11311158446E+03  0.35368903273E+02  0.15695444907E+04  0.15740124200E+04  0.00000000000E+00 0. -1.
         22    1    3    3    0    0  0.54352246339E+02 -0.82935528623E+02  0.27610385616E+01  0.99197237482E+02  0.00000000000E+00 0.  1.
         22    1    3    3    0    0  0.47127999248E+02 -0.49064963616E+02  0.13290038456E+03  0.14930147750E+03  0.00000000000E+00 0.  1.
</event>
<event>
 7    1  0.5736319E-006  0.9870296E+02  0.7818608E-02  0.1398348E+00
          2   -1    0    0  502    0  0.00000000000E+00  0.00000000000E+00  0.11567486356E+03  0.11567486356E+03  0.00000000000E+00 0. -1.
          1   -1    0    0  501    0 -0.00000000000E+00 -0.00000000000E+00 -0.15729819382E+04  0.15729819382E+04  0.00000000000E+00 0. -1.
         25    2    1    2    0    0 -0.60614120035E+02 -0.20855119462E+02 -0.49364805851E+03  0.51324702197E+03  0.12500036934E+03 0.  0.
          2    1    1    2  501    0 -0.33232608645E+02 -0.14663301681E+02 -0.10453728665E+04  0.10460037518E+04  0.00000000000E+00 0. -1.
          1    1    1    2  502    0  0.93846728681E+02  0.35518421143E+02  0.81713850423E+02  0.12940602797E+03  0.00000000000E+00 0. -1.
         22    1    3    3    0    0 -0.67218335065E+02  0.35719147033E+02 -0.36014173034E+03  0.36809812274E+03  0.00000000000E+00 0.  1.
         22    1    3    3    0    0  0.66042150297E+01 -0.56574266495E+02 -0.13350632817E+03  0.14514889923E+03  0.00000000000E+00 0.  1.
</event>
<event>
 7    1  0.5736319E-006  0.5352629E+02  0.7818608E-02  0.1496694E+00
          2   -1    0    0  502    0  0.00000000000E+00  0.00000000000E+00  0.22576053141E+03  0.22576053141E+03  0.00000000000E+00 0. -1.
          1   -1    0    0  501    0 -0.00000000000E+00 -0.00000000000E+00 -0.11015209000E+03  0.11015209000E+03  0.00000000000E+00 0. -1.
         25    2    1    2    0    0  0.13735316799E+02 -0.23914222358E+02  0.11481533204E+03  0.17195340012E+03  0.12499944953E+03 0.  0.
          2    1    1    2  501    0 -0.44898196870E+02  0.32578736213E+02 -0.68110053532E+02  0.87841912135E+02  0.00000000000E+00 0. -1.
          1    1    1    2  502    0  0.31162880071E+02 -0.86645138551E+01  0.68903162903E+02  0.76117309153E+02  0.00000000000E+00 0. -1.
         22    1    3    3    0    0  0.49541917146E+02  0.29147152993E+02  0.27587253403E+02  0.63757467268E+02  0.00000000000E+00 0.  1.
         22    1    3    3    0    0 -0.35806600347E+02 -0.53061375351E+02  0.87228078642E+02  0.10819593285E+03  0.00000000000E+00 0.  1.
</event>
<event>
 7    1  0.5736319E-006  0.1115284E+03  0.7818608E-02  0.1330665E+00
          2   -1    0    0  502    0  0.00000000000E+00  0.00000000000E+00  0.12851055437E+04  0.12851055437E+04  0.00000000000E+00 0. -1.
          1   -1    0    0  501    0 -0.00000000000E+00 -0.00000000000E+00 -0.14416298913E+04  0.14416298913E+04  0.00000000000E+00 0. -1.
         25    2    1    2    0    0 -0.15715469209E+02 -0.16379764246E+03 -0.23275613045E+03  0.31125021564E+03  0.12499854728E+03 0.  0.
          2    1    1    2  501    0  0.13960473771E+02  0.10724953122E+03 -0.11664815349E+04  0.11714847536E+04  0.00000000000E+00 0. -1.
          1    1    1    2  502    0  0.17549954386E+01  0.56548111245E+02  0.12427133177E+04  0.12440004658E+04  0.00000000000E+00 0. -1.
         22    1    3    3    0    0 -0.32131952299E+02 -0.13254557005E+03 -0.88137499095E+02  0.16238537263E+03  0.00000000000E+00 0.  1.
         22    1    3    3    0    0  0.16416483089E+02 -0.31252072412E+02 -0.14461863136E+03  0.14886484301E+03  0.00000000000E+00 0.  1.
</event>
<event>
 7    1  0.5736319E-006  0.3071850E+02  0.7818608E-02  0.1651757E+00
          2   -1    0    0  502    0  0.00000000000E+00  0.00000000000E+00  0.10434835142E+04  0.10434835142E+04  0.00000000000E+00 0. -1.
          1   -1    0    0  501    0 -0.00000000000E+00 -0.00000000000E+00 -0.59873112303E+02  0.59873112303E+02  0.00000000000E+00 0. -1.
         25    2    1    2    0    0  0.38763843305E+02 -0.88547775410E+01  0.51537531322E+03  0.53180610759E+03  0.12499991984E+03 0.  0.
          2    1    1    2  501    0 -0.28950410672E+02 -0.10193445815E+02 -0.46856212600E+02  0.56013723987E+02  0.00000000000E+00 0. -1.
          1    1    1    2  502    0 -0.98134326327E+01  0.19048223356E+02  0.51509130124E+03  0.51553679489E+03  0.00000000000E+00 0. -1.
         22    1    3    3    0    0  0.19106034627E+01  0.56183582729E+02  0.23591973969E+03  0.24252498624E+03  0.00000000000E+00 0.  1.
         22    1    3    3    0    0  0.36853239842E+02 -0.65038360270E+02  0.27945557353E+03  0.28928112135E+03  0.00000000000E+00 0.  1.
</event>
<event>
 7    1  0.5736319E-006  0.9059673E+02  0.7818608E-02  0.1328544E+00
          2   -1    0    0  502    0  0.00000000000E+00  0.00000000000E+00  0.29520467886E+04  0.29520467886E+04  0.00000000000E+00 0. -1.
          1   -1    0    0  501    0 -0.00000000000E+00 -0.00000000000E+00 -0.81988394556E+02  0.81988394556E+02  0.00000000000E+00 0. -1.
         25    2    1    2    0    0  0.10440365237E+03  0.63245794735E+02  0.28766684861E+03  0.33656812553E+03  0.12500293657E+03 0.  0.
          2    1    1    2  501    0 -0.68235835104E+02  0.19470340086E+02 -0.34581486347E+02  0.78937332950E+02  0.00000000000E+00 0. -1.
          1    1    1    2  502    0 -0.36167817268E+02 -0.82716134821E+02  0.26169730318E+04  0.26185297247E+04  0.00000000000E+00 0. -1.
         22    1    3    3    0    0  0.38332308876E+02  0.17045610771E+01  0.22106287085E+03  0.22436814458E+03  0.00000000000E+00 0.  1.
         22    1    3    3    0    0  0.66071343495E+02  0.61541233657E+02  0.66603977756E+02  0.11219998095E+03  0.00000000000E+00 0.  1.
</event>
<event>
 7    1  0.5736319E-006  0.2371227E+03  0.7818608E-02  0.1285316E+00
          2   -1    0    0  502    0  0.00000000000E+00  0.00000000000E+00  0.23297844148E+04  0.23297844148E+04  0.00000000000E+00 0. -1.
          1   -1    0    0  501    0 -0.00000000000E+00 -0.00000000000E+00 -0.75777522695E+03  0.75777522695E+03  0.00000000000E+00 0. -1.
         25    2    1    2    0    0  0.14706892752E+03  0.19905997714E+03 -0.17002577474E+03  0.32524990811E+03  0.12499837883E+03 0.  0.
          2    1    1    2  501    0 -0.16713716801E+03 -0.16421176232E+03 -0.48304143951E+03  0.53686997317E+03  0.00000000000E+00 0. -1.
          1    1    1    2  502    0  0.20068240489E+02 -0.34848214829E+02  0.22250764021E+04  0.22254397604E+04  0.00000000000E+00 0. -1.
         22    1    3    3    0    0  0.15679735716E+02  0.11330429966E+03 -0.10547539314E+03  0.15559169962E+03  0.00000000000E+00 0. -1.
         22    1    3    3    0    0  0.13138919180E+03  0.85755677486E+02 -0.64550381594E+02  0.16965820849E+03  0.00000000000E+00 0. -1.
</event>
<event>
 7    1  0.5736319E-006  0.1100934E+03  0.7818608E-02  0.1395629E+00
          2   -1    0    0  502    0  0.00000000000E+00  0.00000000000E+00  0.93425284752E+03  0.93425284752E+03  0.00000000000E+00 0. -1.
          1   -1    0    0  501    0 -0.00000000000E+00 -0.00000000000E+00 -0.51911875231E+03  0.51911875231E+03  0.00000000000E+00 0. -1.
         25    2    1    2    0    0 -0.13700249514E+03  0.28010936293E+01 -0.46755970088E+02  0.19127782373E+03  0.12499422112E+03 0.  0.
          2    1    1    2  501    0  0.29254852014E+02  0.15860311803E+02 -0.39593297075E+03  0.39732897350E+03  0.00000000000E+00 0. -1.
          1    1    1    2  502    0  0.10774764312E+03 -0.18661405432E+02  0.85782303604E+03  0.86476480260E+03  0.00000000000E+00 0. -1.
         22    1    3    3    0    0 -0.60825298189E+02  0.58446429947E+02  0.34269683071E+01  0.84424203787E+02  0.00000000000E+00 0.  1.
         22    1    3    3    0    0 -0.76177196950E+02 -0.55645336318E+02 -0.50182938396E+02  0.10685361994E+03  0.00000000000E+00 0.  1.
</event>
<event>
 7    1  0.5736319E-006  0.1027495E+03  0.7818608E-02  0.1430117E+00
          2   -1    0    0  502    0  0.00000000000E+00  0.00000000000E+00  0.80903325622E+03  0.80903325622E+03  0.00000000000E+00 0. -1.
          1   -1    0    0  501    0 -0.00000000000E+00 -0.00000000000E+00 -0.23712514417E+03  0.23712514417E+03  0.00000000000E+00 0. -1.
         25    2    1    2    0    0  0.52455186396E+02  0.91137502248E+02  0.60490438464E+01  0.16346004423E+03  0.12500001693E+03 0.  0.
          2    1    1    2  501    0  0.20156352984E+02 -0.18372146194E+02 -0.15356456709E+03  0.15596759467E+03  0.00000000000E+00 0. -1.
          1    1    1    2  502    0 -0.72611539380E+02 -0.72765356054E+02  0.71942363529E+03  0.72673076150E+03  0.00000000000E+00 0. -1.
         22    1    3    3    0    0  0.10799409105E+02 -0.29439570970E+02  0.16552885836E+02  0.35458618210E+02  0.00000000000E+00 0.  1.
         22    1    3    3    0    0  0.41655777291E+02  0.12057707322E+03 -0.10503841989E+02  0.12800142602E+03  0.00000000000E+00 0.  1.
</event>
<event>
 7    1  0.5736319E-006  0.9373419E+02  0.7818608E-02  0.1315740E+00
          2   -1    0    0  502    0  0.00000000000E+00  0.00000000000E+00  0.56058855540E+03  0.56058855540E+03  0.00000000000E+00 0. -1.
          1   -1    0    0  501    0 -0.00000000000E+00 -0.00000000000E+00 -0.34354550786E+03  0.34354550786E+03  0.00000000000E+00 0. -1.
         25    2    1    2    0    0  0.25305589765E+02 -0.23193625698E+01 -0.11537506568E+03  0.17198530585E+03  0.12498714866E+03 0.  0.
          2    1    1    2  501    0 -0.78074074904E+02 -0.75150540542E+02 -0.18061128906E+03  0.21062669027E+03  0.00000000000E+00 0. -1.
          1    1    1    2  502    0  0.52768485139E+02  0.77469903112E+02  0.51302940228E+03  0.52152206714E+03  0.00000000000E+00 0. -1.
         22    1    3    3    0    0  0.48288796181E+02 -0.23001984035E+02 -0.12789371158E+03  0.13862792131E+03  0.00000000000E+00 0.  1.
         22    1    3    3    0    0 -0.22983206416E+02  0.20682621465E+02  0.12518645899E+02  0.33357384534E+02  0.00000000000E+00 0.  1.
</event>
<event>
 7    1  0.5736319E-006  0.4093858E+02  0.7818608E-02  0.1574585E+00
          2   -1    0    0  502    0  0.00000000000E+00  0.00000000000E+00  0.19844831171E+03  0.19844831171E+03  0.00000000000E+00 0. -1.
          1   -1    0    0  501    0 -0.00000000000E+00 -0.00000000000E+00 -0.18880655154E+04  0.18880655154E+04  0.00000000000E+00 0. -1.
         25    2    1    2    0    0  0.16970323047E+02 -0.17670116544E+02 -0.97217109408E+03  0.98048021719E+03  0.12499838100E+03 0.  0.
          2    1    1    2  501    0 -0.11004751203E+02 -0.22878466559E+02 -0.90939934991E+03  0.90975365149E+03  0.00000000000E+00 0. -1.
          1    1    1    2  502    0 -0.59655718436E+01  0.40548583103E+02  0.19195324028E+03  0.19627995846E+03  0.00000000000E+00 0. -1.
         22    1    3    3    0    0  0.36214068364E+02 -0.45676265687E+02 -0.22153507971E+03  0.22907547127E+03  0.00000000000E+00 0.  1.
         22    1    3    3    0    0 -0.19243745318E+02  0.28006149143E+02 -0.75063601437E+03  0.75140474592E+03  0.00000000000E+00 0.  1.
</event>
<event>
 7    1  0.5736319E-006  0.5633661E+02  0.7818608E-02  0.1520689E+00
          2   -1    0    0  502    0  0.00000000000E+00  0.00000000000E+00  0.13501940139E+03  0.13501940139E+03  0.00000000000E+00 0. -1.
          1   -1    0    0  501    0 -0.00000000000E+00 -0.00000000000E+00 -0.53713627998E+03  0.53713627998E+03  0.00000000000E+00 0. -1.
         25    2    1    2    0    0 -0.10895013202E+02  0.78559320834E+02 -0.25328919726E+03  0.29337679097E+03  0.12499702327E+03 0.  0.
          2    1    1    2  501    0  0.61160909891E+01 -0.52889446507E+02 -0.25958323820E+03  0.26498708964E+03  0.00000000000E+00 0. -1.
          1    1    1    2  502    0  0.47789222126E+01 -0.25669874327E+02  0.11075555686E+03  0.11379180077E+03  0.00000000000E+00 0. -1.
         22    1    3    3    0    0  0.24308826225E+02 -0.21943709184E+02 -0.24113885760E+02  0.40668475403E+02  0.00000000000E+00 0.  1.
         22    1    3    3    0    0 -0.35203839426E+02  0.10050303002E+03 -0.22917531150E+03  0.25270831556E+03  0.00000000000E+00 0.  1.
</event>
<event>
 7    1  0.5736319E-006  0.7886337E+02  0.7818608E-02  0.1368190E+00
          2   -1    0    0  502    0  0.00000000000E+00  0.00000000000E+00  0.69462239173E+03  0.69462239173E+03  0.00000000000E+00 0. -1.
          1   -1    0    0  501    0 -0.00000000000E+00 -0.00000000000E+00 -0.31482361605E+04  0.31482361605E+04  0.00000000000E+00 0. -1.
         25    2    1    2    0    0 -0.33727827563E+02  0.94594136126E+02  0.29998929517E+03  0.34015393787E+03  0.12500202914E+03 0.  0.
          2    1    1    2  501    0  0.54544103106E+02 -0.19927276636E+02 -0.31238706587E+04  0.31244103520E+04  0.00000000000E+00 0. -1.
          1    1    1    2  502    0 -0.20816275543E+02 -0.74666859490E+02  0.37026759473E+03  0.37829426237E+03  0.00000000000E+00 0. -1.
         22    1    3    3    0    0 -0.51546448776E+02  0.80292505637E+01  0.40550330817E+02  0.66074462354E+02  0.00000000000E+00 0.  1.
         22    1    3    3    0    0  0.17818621212E+02  0.86564885563E+02  0.25943896435E+03  0.27407947551E+03  0.00000000000E+00 0.  1.
</event>
<event>
 7    1  0.5736319E-006  0.1073520E+03  0.7818608E-02  0.1274823E+00
          2   -1    0    0  502    0  0.00000000000E+00  0.00000000000E+00  0.98645237506E+03  0.98645237506E+03  0.00000000000E+00 0. -1.
          1   -1    0    0  501    0 -0.00000000000E+00 -0.00000000000E+00 -0.15666726675E+04  0.15666726675E+04  0.00000000000E+00 0. -1.
         25    2    1    2    0    0  0.10908049106E+03 -0.16918232374E+03 -0.24182322856E+03  0.33856172837E+03  0.12499743137E+03 0.  0.
          2    1    1    2  501    0 -0.52741655791E+02  0.88810474301E+02 -0.12718133044E+04  0.12760008088E+04  0.00000000000E+00 0. -1.
          1    1    1    2  502    0 -0.56338835273E+02  0.80371849434E+02  0.93341624054E+03  0.93856250546E+03  0.00000000000E+00 0. -1.
         22    1    3    3    0    0  0.29631422571E+01 -0.11823714564E+03 -0.13644717283E+03  0.18057307051E+03  0.00000000000E+00 0. -1.
         22    1    3    3    0    0  0.10611734881E+03 -0.50945178094E+02 -0.10537605573E+03  0.15798865785E+03  0.00000000000E+00 0. -1.
</event>
<event>
 7    1  0.5736319E-006  0.2024313E+03  0.7818608E-02  0.1194664E+00
          2   -1    0    0  502    0  0.00000000000E+00  0.00000000000E+00  0.72600497001E+03  0.72600497001E+03  0.00000000000E+00 0. -1.
          1   -1    0    0  501    0 -0.00000000000E+00 -0.00000000000E+00 -0.62742476436E+03  0.62742476436E+03  0.00000000000E+00 0. -1.
         25    2    1    2    0    0  0.37390430946E+02  0.28220231868E+03  0.22121641543E+03  0.38157319669E+03  0.12500083590E+03 0.  0.
          2    1    1    2  501    0  0.34569930571E+02 -0.11325914048E+03 -0.52042570582E+03  0.53372804712E+03  0.00000000000E+00 0. -1.
          1    1    1    2  502    0 -0.71960361516E+02 -0.16894317821E+03  0.39778949604E+03  0.43812849057E+03  0.00000000000E+00 0. -1.
         22    1    3    3    0    0  0.37217217082E+02  0.19635703051E+02  0.68938724053E+01  0.42640445101E+02  0.00000000000E+00 0. -1.
         22    1    3    3    0    0  0.17321386330E+00  0.26256661563E+03  0.21432254303E+03  0.33893275159E+03  0.00000000000E+00 0. -1.
</event>
<event>
 7    1  0.5736319E-006  0.8249557E+02  0.7818608E-02  0.1478394E+00
          2   -1    0    0  502    0  0.00000000000E+00  0.00000000000E+00  0.70444854723E+03  0.70444854723E+03  0.00000000000E+00 0. -1.
          1   -1    0    0  501    0 -0.00000000000E+00 -0.00000000000E+00 -0.48212395250E+03  0.48212395250E+03  0.00000000000E+00 0. -1.
         25    2    1    2    0    0  0.60348187157E+02 -0.15889820190E+02  0.15245297449E+03  0.20678781082E+03  0.12499959676E+03 0.  0.
          2    1    1    2  501    0  0.23701725938E+02  0.26617991623E+01 -0.45119103892E+03  0.45182099396E+03  0.00000000000E+00 0. -1.
          1    1    1    2  502    0 -0.84049913095E+02  0.13228021028E+02  0.52106265915E+03  0.52796369496E+03  0.00000000000E+00 0. -1.
         22    1    3    3    0    0  0.37334113521E+02 -0.40502229432E+02  0.47484245649E+01  0.55288463148E+02  0.00000000000E+00 0.  1.
         22    1    3    3    0    0  0.23014073635E+02  0.24612409242E+02  0.14770454993E+03  0.15149934767E+03  0.00000000000E+00 0.  1.
</event>
<event>
 7    1  0.5736319E-006  0.1819633E+03  0.7818608E-02  0.1328974E+00
          2   -1    0    0  502    0  0.00000000000E+00  0.00000000000E+00  0.29579265938E+04  0.29579265938E+04  0.00000000000E+00 0. -1.
          1   -1    0    0  501    0 -0.00000000000E+00 -0.00000000000E+00 -0.17033233291E+03  0.17033233291E+03  0.00000000000E+00 0. -1.
         25    2    1    2    0    0  0.14116603662E+03  0.50708695509E+02  0.85470637652E+02  0.21314251990E+03  0.12500112877E+03 0.  0.
          2    1    1    2  501    0  0.35195708436E+02 -0.98298357855E-01 -0.10050438711E+03  0.10648886976E+03  0.00000000000E+00 0. -1.
          1    1    1    2  502    0 -0.17636174506E+03 -0.50610397151E+02  0.28026280103E+04  0.28086275370E+04  0.00000000000E+00 0. -1.
         22    1    3    3    0    0  0.92209565891E+02  0.13424443389E+01 -0.12443734307E+02  0.93055105835E+02  0.00000000000E+00 0.  1.
         22    1    3    3    0    0  0.48956470732E+02  0.49366251170E+02  0.97914371959E+02  0.12008741407E+03  0.00000000000E+00 0.  1.
</event>
<event>
 7    1  0.5736319E-006  0.7286604E+02  0.7818608E-02  0.1421039E+00
          2   -1    0    0  502    0  0.00000000000E+00  0.00000000000E+00  0.12129454766E+04  0.12129454766E+04  0.00000000000E+00 0. -1.
          1   -1    0    0  501    0 -0.00000000000E+00 -0.00000000000E+00 -0.20988928927E+04  0.20988928927E+04  0.00000000000E+00 0. -1.
         25    2    1    2    0    0  0.14357993885E+02 -0.11149233681E+03 -0.16226533275E+01  0.16812021583E+03  0.12500032324E+03 0.  0.
          2    1    1    2  501    0  0.24682761055E+01  0.41141644104E+02 -0.20126523490E+04  0.20130743168E+04  0.00000000000E+00 0. -1.
          1    1    1    2  502    0 -0.16826269991E+02  0.70350692710E+02  0.11283275862E+04  0.11306438366E+04  0.00000000000E+00 0. -1.
         22    1    3    3    0    0 -0.35098749376E+02 -0.35814992407E+01 -0.29726087773E+02  0.46134473433E+02  0.00000000000E+00 0. -1.
         22    1    3    3    0    0  0.49456743261E+02 -0.10791083757E+03  0.28103434446E+02  0.12198574239E+03  0.00000000000E+00 0. -1.
</event>
<event>
 7    1  0.5736319E-006  0.1055431E+03  0.7818608E-02  0.1362523E+00
          2   -1    0    0  502    0  0.00000000000E+00  0.00000000000E+00  0.53136644942E+03  0.53136644942E+03  0.00000000000E+00 0. -1.
          1   -1    0    0  501    0 -0.00000000000E+00 -0.00000000000E+00 -0.61015028732E+03  0.61015028732E+03  0.00000000000E+00 0. -1.
         25    2    1    2    0    0 -0.23026546927E+02  0.11870792035E+03 -0.20380615054E+03  0.26794037176E+03  0.12503321000E+03 0.  0.
          2    1    1    2  501    0 -0.19214042031E+02 -0.10182433371E+03 -0.36603349148E+03  0.38041804799E+03  0.00000000000E+00 0. -1.
          1    1    1    2  502    0  0.42240588958E+02 -0.16883586637E+02  0.49105580412E+03  0.49315831699E+03  0.00000000000E+00 0. -1.
         22    1    3    3    0    0 -0.61977236145E+02  0.42010303133E+02 -0.14666057218E+03  0.16466744305E+03  0.00000000000E+00 0.  1.
         22    1    3    3    0    0  0.38950689218E+02  0.76697617216E+02 -0.57145578361E+02  0.10327292871E+03  0.00000000000E+00 0.  1.
</event>
<event>
 7    1  0.5736319E-006  0.1687847E+03  0.7818608E-02  0.1402215E+00
          2   -1    0    0  502    0  0.00000000000E+00  0.00000000000E+00  0.48487229238E+03  0.48487229238E+03  0.00000000000E+00 0. -1.
          1   -1    0    0  501    0 -0.00000000000E+00 -0.00000000000E+00 -0.11493492782E+03  0.11493492782E+03  0.00000000000E+00 0. -1.
         25    2    1    2    0    0  0.16014226059E+03 -0.85534126509E+02  0.20980866511E+03  0.30431194723E+03  0.12499781937E+03 0.  0.
          2    1    1    2  501    0 -0.18794874007E+02  0.84365125827E+01 -0.36162208349E+02  0.41618834032E+02  0.00000000000E+00 0. -1.
          1    1    1    2  502    0 -0.14134738658E+03  0.77097613926E+02  0.19629090780E+03  0.25387643894E+03  0.00000000000E+00 0. -1.
         22    1    3    3    0    0  0.42022988924E+02 -0.79532360149E+02  0.42669217087E+02  0.99558977475E+02  0.00000000000E+00 0. -1.
         22    1    3    3    0    0  0.11811927166E+03 -0.60017663598E+01  0.16713944802E+03  0.20475296975E+03  0.00000000000E+00 0. -1.
</event>
<event>
 7    1  0.5736319E-006  0.7058513E+02  0.7818608E-02  0.1379682E+00
          2   -1    0    0  502    0  0.00000000000E+00  0.00000000000E+00  0.16809510982E+04  0.16809510982E+04  0.00000000000E+00 0. -1.
          1   -1    0    0  501    0 -0.00000000000E+00 -0.00000000000E+00 -0.10608093121E+04  0.10608093121E+04  0.00000000000E+00 0. -1.
         25    2    1    2    0    0  0.36040352108E+02 -0.68754444260E+02  0.12197950331E+03  0.19112688531E+03  0.12499762588E+03 0.  0.
          2    1    1    2  501    0 -0.59004590841E+02  0.15881270691E+01 -0.10245593897E+04  0.10262582554E+04  0.00000000000E+00 0. -1.
          1    1    1    2  502    0  0.22964238733E+02  0.67166317191E+02  0.15227216725E+04  0.15243752696E+04  0.00000000000E+00 0. -1.
         22    1    3    3    0    0 -0.20488191559E+02  0.25796463577E+02  0.10935418075E+02  0.34710328361E+02  0.00000000000E+00 0.  1.
         22    1    3    3    0    0  0.56528543667E+02 -0.94550907837E+02  0.11104408523E+03  0.15641655695E+03  0.00000000000E+00 0.  1.
</event>
<event>
 7    1  0.5736319E-006  0.1102773E+03  0.7818608E-02  0.1371617E+00
          2   -1    0    0  502    0  0.00000000000E+00  0.00000000000E+00  0.19886208705E+04  0.19886208705E+04  0.00000000000E+00 0. -1.
          1   -1    0    0  501    0 -0.00000000000E+00 -0.00000000000E+00 -0.27467039124E+02  0.27467039124E+02  0.00000000000E+00 0. -1.
         25    2    1    2    0    0 -0.82818171512E+02  0.12052131984E+03  0.13114796292E+04  0.13255164670E+04  0.12502339201E+03 0.  0.
          2    1    1    2  501    0  0.55682341732E+02 -0.90636637824E+02  0.12410823101E+03  0.16345756728E+03  0.00000000000E+00 0. -1.
          1    1    1    2  502    0  0.27135829781E+02 -0.29884682014E+02  0.52556597119E+03  0.52711387531E+03  0.00000000000E+00 0. -1.
         22    1    3    3    0    0 -0.73605027169E+02  0.14671854600E+03  0.10865189140E+04  0.10988482071E+04  0.00000000000E+00 0. -1.
         22    1    3    3    0    0 -0.92131443436E+01 -0.26197226158E+02  0.22496071519E+03  0.22666825995E+03  0.00000000000E+00 0. -1.
</event>
<event>
 7    1  0.5736319E-006  0.3126098E+03  0.7818608E-02  0.1283562E+00
          2   -1    0    0  502    0  0.00000000000E+00  0.00000000000E+00  0.16082064377E+04  0.16082064377E+04  0.00000000000E+00 0. -1.
          1   -1    0    0  501    0 -0.00000000000E+00 -0.00000000000E+00 -0.55529195075E+03  0.55529195075E+03  0.00000000000E+00 0. -1.
         25    2    1    2    0    0 -0.13087351141E+03 -0.29271566618E+03 -0.34759743501E+03  0.48914283374E+03  0.12500559093E+03 0.  0.
          2    1    1    2  501    0  0.13531543669E+03  0.26202250387E+03  0.22242977924E+02  0.29573773856E+03  0.00000000000E+00 0. -1.
          1    1    1    2  502    0 -0.44419252776E+01  0.30693162309E+02  0.13782689441E+04  0.13786178162E+04  0.00000000000E+00 0. -1.
         22    1    3    3    0    0 -0.88439364230E+02 -0.14854612949E+03 -0.26842292678E+03  0.31927784350E+03  0.00000000000E+00 0. -1.
         22    1    3    3    0    0 -0.42434147185E+02 -0.14416953669E+03 -0.79174508225E+02  0.16986499024E+03  0.00000000000E+00 0. -1.
</event>
<event>
 7    1  0.5736319E-006  0.9710194E+02  0.7818608E-02  0.1359165E+00
          2   -1    0    0  502    0  0.00000000000E+00  0.00000000000E+00  0.20325176741E+04  0.20325176741E+04  0.00000000000E+00 0. -1.
          1   -1    0    0  501    0 -0.00000000000E+00 -0.00000000000E+00 -0.14050302140E+03  0.14050302140E+03  0.00000000000E+00 0. -1.
         25    2    1    2    0    0 -0.53993673059E+02 -0.85818103425E+02  0.17850149254E+03  0.24034928543E+03  0.12499973025E+03 0.  0.
          2    1    1    2  501    0  0.49532194031E+02 -0.11535758754E+02 -0.10230019975E+03  0.11424466221E+03  0.00000000000E+00 0. -1.
          1    1    1    2  502    0  0.44614790280E+01  0.97353862179E+02  0.18158133599E+04  0.18184267479E+04  0.00000000000E+00 0. -1.
         22    1    3    3    0    0 -0.47981288487E+02 -0.34517694850E+02  0.17919654657E+03  0.18869307779E+03  0.00000000000E+00 0. -1.
         22    1    3    3    0    0 -0.60123845714E+01 -0.51300408575E+02 -0.69505402433E+00  0.51656207645E+02  0.00000000000E+00 0. -1.
</event>
<event>
 7    1  0.5736319E-006  0.9440374E+02  0.7818608E-02  0.1438575E+00
          2   -1    0    0  502    0  0.00000000000E+00  0.00000000000E+00  0.77564640996E+03  0.77564640996E+03  0.00000000000E+00 0. -1.
          1   -1    0    0  501    0 -0.00000000000E+00 -0.00000000000E+00 -0.37069661419E+02  0.37069661419E+02  0.00000000000E+00 0. -1.
         25    2    1    2    0    0  0.88533265081E+02  0.40532547829E+02  0.21065625411E+03  0.26359633026E+03  0.12500376583E+03 0.  0.
          2    1    1    2  501    0 -0.17444056481E+02  0.21711947725E+02  0.25082623482E+02  0.37481219047E+02  0.00000000000E+00 0. -1.
          1    1    1    2  502    0 -0.71089208600E+02 -0.62244495554E+02  0.50283787094E+03  0.51163852207E+03  0.00000000000E+00 0. -1.
         22    1    3    3    0    0  0.18295770849E+02 -0.71321831398E+00 -0.15012751139E+02  0.23677554943E+02  0.00000000000E+00 0. -1.
         22    1    3    3    0    0  0.70237494232E+02  0.41245766143E+02  0.22566900525E+03  0.23991877532E+03  0.00000000000E+00 0. -1.
</event>
<event>
 7    1  0.5736319E-006  0.9482539E+02  0.7818608E-02  0.1420865E+00
          2   -1    0    0  502    0  0.00000000000E+00  0.00000000000E+00  0.56500203705E+03  0.56500203705E+03  0.00000000000E+00 0. -1.
          1   -1    0    0  501    0 -0.00000000000E+00 -0.00000000000E+00 -0.49360925766E+03  0.49360925766E+03  0.00000000000E+00 0. -1.
         25    2    1    2    0    0  0.85200310866E+02  0.83280476820E+02 -0.21499420901E+03  0.27575740873E+03  0.12499963108E+03 0.  0.
          2    1    1    2  501    0 -0.31176595478E+02 -0.58109953452E+01 -0.24302392237E+03  0.24508442345E+03  0.00000000000E+00 0. -1.
          1    1    1    2  502    0 -0.54023715388E+02 -0.77469481474E+02  0.52941091077E+03  0.53776946253E+03  0.00000000000E+00 0. -1.
         22    1    3    3    0    0 -0.49606384787E+01  0.76248503732E+02 -0.63627404018E+02  0.99432835611E+02  0.00000000000E+00 0.  1.
         22    1    3    3    0    0  0.90160949344E+02  0.70319730870E+01 -0.15136680499E+03  0.17632457312E+03  0.00000000000E+00 0.  1.
</event>
<event>
 7    1  0.5736319E-006  0.5564248E+02  0.7818608E-02  0.1470505E+00
          2   -1    0    0  502    0  0.00000000000E+00  0.00000000000E+00  0.51776108856E+03  0.51776108856E+03  0.00000000000E+00 0. -1.
          1   -1    0    0  501    0 -0.00000000000E+00 -0.00000000000E+00 -0.94346640422E+03  0.94346640422E+03  0.00000000000E+00 0. -1.
         25    2    1    2    0    0  0.76568105564E+02  0.36519449776E+02 -0.12914948169E+03  0.19874949987E+03  0.12500172029E+03 0.  0.
          2    1    1    2  501    0 -0.37314228406E+02  0.25814871123E+01 -0.77747680947E+03  0.77837600489E+03  0.00000000000E+00 0. -1.
          1    1    1    2  502    0 -0.39253877159E+02 -0.39100936888E+02  0.48092097550E+03  0.48410198803E+03  0.00000000000E+00 0. -1.
         22    1    3    3    0    0 -0.17328844612E+02 -0.29197622678E+02 -0.15427374550E+02  0.37293349422E+02  0.00000000000E+00 0.  1.
         22    1    3    3    0    0  0.93896950176E+02  0.65717072454E+02 -0.11372210714E+03  0.16145615044E+03  0.00000000000E+00 0.  1.
</event>
<event>
 7    1  0.5736319E-006  0.6955178E+02  0.7818608E-02  0.1452454E+00
          2   -1    0    0  502    0  0.00000000000E+00  0.00000000000E+00  0.19863422465E+03  0.19863422465E+03  0.00000000000E+00 0. -1.
          1   -1    0    0  501    0 -0.00000000000E+00 -0.00000000000E+00 -0.15856267903E+03  0.15856267903E+03  0.00000000000E+00 0. -1.
         25    2    1    2    0    0 -0.52906544914E+02  0.65787666730E+02  0.92642484545E+01  0.15114642011E+03  0.12502917430E+03 0.  0.
          2    1    1    2  501    0  0.59746789724E+02 -0.32373871738E+02 -0.71241156892E+02  0.98453282774E+02  0.00000000000E+00 0. -1.
          1    1    1    2  502    0 -0.68402448104E+01 -0.33413794992E+02  0.10204845405E+03  0.10759720079E+03  0.00000000000E+00 0. -1.
         22    1    3    3    0    0 -0.33400656268E+01  0.22109101815E+02 -0.54759108805E+02  0.59148359391E+02  0.00000000000E+00 0. -1.
         22    1    3    3    0    0 -0.49566479287E+02  0.43678564915E+02  0.64023357260E+02  0.91998060723E+02  0.00000000000E+00 0. -1.
</event>
<event>
 7    1  0.5736319E-006  0.4071225E+02  0.7818608E-02  0.1544406E+00
          2   -1    0    0  502    0  0.00000000000E+00  0.00000000000E+00  0.53285704984E+03  0.53285704984E+03  0.00000000000E+00 0. -1.
          1   -1    0    0  501    0 -0.00000000000E+00 -0.00000000000E+00 -0.14940236592E+04  0.14940236592E+04  0.00000000000E+00 0. -1.
         25    2    1    2    0    0  0.48046458883E+02  0.34288888072E+02 -0.31978660953E+03  0.34838477542E+03  0.12499714417E+03 0.  0.
          2    1    1    2  501    0 -0.30808063744E+02  0.25653962392E+01 -0.11589334439E+04  0.11593456971E+04  0.00000000000E+00 0. -1.
          1    1    1    2  502    0 -0.17238395139E+02 -0.36854284312E+02  0.51755344410E+03  0.51915023648E+03  0.00000000000E+00 0. -1.
         22    1    3    3    0    0 -0.13519474458E+02  0.18462189671E+02 -0.55917705962E+00  0.22889764439E+02  0.00000000000E+00 0.  1.
         22    1    3    3    0    0  0.61565933341E+02  0.15826698401E+02 -0.31922743247E+03  0.32549501098E+03  0.00000000000E+00 0.  1.
</event>
<event>
 7    1  0.6462216E-006  0.8591253E+02  0.7818608E-02  0.1424190E+00
          2   -1    0    0  502    0  0.00000000000E+00  0.00000000000E+00  0.75470643674E+03  0.75470643674E+03  0.00000000000E+00 0. -1.
          1   -1    0    0  501    0 -0.00000000000E+00 -0.00000000000E+00 -0.83517464596E+03  0.83517464596E+03  0.00000000000E+00 0. -1.
         25    2    1    2    0    0  0.14947320486E+02 -0.10317146050E+03 -0.22101538523E+03  0.27448323522E+03  0.12500189301E+03 0.  0.
          2    1    1    2  501    0  0.22241135243E+02  0.25878768137E+02 -0.58439933556E+03  0.58539470628E+03  0.00000000000E+00 0. -1.
          1    1    1    2  502    0 -0.37188455730E+02  0.77292692365E+02  0.72494651157E+03  0.73000314120E+03  0.00000000000E+00 0. -1.
         22    1    3    3    0    0 -0.54721851352E+01 -0.12813857030E+03 -0.15638437991E+03  0.20225111196E+03  0.00000000000E+00 0.  1.
         22    1    3    3    0    0  0.20419505622E+02  0.24967109802E+02 -0.64631005324E+02  0.72232123261E+02  0.00000000000E+00 0.  1.
</event>
<event>
 7    1  0.5736319E-006  0.8002869E+02  0.7818608E-02  0.1432324E+00
          2   -1    0    0  502    0  0.00000000000E+00  0.00000000000E+00  0.46119857996E+03  0.46119857996E+03  0.00000000000E+00 0. -1.
          1   -1    0    0  501    0 -0.00000000000E+00 -0.00000000000E+00 -0.21711012924E+03  0.21711012924E+03  0.00000000000E+00 0. -1.
         25    2    1    2    0    0 -0.41189931083E+02  0.30234521433E+02  0.10819742299E+02  0.13547423029E+03  0.12500185415E+03 0.  0.
          2    1    1    2  501    0  0.62034943625E+02 -0.57644612415E+02 -0.14235332209E+03  0.16563726598E+03  0.00000000000E+00 0. -1.
          1    1    1    2  502    0 -0.20845012542E+02  0.27410090982E+02  0.37562203051E+03  0.37719721293E+03  0.00000000000E+00 0. -1.
         22    1    3    3    0    0 -0.39476185090E+01 -0.88202742708E+01 -0.51866407108E+02  0.52758933996E+02  0.00000000000E+00 0.  1.
         22    1    3    3    0    0 -0.37242312574E+02  0.39054795704E+02  0.62686149407E+02  0.82715296293E+02  0.00000000000E+00 0.  1.
</event>
<event>
 7    1  0.5736319E-006  0.1137565E+03  0.7818608E-02  0.1437541E+00
          2   -1    0    0  502    0  0.00000000000E+00  0.00000000000E+00  0.16481479014E+04  0.16481479014E+04  0.00000000000E+00 0. -1.
          1   -1    0    0  501    0 -0.00000000000E+00 -0.00000000000E+00 -0.11272428059E+03  0.11272428059E+03  0.00000000000E+00 0. -1.
         25    2    1    2    0    0  0.12457488758E+03  0.51712588149E+02  0.68736388010E+02  0.19631666251E+03  0.12498978580E+03 0.  0.
          2    1    1    2  501    0 -0.23240855907E+02 -0.15590876369E+01 -0.43924396552E+02  0.49718414597E+02  0.00000000000E+00 0. -1.
          1    1    1    2  502    0 -0.10133403167E+03 -0.50153500512E+02  0.15106116294E+04  0.15148371049E+04  0.00000000000E+00 0. -1.
         22    1    3    3    0    0 -0.20415878325E+02  0.26480108286E+02  0.28002342944E+02  0.43613477653E+02  0.00000000000E+00 0.  1.
         22    1    3    3    0    0  0.14499076590E+03  0.25232479863E+02  0.40734045066E+02  0.15270318485E+03  0.00000000000E+00 0.  1.
</event>
<event>
 7    1  0.5736319E-006  0.1145977E+03  0.7818608E-02  0.1353380E+00
          2   -1    0    0  502    0  0.00000000000E+00  0.00000000000E+00  0.93443629272E+03  0.93443629272E+03  0.00000000000E+00 0. -1.
          1   -1    0    0  501    0 -0.00000000000E+00 -0.00000000000E+00 -0.19669083474E+03  0.19669083474E+03  0.00000000000E+00 0. -1.
         25    2    1    2    0    0 -0.42802182660E+02  0.61858556205E+02  0.13441804890E+03  0.19837126789E+03  0.12499776094E+03 0.  0.
          2    1    1    2  501    0 -0.27636117461E+02  0.35833312617E+02 -0.15677276394E+03  0.16317316199E+03  0.00000000000E+00 0. -1.
          1    1    1    2  502    0  0.70438300121E+02 -0.97691868822E+02  0.76010017303E+03  0.76958269757E+03  0.00000000000E+00 0. -1.
         22    1    3    3    0    0 -0.10214774038E+02  0.96703112400E+02  0.10044053681E+03  0.13980033974E+03  0.00000000000E+00 0. -1.
         22    1    3    3    0    0 -0.32587408622E+02 -0.34844556195E+02  0.33977512082E+02  0.58570928150E+02  0.00000000000E+00 0. -1.
</event>
<event>
 7    1  0.5736319E-006  0.1122537E+03  0.7818608E-02  0.1272065E+00
          2   -1    0    0  502    0  0.00000000000E+00  0.00000000000E+00  0.12128223319E+03  0.12128223319E+03  0.00000000000E+00 0. -1.
          1   -1    0    0  501    0 -0.00000000000E+00 -0.00000000000E+00 -0.19778455309E+04  0.19778455309E+04  0.00000000000E+00 0. -1.
         25    2    1    2    0    0 -0.15018019986E+03  0.11445294090E+03 -0.48811714815E+03  0.53808658749E+03  0.12500102884E+03 0.  0.
          2    1    1    2  501    0  0.56759776552E+02 -0.90717987260E+02 -0.14381274670E+04  0.14421033377E+04  0.00000000000E+00 0. -1.
          1    1    1    2  502    0  0.93420423308E+02 -0.23734953642E+02  0.69681317416E+02  0.11893783886E+03  0.00000000000E+00 0. -1.
         22    1    3    3    0    0 -0.89212849150E+02  0.49982036670E+02 -0.40063818021E+03  0.41348287496E+03  0.00000000000E+00 0. -1.
         22    1    3    3    0    0 -0.60967350710E+02  0.64470904232E+02 -0.87478967936E+02  0.12460371253E+03  0.00000000000E+00 0. -1.
</event>
<event>
 7    1  0.5736319E-006  0.4239360E+03  0.7818608E-02  0.1154691E+00
          2   -1    0    0  502    0  0.00000000000E+00  0.00000000000E+00  0.17581374967E+04  0.17581374967E+04  0.00000000000E+00 0. -1.
          1   -1    0    0  501    0 -0.00000000000E+00 -0.00000000000E+00 -0.86371226330E+03  0.86371226330E+03  0.00000000000E+00 0. -1.
         25    2    1    2    0    0 -0.42327733312E+03 -0.27697036813E+03 -0.22378101949E+03  0.56707879197E+03  0.12499650421E+03 0.  0.
          2    1    1    2  501    0  0.81301614733E+02  0.36204093071E+02 -0.43614685843E+03  0.44513455386E+03  0.00000000000E+00 0. -1.
          1    1    1    2  502    0  0.34197571838E+03  0.24076627506E+03  0.15543531113E+04  0.16096364141E+04  0.00000000000E+00 0. -1.
         22    1    3    3    0    0 -0.15867204009E+02 -0.19935090511E+02 -0.47907478216E+02  0.54261427052E+02  0.00000000000E+00 0.  1.
         22    1    3    3    0    0 -0.40741012911E+03 -0.25703527762E+03 -0.17587354127E+03  0.51281736492E+03  0.00000000000E+00 0.  1.
</event>
<event>
 7    1  0.5736319E-006  0.8372600E+02  0.7818608E-02  0.1402485E+00
          2   -1    0    0  502    0  0.00000000000E+00  0.00000000000E+00  0.25716917824E+03  0.25716917824E+03  0.00000000000E+00 0. -1.
          1   -1    0    0  501    0 -0.00000000000E+00 -0.00000000000E+00 -0.45656121029E+03  0.45656121029E+03  0.00000000000E+00 0. -1.
         25    2    1    2    0    0 -0.15967096080E+02 -0.51758590345E+02  0.65395313097E+02  0.15111377934E+03  0.12499971000E+03 0.  0.
          2    1    1    2  501    0 -0.24704358167E+02 -0.33274235432E+02 -0.39760048825E+03  0.39975446003E+03  0.00000000000E+00 0. -1.
          1    1    1    2  502    0  0.40671454247E+02  0.85032825777E+02  0.13281314310E+03  0.16286214917E+03  0.00000000000E+00 0. -1.
         22    1    3    3    0    0  0.14537626811E+02 -0.73613553944E+02  0.81052454266E+02  0.11045269693E+03  0.00000000000E+00 0. -1.
         22    1    3    3    0    0 -0.30504722891E+02  0.21854963598E+02 -0.15657141170E+02  0.40661082403E+02  0.00000000000E+00 0. -1.
</event>
<event>
 7    1  0.5736319E-006  0.1288144E+03  0.7818608E-02  0.1259250E+00
          2   -1    0    0  502    0  0.00000000000E+00  0.00000000000E+00  0.26514985151E+04  0.26514985151E+04  0.00000000000E+00 0. -1.
          1   -1    0    0  501    0 -0.00000000000E+00 -0.00000000000E+00 -0.43421559335E+02  0.43421559335E+02  0.00000000000E+00 0. -1.
         25    2    1    2    0    0 -0.26962791011E+02 -0.60526340016E+02  0.83544529911E+03  0.84733948949E+03  0.12499973084E+03 0.  0.
          2    1    1    2  501    0  0.12150150217E+03  0.71381519339E+02  0.10131926108E+03  0.17356131193E+03  0.00000000000E+00 0. -1.
          1    1    1    2  502    0 -0.94538711158E+02 -0.10855179323E+02  0.16713123955E+04  0.16740192730E+04  0.00000000000E+00 0. -1.
         22    1    3    3    0    0  0.57574487662E+01 -0.73800206701E+02  0.24745093447E+03  0.25828585655E+03  0.00000000000E+00 0.  1.
         22    1    3    3    0    0 -0.32720239777E+02  0.13273866685E+02  0.58799436464E+03  0.58905363294E+03  0.00000000000E+00 0.  1.
</event>
<event>
 7    1  0.5736319E-006  0.1452745E+03  0.7818608E-02  0.1353233E+00
          2   -1    0    0  502    0  0.00000000000E+00  0.00000000000E+00  0.25403527951E+03  0.25403527951E+03  0.00000000000E+00 0. -1.
          1   -1    0    0  501    0 -0.00000000000E+00 -0.00000000000E+00 -0.11125567130E+04  0.11125567130E+04  0.00000000000E+00 0. -1.
         25    2    1    2    0    0  0.35232950962E+02 -0.14028814670E+03  0.97119218311E+02  0.21442874092E+03  0.12500166970E+03 0.  0.
          2    1    1    2  501    0 -0.34900785125E+02 -0.77049923376E+01 -0.99767581423E+03  0.99831581276E+03  0.00000000000E+00 0. -1.
          1    1    1    2  502    0 -0.33216583668E+00  0.14799313904E+03  0.42035162474E+02  0.15384743879E+03  0.00000000000E+00 0. -1.
         22    1    3    3    0    0 -0.46087930989E+02 -0.34165892549E+02  0.25912119973E+02  0.62951120387E+02  0.00000000000E+00 0. -1.
         22    1    3    3    0    0  0.81320881950E+02 -0.10612225416E+03  0.71207098338E+02  0.15147762053E+03  0.00000000000E+00 0. -1.
</event>
<event>
 7    1  0.5736319E-006  0.1673513E+03  0.7818608E-02  0.1290604E+00
          2   -1    0    0  502    0  0.00000000000E+00  0.00000000000E+00  0.32067967524E+04  0.32067967524E+04  0.00000000000E+00 0. -1.
          1   -1    0    0  501    0 -0.00000000000E+00 -0.00000000000E+00 -0.13401747113E+03  0.13401747113E+03  0.00000000000E+00 0. -1.
         25    2    1    2    0    0 -0.10380774532E+03  0.18946029013E+03  0.49827510538E+03  0.55729287005E+03  0.12500405127E+03 0.  0.
          2    1    1    2  501    0  0.16020506238E+02 -0.51796799785E+02 -0.94810415079E+02  0.10921803832E+03  0.00000000000E+00 0. -1.
          1    1    1    2  502    0  0.87787239087E+02 -0.13766349035E+03  0.26693145910E+04  0.26743033152E+04  0.00000000000E+00 0. -1.
         22    1    3    3    0    0 -0.86041104405E+02  0.15585728541E+03  0.25459319256E+03  0.31066422188E+03  0.00000000000E+00 0.  1.
         22    1    3    3    0    0 -0.17766640920E+02  0.33603004720E+02  0.24368191283E+03  0.24662864816E+03  0.00000000000E+00 0.  1.
</event>
<event>
 7    1  0.5789915E-006  0.6301943E+02  0.7818608E-02  0.1449016E+00
          2   -1    0    0  502    0  0.00000000000E+00  0.00000000000E+00  0.16864339974E+04  0.16864339974E+04  0.00000000000E+00 0. -1.
          1   -1    0    0  501    0 -0.00000000000E+00 -0.00000000000E+00 -0.93573692836E+03  0.93573692836E+03  0.00000000000E+00 0. -1.
         25    2    1    2    0    0 -0.42872100362E+02 -0.90748124797E+02  0.75570724931E+01  0.16047242888E+03  0.12498420677E+03 0.  0.
          2    1    1    2  501    0  0.22358878555E+02  0.31473075908E+02 -0.85823132311E+03  0.85909922473E+03  0.00000000000E+00 0. -1.
          1    1    1    2  502    0  0.20513221807E+02  0.59275048889E+02  0.16013713196E+04  0.16025992721E+04  0.00000000000E+00 0. -1.
         22    1    3    3    0    0  0.23231137564E+02  0.20103291631E+02  0.65080709972E+01  0.31403551949E+02  0.00000000000E+00 0.  1.
         22    1    3    3    0    0 -0.66103237926E+02 -0.11085141643E+03  0.10490014959E+01  0.12906887693E+03  0.00000000000E+00 0.  1.
</event>
<event>
 7    1  0.5736319E-006  0.6755267E+02  0.7818608E-02  0.1407000E+00
          2   -1    0    0  502    0  0.00000000000E+00  0.00000000000E+00  0.15395054187E+04  0.15395054187E+04  0.00000000000E+00 0. -1.
          1   -1    0    0  501    0 -0.00000000000E+00 -0.00000000000E+00 -0.28831433107E+03  0.28831433107E+03  0.00000000000E+00 0. -1.
         25    2    1    2    0    0 -0.52028325769E+02  0.94662028888E+02  0.93921632874E+02  0.19003674199E+03  0.12499937515E+03 0.  0.
          2    1    1    2  501    0  0.48651233113E+02 -0.45204434300E+02 -0.23521803720E+03  0.24441339649E+03  0.00000000000E+00 0. -1.
          1    1    1    2  502    0  0.33770926555E+01 -0.49457594588E+02  0.13924874920E+04  0.13933696113E+04  0.00000000000E+00 0. -1.
         22    1    3    3    0    0  0.13624248322E+02 -0.24440334337E+02  0.77444396718E+01  0.29033195323E+02  0.00000000000E+00 0.  1.
         22    1    3    3    0    0 -0.65652574091E+02  0.11910236322E+03  0.86177193202E+02  0.16100354666E+03  0.00000000000E+00 0.  1.
</event>
<event>
 7    1  0.5736319E-006  0.1613046E+03  0.7818608E-02  0.1284166E+00
          2   -1    0    0  502    0  0.00000000000E+00  0.00000000000E+00  0.73800471748E+03  0.73800471748E+03  0.00000000000E+00 0. -1.
          1   -1    0    0  501    0 -0.00000000000E+00 -0.00000000000E+00 -0.83186568566E+02  0.83186568566E+02  0.00000000000E+00 0. -1.
         25    2    1    2    0    0 -0.69256503465E+02  0.11191165477E+03  0.20546496470E+03  0.27415627578E+03  0.12500052034E+03 0.  0.
          2    1    1    2  501    0  0.12243454690E+03 -0.13917827173E+03  0.14087926851E+03  0.23282563839E+03  0.00000000000E+00 0. -1.
          1    1    1    2  502    0 -0.53178043434E+02  0.27266616966E+02  0.30847391570E+03  0.31420937187E+03  0.00000000000E+00 0. -1.
         22    1    3    3    0    0 -0.61997123287E+01  0.23622937161E+02 -0.14844784858E+02  0.28580539368E+02  0.00000000000E+00 0. -1.
         22    1    3    3    0    0 -0.63056791136E+02  0.88288717605E+02  0.22030974956E+03  0.24557573641E+03  0.00000000000E+00 0. -1.
</event>
<event>
 7    1  0.5736319E-006  0.3753520E+02  0.7818608E-02  0.1545990E+00
          2   -1    0    0  502    0  0.00000000000E+00  0.00000000000E+00  0.54361108445E+03  0.54361108445E+03  0.00000000000E+00 0. -1.
          1   -1    0    0  501    0 -0.00000000000E+00 -0.00000000000E+00 -0.20259041739E+04  0.20259041739E+04  0.00000000000E+00 0. -1.
         25    2    1    2    0    0 -0.23644690171E+02  0.63058416274E+02 -0.31086348136E+02  0.14535144316E+03  0.12500098300E+03 0.  0.
          2    1    1    2  501    0  0.20815718097E+02 -0.25851070908E+02 -0.19368273465E+04  0.19371117010E+04  0.00000000000E+00 0. -1.
          1    1    1    2  502    0  0.28289720737E+01 -0.37207345366E+02  0.48562060525E+03  0.48705211413E+03  0.00000000000E+00 0. -1.
         22    1    3    3    0    0 -0.35897013141E+02  0.87839819537E+02 -0.54232750550E+02  0.10929602317E+03  0.00000000000E+00 0. -1.
         22    1    3    3    0    0  0.12252322970E+02 -0.24781403263E+02  0.23146402414E+02  0.36055419988E+02  0.00000000000E+00 0. -1.
</event>
<event>
 7    1  0.5736319E-006  0.8594869E+02  0.7818608E-02  0.1325860E+00
          2   -1    0    0  502    0  0.00000000000E+00  0.00000000000E+00  0.36390730686E+04  0.36390730686E+04  0.00000000000E+00 0. -1.
          1   -1    0    0  501    0 -0.00000000000E+00 -0.00000000000E+00 -0.28023983351E+03  0.28023983351E+03  0.00000000000E+00 0. -1.
         25    2    1    2    0    0 -0.79349413731E+01 -0.76610401613E+01  0.17444867056E+04  0.17489937600E+04  0.12499460626E+03 0.  0.
          2    1    1    2  501    0  0.27881671774E+02  0.81609614651E+02 -0.27050103485E+03  0.28391605569E+03  0.00000000000E+00 0. -1.
          1    1    1    2  502    0 -0.19946730401E+02 -0.73948574489E+02  0.18848475643E+04  0.18864030864E+04  0.00000000000E+00 0. -1.
         22    1    3    3    0    0  0.51915583461E+02  0.21290903136E+02  0.98753912036E+03  0.98913196521E+03  0.00000000000E+00 0. -1.
         22    1    3    3    0    0 -0.59850524834E+02 -0.28951943298E+02  0.75694758526E+03  0.75986179478E+03  0.00000000000E+00 0. -1.
</event>
<event>
 7    1  0.5736319E-006  0.1137573E+03  0.7818608E-02  0.1257576E+00
          2   -1    0    0  502    0  0.00000000000E+00  0.00000000000E+00  0.95148926101E+03  0.95148926101E+03  0.00000000000E+00 0. -1.
          1   -1    0    0  501    0 -0.00000000000E+00 -0.00000000000E+00 -0.70640926748E+03  0.70640926748E+03  0.00000000000E+00 0. -1.
         25    2    1    2    0    0 -0.71961530496E+02  0.51722126305E+02  0.53092882945E+02  0.16216103124E+03  0.12499482235E+03 0.  0.
          2    1    1    2  501    0 -0.16680851884E+02 -0.11608981720E+03 -0.64299310741E+03  0.65360173857E+03  0.00000000000E+00 0. -1.
          1    1    1    2  502    0  0.88642382380E+02  0.64367690897E+02  0.83498021800E+03  0.84213575867E+03  0.00000000000E+00 0. -1.
         22    1    3    3    0    0 -0.10235186789E+03  0.12052118150E+02  0.39532495747E+02  0.11038105196E+03  0.00000000000E+00 0.  1.
         22    1    3    3    0    0  0.30390337390E+02  0.39670008155E+02  0.13560387198E+02  0.51779979284E+02  0.00000000000E+00 0.  1.
</event>
<event>
 7    1  0.5736319E-006  0.4659117E+02  0.7818608E-02  0.1492534E+00
          2   -1    0    0  502    0  0.00000000000E+00  0.00000000000E+00  0.67400824414E+03  0.67400824414E+03  0.00000000000E+00 0. -1.
          1   -1    0    0  501    0 -0.00000000000E+00 -0.00000000000E+00 -0.21253763584E+03  0.21253763584E+03  0.00000000000E+00 0. -1.
         25    2    1    2    0    0  0.22182679102E+02 -0.42420596895E+01 -0.14242476605E+02  0.12782060822E+03  0.12500077369E+03 0.  0.
          2    1    1    2  501    0  0.12274793836E+02  0.36221992798E+02 -0.13800645653E+03  0.14320783976E+03  0.00000000000E+00 0. -1.
          1    1    1    2  502    0 -0.34457472939E+02 -0.31979933109E+02  0.61371954143E+03  0.61551743200E+03  0.00000000000E+00 0. -1.
         22    1    3    3    0    0  0.42553465164E+02 -0.23939289604E+02  0.42283800818E+02  0.64589525434E+02  0.00000000000E+00 0. -1.
         22    1    3    3    0    0 -0.20370786062E+02  0.19697229915E+02 -0.56526277423E+02  0.63231082786E+02  0.00000000000E+00 0. -1.
</event>
<event>
 7    1  0.5736319E-006  0.9818718E+02  0.7818608E-02  0.1430592E+00
          2   -1    0    0  502    0  0.00000000000E+00  0.00000000000E+00  0.55693208406E+03  0.55693208406E+03  0.00000000000E+00 0. -1.
          1   -1    0    0  501    0 -0.00000000000E+00 -0.00000000000E+00 -0.58851544757E+03  0.58851544757E+03  0.00000000000E+00 0. -1.
         25    2    1    2    0    0  0.39374411578E+02 -0.82783501701E+02 -0.17190957455E+03  0.23148690833E+03  0.12501933636E+03 0.  0.
          2    1    1    2  501    0 -0.16008829062E+02  0.98992975169E+02 -0.37992323072E+03  0.39293454033E+03  0.00000000000E+00 0. -1.
          1    1    1    2  502    0 -0.23365582516E+02 -0.16209473468E+02  0.52024944176E+03  0.52102608297E+03  0.00000000000E+00 0. -1.
         22    1    3    3    0    0  0.49554707942E+02 -0.14000616713E+01 -0.13051947698E+03  0.13961720210E+03  0.00000000000E+00 0.  1.
         22    1    3    3    0    0 -0.10180296363E+02 -0.81383440030E+02 -0.41390097572E+02  0.91869706227E+02  0.00000000000E+00 0.  1.
</event>
<event>
 7    1  0.5736319E-006  0.4951878E+02  0.7818608E-02  0.1468688E+00
          2   -1    0    0  502    0  0.00000000000E+00  0.00000000000E+00  0.59306095245E+03  0.59306095245E+03  0.00000000000E+00 0. -1.
          1   -1    0    0  501    0 -0.00000000000E+00 -0.00000000000E+00 -0.13895821848E+03  0.13895821848E+03  0.00000000000E+00 0. -1.
         25    2    1    2    0    0  0.82079201893E+01 -0.23931022195E+02 -0.60022059513E+02  0.14095217976E+03  0.12499922230E+03 0.  0.
          2    1    1    2  501    0 -0.19476636622E+02  0.64992805147E+02 -0.69972702004E+01  0.68208253791E+02  0.00000000000E+00 0. -1.
          1    1    1    2  502    0  0.11268716433E+02 -0.41061782952E+02  0.52112206368E+03  0.52285873737E+03  0.00000000000E+00 0. -1.
         22    1    3    3    0    0  0.26210663298E+00 -0.72133960299E+02 -0.57122416599E+02  0.92012756760E+02  0.00000000000E+00 0.  1.
         22    1    3    3    0    0  0.79458135564E+01  0.48202938104E+02 -0.28996429133E+01  0.48939423004E+02  0.00000000000E+00 0.  1.
</event>
<event>
 7    1  0.5736319E-006  0.1388251E+03  0.7818608E-02  0.1275169E+00
          2   -1    0    0  502    0  0.00000000000E+00  0.00000000000E+00  0.24745643409E+04  0.24745643409E+04  0.00000000000E+00 0. -1.
          1   -1    0    0  501    0 -0.00000000000E+00 -0.00000000000E+00 -0.10054210164E+04  0.10054210164E+04  0.00000000000E+00 0. -1.
         25    2    1    2    0    0 -0.63147122029E+02 -0.18958363119E+03  0.15549202789E+04  0.15726829238E+04  0.12499997157E+03 0.  0.
          2    1    1    2  501    0  0.73871450176E+01  0.13846175399E+03 -0.99012958310E+03  0.99979138752E+03  0.00000000000E+00 0. -1.
          1    1    1    2  502    0  0.55759977012E+02  0.51121877197E+02  0.90435262879E+03  0.90751104597E+03  0.00000000000E+00 0. -1.
         22    1    3    3    0    0 -0.21434215239E+02 -0.17629668133E+03  0.96978105169E+03  0.98590832923E+03  0.00000000000E+00 0.  1.
         22    1    3    3    0    0 -0.41712906791E+02 -0.13286949856E+02  0.58513922721E+03  0.58677459458E+03  0.00000000000E+00 0.  1.
</event>
<event>
 7    1  0.5736319E-006  0.3637212E+02  0.7818608E-02  0.1548521E+00
          2   -1    0    0  502    0  0.00000000000E+00  0.00000000000E+00  0.57119036062E+03  0.57119036062E+03  0.00000000000E+00 0. -1.
          1   -1    0    0  501    0 -0.00000000000E+00 -0.00000000000E+00 -0.97141726808E+02  0.97141726808E+02  0.00000000000E+00 0. -1.
         25    2    1    2    0    0  0.31619978179E+02 -0.34233394996E+02  0.11785123330E+03  0.17800464555E+03  0.12499996918E+03 0.  0.
          2    1    1    2  501    0 -0.33626534013E+02 -0.21767270299E+01 -0.61988148355E+02  0.70555031477E+02  0.00000000000E+00 0. -1.
          1    1    1    2  502    0  0.20065558340E+01  0.36410122026E+02  0.41818554887E+03  0.41977241040E+03  0.00000000000E+00 0. -1.
         22    1    3    3    0    0  0.28318952147E+02  0.34873829211E+02  0.95095044061E+02  0.10517230824E+03  0.00000000000E+00 0. -1.
         22    1    3    3    0    0  0.33010260322E+01 -0.69107224207E+02  0.22756189241E+02  0.72832337318E+02  0.00000000000E+00 0. -1.
</event>
<event>
 7    1  0.5736319E-006  0.5826871E+02  0.7818608E-02  0.1412095E+00
          2   -1    0    0  502    0  0.00000000000E+00  0.00000000000E+00  0.38458121609E+03  0.38458121609E+03  0.00000000000E+00 0. -1.
          1   -1    0    0  501    0 -0.00000000000E+00 -0.00000000000E+00 -0.15198867599E+03  0.15198867599E+03  0.00000000000E+00 0. -1.
         25    2    1    2    0    0 -0.25217568529E+02  0.45675080652E+02 -0.97358590999E+01  0.13579923875E+03  0.12499803013E+03 0.  0.
          2    1    1    2  501    0 -0.34201499767E+02 -0.43365751235E+02 -0.66400323894E+02  0.86367435876E+02  0.00000000000E+00 0. -1.
          1    1    1    2  502    0  0.59419068296E+02 -0.23093294167E+01  0.30872872310E+03  0.31440321745E+03  0.00000000000E+00 0. -1.
         22    1    3    3    0    0  0.75869907503E+01  0.84175277873E+02 -0.10824431544E+02  0.85206855076E+02  0.00000000000E+00 0.  1.
         22    1    3    3    0    0 -0.32804559279E+02 -0.38500197221E+02  0.10885724439E+01  0.50592383671E+02  0.00000000000E+00 0.  1.
</event>
<event>
 7    1  0.5736319E-006  0.1004607E+03  0.7818608E-02  0.1294715E+00
          2   -1    0    0  502    0  0.00000000000E+00  0.00000000000E+00  0.14260685506E+04  0.14260685506E+04  0.00000000000E+00 0. -1.
          1   -1    0    0  501    0 -0.00000000000E+00 -0.00000000000E+00 -0.64098072672E+02  0.64098072672E+02  0.00000000000E+00 0. -1.
         25    2    1    2    0    0  0.35819789912E+02 -0.55084857969E+01  0.57608434726E+03  0.59060280005E+03  0.12500036599E+03 0.  0.
          2    1    1    2  501    0  0.51378232270E+02 -0.86328641414E+02 -0.30709124984E+01  0.10050764938E+03  0.00000000000E+00 0. -1.
          1    1    1    2  502    0 -0.87198022182E+02  0.91837127210E+02  0.78895704316E+03  0.79905617384E+03  0.00000000000E+00 0. -1.
         22    1    3    3    0    0 -0.61315968867E+01 -0.30071053982E+02  0.49579002606E+03  0.49673898046E+03  0.00000000000E+00 0. -1.
         22    1    3    3    0    0  0.41951386799E+02  0.24562568185E+02  0.80294321199E+02  0.93863819584E+02  0.00000000000E+00 0. -1.
</event>
<event>
 7    1  0.5736319E-006  0.1617243E+03  0.7818608E-02  0.1284882E+00
          2   -1    0    0  502    0  0.00000000000E+00  0.00000000000E+00  0.18757672584E+04  0.18757672584E+04  0.00000000000E+00 0. -1.
          1   -1    0    0  501    0 -0.00000000000E+00 -0.00000000000E+00 -0.14318656886E+03  0.14318656886E+03  0.00000000000E+00 0. -1.
         25    2    1    2    0    0  0.86996371593E+02  0.96116131040E+02  0.17872449338E+03  0.25372069665E+03  0.12500027224E+03 0.  0.
          2    1    1    2  501    0 -0.78635235174E+02 -0.15472652000E+03 -0.33506512255E+02  0.17676674621E+03  0.00000000000E+00 0. -1.
          1    1    1    2  502    0 -0.83611364198E+01  0.58610388958E+02  0.15873627084E+04  0.15884663844E+04  0.00000000000E+00 0. -1.
         22    1    3    3    0    0  0.71587452665E+02  0.12114567624E+03  0.17427584851E+03  0.22399354817E+03  0.00000000000E+00 0. -1.
         22    1    3    3    0    0  0.15408918929E+02 -0.25029545202E+02  0.44486448726E+01  0.29727148480E+02  0.00000000000E+00 0. -1.
</event>
<event>
 7    1  0.5736319E-006  0.8800352E+02  0.7818608E-02  0.1387557E+00
          2   -1    0    0  502    0  0.00000000000E+00  0.00000000000E+00  0.23755802014E+04  0.23755802014E+04  0.00000000000E+00 0. -1.
          1   -1    0    0  501    0 -0.00000000000E+00 -0.00000000000E+00 -0.16051295110E+03  0.16051295110E+03  0.00000000000E+00 0. -1.
         25    2    1    2    0    0 -0.50420801523E+02 -0.91332868294E+01  0.66778114298E+03  0.68130934043E+03  0.12500035316E+03 0.  0.
          2    1    1    2  501    0  0.76432134190E+02  0.45133016532E+02 -0.14062110346E+03  0.16629237823E+03  0.00000000000E+00 0. -1.
          1    1    1    2  502    0 -0.26011332667E+02 -0.35999729702E+02  0.16879072108E+04  0.16884914339E+04  0.00000000000E+00 0. -1.
         22    1    3    3    0    0 -0.40591795369E+02  0.61203236614E+01  0.56919391170E+02  0.70178125539E+02  0.00000000000E+00 0.  1.
         22    1    3    3    0    0 -0.98290061533E+01 -0.15253610491E+02  0.61086175181E+03  0.61113121489E+03  0.00000000000E+00 0.  1.
</event>
<event>
 7    1  0.5736319E-006  0.1435459E+03  0.7818608E-02  0.1211889E+00
          2   -1    0    0  502    0  0.00000000000E+00  0.00000000000E+00  0.21596193063E+04  0.21596193063E+04  0.00000000000E+00 0. -1.
          1   -1    0    0  501    0 -0.00000000000E+00 -0.00000000000E+00 -0.26286047523E+04  0.26286047523E+04  0.00000000000E+00 0. -1.
         25    2    1    2    0    0  0.53638509081E+02 -0.23752501535E+03 -0.82227740105E+03  0.86663714029E+03  0.12499834433E+03 0.  0.
          2    1    1    2  501    0  0.43135244793E+02  0.13176754244E+03 -0.17790436224E+04  0.17844381595E+04  0.00000000000E+00 0. -1.
          1    1    1    2  502    0 -0.96773753874E+02  0.10575747291E+03  0.21323355775E+04  0.21371487588E+04  0.00000000000E+00 0. -1.
         22    1    3    3    0    0 -0.35243188876E+02 -0.10066537548E+03 -0.25638297997E+03  0.27768297139E+03  0.00000000000E+00 0. -1.
         22    1    3    3    0    0  0.88881697957E+02 -0.13685963987E+03 -0.56589442108E+03  0.58895416890E+03  0.00000000000E+00 0. -1.
</event>
<event>
 7    1  0.5736319E-006  0.1183552E+03  0.7818608E-02  0.1403855E+00
          2   -1    0    0  502    0  0.00000000000E+00  0.00000000000E+00  0.18736076201E+04  0.18736076201E+04  0.00000000000E+00 0. -1.
          1   -1    0    0  501    0 -0.00000000000E+00 -0.00000000000E+00 -0.11772942272E+04  0.11772942272E+04  0.00000000000E+00 0. -1.
         25    2    1    2    0    0 -0.65748689475E+02 -0.61709007280E+02  0.73757695373E+03  0.75350948004E+03  0.12500352825E+03 0.  0.
          2    1    1    2  501    0  0.91199359404E+02  0.75615157494E+02 -0.11661399300E+04  0.11721421891E+04  0.00000000000E+00 0. -1.
          1    1    1    2  502    0 -0.25450669929E+02 -0.13906150214E+02  0.11248763692E+04  0.11252501782E+04  0.00000000000E+00 0. -1.
         22    1    3    3    0    0 -0.32044377291E+02 -0.83806473904E+02  0.66016836219E+03  0.66623767052E+03  0.00000000000E+00 0.  1.
         22    1    3    3    0    0 -0.33704312184E+02  0.22097466624E+02  0.77408591541E+02  0.87271809511E+02  0.00000000000E+00 0.  1.
</event>
<event>
 7    1  0.5736319E-006  0.5180320E+02  0.7818608E-02  0.1450572E+00
          2   -1    0    0  502    0  0.00000000000E+00  0.00000000000E+00  0.20546158495E+04  0.20546158495E+04  0.00000000000E+00 0. -1.
          1   -1    0    0  501    0 -0.00000000000E+00 -0.00000000000E+00 -0.21063128331E+02  0.21063128331E+02  0.00000000000E+00 0. -1.
         25    2    1    2    0    0  0.17196724476E+02 -0.72804357258E+00  0.56360826365E+03  0.57756043204E+03  0.12500208169E+03 0.  0.
          2    1    1    2  501    0 -0.34700109051E+02  0.43732633752E+02  0.43124496805E+02  0.70543341625E+02  0.00000000000E+00 0. -1.
          1    1    1    2  502    0  0.17503384574E+02 -0.43004590179E+02  0.14268199607E+04  0.14275752042E+04  0.00000000000E+00 0. -1.
         22    1    3    3    0    0  0.19469662665E+02  0.39597053405E+02  0.50173458249E+03  0.50367110863E+03  0.00000000000E+00 0. -1.
         22    1    3    3    0    0 -0.22729381887E+01 -0.40325096978E+02  0.61873681166E+02  0.73889323419E+02  0.00000000000E+00 0. -1.
</event>
<event>
 7    1  0.5736319E-006  0.1570516E+03  0.7818608E-02  0.1229735E+00
          2   -1    0    0  502    0  0.00000000000E+00  0.00000000000E+00  0.13395199832E+04  0.13395199832E+04  0.00000000000E+00 0. -1.
          1   -1    0    0  501    0 -0.00000000000E+00 -0.00000000000E+00 -0.27453951735E+03  0.27453951735E+03  0.00000000000E+00 0. -1.
         25    2    1    2    0    0 -0.43525271139E+02 -0.58898144889E+02  0.16072391932E+03  0.21638263534E+03  0.12500330369E+03 0.  0.
          2    1    1    2  501    0  0.14227960313E+03  0.94862811802E+02 -0.21431560425E+03  0.27417807490E+03  0.00000000000E+00 0. -1.
          1    1    1    2  502    0 -0.98754331991E+02 -0.35964666913E+02  0.11185721508E+04  0.11234987904E+04  0.00000000000E+00 0. -1.
         22    1    3    3    0    0 -0.21514798175E+02 -0.88709556977E+00  0.15224433403E+03  0.15375958742E+03  0.00000000000E+00 0.  1.
         22    1    3    3    0    0 -0.22010472964E+02 -0.58011049319E+02  0.84795852851E+01  0.62623047912E+02  0.00000000000E+00 0.  1.
</event>
<event>
 7    1  0.5736319E-006  0.6844275E+02  0.7818608E-02  0.1387995E+00
          2   -1    0    0  502    0  0.00000000000E+00  0.00000000000E+00  0.43083700604E+04  0.43083700604E+04  0.00000000000E+00 0. -1.
          1   -1    0    0  501    0 -0.00000000000E+00 -0.00000000000E+00 -0.61470585658E+02  0.61470585658E+02  0.00000000000E+00 0. -1.
         25    2    1    2    0    0  0.28981472406E+02 -0.11882052130E+03  0.30861781630E+03  0.35472196645E+03  0.12499789966E+03 0.  0.
          2    1    1    2  501    0 -0.24931656416E+02  0.51153259394E+02 -0.16895401844E+02  0.59360744956E+02  0.00000000000E+00 0. -1.
          1    1    1    2  502    0 -0.40498159898E+01  0.67667261905E+02  0.39551770603E+04  0.39557579346E+04  0.00000000000E+00 0. -1.
         22    1    3    3    0    0 -0.10636992444E+02 -0.53360131967E+02  0.25634366803E+03  0.26205443219E+03  0.00000000000E+00 0. -1.
         22    1    3    3    0    0  0.39618464850E+02 -0.65460389332E+02  0.52274148271E+02  0.92667534261E+02  0.00000000000E+00 0. -1.
</event>
<event>
 7    1  0.5736319E-006  0.1368099E+03  0.7818608E-02  0.1312094E+00
          2   -1    0    0  502    0  0.00000000000E+00  0.00000000000E+00  0.30846122260E+03  0.30846122260E+03  0.00000000000E+00 0. -1.
          1   -1    0    0  501    0 -0.00000000000E+00 -0.00000000000E+00 -0.74748712144E+03  0.74748712144E+03  0.00000000000E+00 0. -1.
         25    2    1    2    0    0 -0.13795790903E+03  0.31581719545E+02 -0.23757061218E+03  0.30347342442E+03  0.12500613537E+03 0.  0.
          2    1    1    2  501    0  0.27112511295E+01 -0.54357435765E+02 -0.45818548431E+03  0.46140656664E+03  0.00000000000E+00 0. -1.
          1    1    1    2  502    0  0.13524665790E+03  0.22775716220E+02  0.25673019766E+03  0.29106835299E+03  0.00000000000E+00 0. -1.
         22    1    3    3    0    0 -0.82510363341E+02 -0.41082696197E+02 -0.15479747980E+03  0.18016106055E+03  0.00000000000E+00 0.  1.
         22    1    3    3    0    0 -0.55447545686E+02  0.72664415741E+02 -0.82773132383E+02  0.12331236387E+03  0.00000000000E+00 0.  1.
</event>
<event>
 7    1  0.5736319E-006  0.6293582E+02  0.7818608E-02  0.1398446E+00
          2   -1    0    0  502    0  0.00000000000E+00  0.00000000000E+00  0.19713313818E+04  0.19713313818E+04  0.00000000000E+00 0. -1.
          1   -1    0    0  501    0 -0.00000000000E+00 -0.00000000000E+00 -0.87365300434E+02  0.87365300434E+02  0.00000000000E+00 0. -1.
         25    2    1    2    0    0 -0.79998740690E+01  0.24414826846E+02  0.13682447707E+03  0.18709865081E+03  0.12499954342E+03 0.  0.
          2    1    1    2  501    0  0.64866909143E+02 -0.21897267414E+02 -0.42807147147E+02  0.80744399612E+02  0.00000000000E+00 0. -1.
          1    1    1    2  502    0 -0.56867035074E+02 -0.25175594327E+01  0.17899487514E+04  0.17908536318E+04  0.00000000000E+00 0. -1.
         22    1    3    3    0    0 -0.19423380982E+02 -0.47793560518E+02  0.76742027947E+02  0.92470703519E+02  0.00000000000E+00 0. -1.
         22    1    3    3    0    0  0.11423506913E+02  0.72208387364E+02  0.60082449126E+02  0.94627947293E+02  0.00000000000E+00 0. -1.
</event>
<event>
 7    1  0.5736319E-006  0.8041515E+02  0.7818608E-02  0.1390396E+00
          2   -1    0    0  502    0  0.00000000000E+00  0.00000000000E+00  0.10198869783E+04  0.10198869783E+04  0.00000000000E+00 0. -1.
          1   -1    0    0  501    0 -0.00000000000E+00 -0.00000000000E+00 -0.19947588312E+03  0.19947588312E+03  0.00000000000E+00 0. -1.
         25    2    1    2    0    0 -0.11764607986E+02  0.90908127397E+02  0.24722720783E+03  0.29180310080E+03  0.12500025488E+03 0.  0.
          2    1    1    2  501    0 -0.32484455440E+02 -0.73618940306E+02 -0.16725152119E+03  0.18560188458E+03  0.00000000000E+00 0. -1.
          1    1    1    2  502    0  0.44249063426E+02 -0.17289187090E+02  0.74043540854E+03  0.74195787604E+03  0.00000000000E+00 0. -1.
         22    1    3    3    0    0 -0.35926317480E+02  0.11265056418E+03  0.21841849149E+03  0.24836965862E+03  0.00000000000E+00 0. -1.
         22    1    3    3    0    0  0.24161709494E+02 -0.21742436785E+02  0.28808716338E+02  0.43433442186E+02  0.00000000000E+00 0. -1.
</event>
<event>
 7    1  0.5736319E-006  0.9397760E+02  0.7818608E-02  0.1438747E+00
          2   -1    0    0  502    0  0.00000000000E+00  0.00000000000E+00  0.88854632623E+02  0.88854632623E+02  0.00000000000E+00 0. -1.
          1   -1    0    0  501    0 -0.00000000000E+00 -0.00000000000E+00 -0.70521097304E+03  0.70521097304E+03  0.00000000000E+00 0. -1.
         25    2    1    2    0    0 -0.86818839778E+02 -0.78937913099E+02 -0.29552020628E+03  0.34164982524E+03  0.12499482269E+03 0.  0.
          2    1    1    2  501    0  0.12813444499E+02  0.24830678588E+02 -0.35386912293E+03  0.35497056656E+03  0.00000000000E+00 0. -1.
          1    1    1    2  502    0  0.74005395279E+02  0.54107234511E+02  0.33032988795E+02  0.97445213867E+02  0.00000000000E+00 0. -1.
         22    1    3    3    0    0 -0.58068182237E+02 -0.24639445594E+02 -0.31371703451E+02  0.70449981156E+02  0.00000000000E+00 0.  1.
         22    1    3    3    0    0 -0.28750657541E+02 -0.54298467505E+02 -0.26414850283E+03  0.27119984408E+03  0.00000000000E+00 0.  1.
</event>
<event>
 7    1  0.5736319E-006  0.7284182E+02  0.7818608E-02  0.1403839E+00
          2   -1    0    0  502    0  0.00000000000E+00  0.00000000000E+00  0.20624196281E+04  0.20624196281E+04  0.00000000000E+00 0. -1.
          1   -1    0    0  501    0 -0.00000000000E+00 -0.00000000000E+00 -0.66812808428E+03  0.66812808428E+03  0.00000000000E+00 0. -1.
         25    2    1    2    0    0 -0.27559933164E+02  0.76558934297E+02  0.18072490839E+03  0.23432219715E+03  0.12499831689E+03 0.  0.
          2    1    1    2  501    0 -0.32105227234E+02 -0.34502506856E+02 -0.63974409713E+03  0.64147773025E+03  0.00000000000E+00 0. -1.
          1    1    1    2  502    0  0.59665160398E+02 -0.42056427441E+02  0.18533107326E+04  0.18547477850E+04  0.00000000000E+00 0. -1.
         22    1    3    3    0    0  0.99883445882E+01  0.51038357214E+02  0.18161380426E+03  0.18891335271E+03  0.00000000000E+00 0.  1.
         22    1    3    3    0    0 -0.37548277752E+02  0.25520577083E+02 -0.88889587305E+00  0.45408844432E+02  0.00000000000E+00 0.  1.
</event>
<event>
 7    1  0.5736319E-006  0.1081215E+03  0.7818608E-02  0.1346104E+00
          2   -1    0    0  502    0  0.00000000000E+00  0.00000000000E+00  0.10239925853E+04  0.10239925853E+04  0.00000000000E+00 0. -1.
          1   -1    0    0  501    0 -0.00000000000E+00 -0.00000000000E+00 -0.16588183709E+03  0.16588183709E+03  0.00000000000E+00 0. -1.
         25    2    1    2    0    0  0.20756073820E+02  0.55457486951E+02 -0.37740536263E+02  0.14337180263E+03  0.12499911301E+03 0.  0.
          2    1    1    2  501    0  0.26027197323E+02  0.43899964751E+02 -0.63172152273E+02  0.81211715463E+02  0.00000000000E+00 0. -1.
          1    1    1    2  502    0 -0.46783271143E+02 -0.99357451702E+02  0.95902343672E+03  0.96529090426E+03  0.00000000000E+00 0. -1.
         22    1    3    3    0    0 -0.58617886459E+01  0.86036935209E+02  0.24689839942E+01  0.86271725775E+02  0.00000000000E+00 0. -1.
         22    1    3    3    0    0  0.26617862466E+02 -0.30579448258E+02 -0.40209520257E+02  0.57100076859E+02  0.00000000000E+00 0. -1.
</event>
<event>
 7    1  0.5736319E-006  0.6465782E+02  0.7818608E-02  0.1436390E+00
          2   -1    0    0  502    0  0.00000000000E+00  0.00000000000E+00  0.10629739683E+04  0.10629739683E+04  0.00000000000E+00 0. -1.
          1   -1    0    0  501    0 -0.00000000000E+00 -0.00000000000E+00 -0.15055061048E+04  0.15055061048E+04  0.00000000000E+00 0. -1.
         25    2    1    2    0    0 -0.52179437232E+02 -0.10093203754E+02  0.59979101201E+02  0.14848733407E+03  0.12500571734E+03 0.  0.
          2    1    1    2  501    0  0.41288683488E+02  0.49969398476E+02 -0.14600870190E+04  0.14615251620E+04  0.00000000000E+00 0. -1.
          1    1    1    2  502    0  0.10890753744E+02 -0.39876194722E+02  0.95757578121E+03  0.95846757701E+03  0.00000000000E+00 0. -1.
         22    1    3    3    0    0 -0.47699612118E+02  0.16452898498E+02  0.93046322536E+02  0.10584691305E+03  0.00000000000E+00 0.  1.
         22    1    3    3    0    0 -0.44798251136E+01 -0.26546102251E+02 -0.33067221335E+02  0.42640421018E+02  0.00000000000E+00 0.  1.
</event>
<event>
 7    1  0.5736319E-006  0.3753542E+02  0.7818608E-02  0.1544413E+00
          2   -1    0    0  502    0  0.00000000000E+00  0.00000000000E+00  0.53382087055E+03  0.53382087055E+03  0.00000000000E+00 0. -1.
          1   -1    0    0  501    0 -0.00000000000E+00 -0.00000000000E+00 -0.99175803213E+03  0.99175803213E+03  0.00000000000E+00 0. -1.
         25    2    1    2    0    0  0.89839184799E+01  0.11614150646E+02 -0.32390602725E+03  0.34749948459E+03  0.12500071205E+03 0.  0.
          2    1    1    2  501    0  0.13330297576E+02 -0.36640480862E+02 -0.65493649237E+03  0.65609605296E+03  0.00000000000E+00 0. -1.
          1    1    1    2  502    0 -0.22314216056E+02  0.25026330216E+02  0.52090535804E+03  0.52198336513E+03  0.00000000000E+00 0. -1.
         22    1    3    3    0    0  0.58730818790E+02 -0.24413782582E+02 -0.14477012504E+03  0.15812568090E+03  0.00000000000E+00 0.  1.
         22    1    3    3    0    0 -0.49746900310E+02  0.36027933228E+02 -0.17913590221E+03  0.18937380369E+03  0.00000000000E+00 0.  1.
</event>
<event>
 7    1  0.5736319E-006  0.5624169E+02  0.7818608E-02  0.1444223E+00
          2   -1    0    0  502    0  0.00000000000E+00  0.00000000000E+00  0.64169985098E+03  0.64169985098E+03  0.00000000000E+00 0. -1.
          1   -1    0    0  501    0 -0.00000000000E+00 -0.00000000000E+00 -0.20369651433E+04  0.20369651433E+04  0.00000000000E+00 0. -1.
         25    2    1    2    0    0  0.88512110253E+02  0.44972015853E+02 -0.13792199704E+03  0.21096061751E+03  0.12500011600E+03 0.  0.
          2    1    1    2  501    0 -0.45566752853E+02 -0.32139950129E+02 -0.18612758224E+04  0.18621108969E+04  0.00000000000E+00 0. -1.
          1    1    1    2  502    0 -0.42945357400E+02 -0.12832065724E+02  0.60393252708E+03  0.60559347990E+03  0.00000000000E+00 0. -1.
         22    1    3    3    0    0  0.20969561501E+02  0.78625340287E+02 -0.91107712106E+02  0.12215679207E+03  0.00000000000E+00 0.  1.
         22    1    3    3    0    0  0.67542548752E+02 -0.33653324434E+02 -0.46814284938E+02  0.88803825434E+02  0.00000000000E+00 0.  1.
</event>
<event>
 7    1  0.5736319E-006  0.5213806E+02  0.7818608E-02  0.1481067E+00
          2   -1    0    0  502    0  0.00000000000E+00  0.00000000000E+00  0.41519782141E+03  0.41519782141E+03  0.00000000000E+00 0. -1.
          1   -1    0    0  501    0 -0.00000000000E+00 -0.00000000000E+00 -0.59434563487E+03  0.59434563487E+03  0.00000000000E+00 0. -1.
         25    2    1    2    0    0  0.12255525015E+02  0.25005052773E+02 -0.34478200013E+03  0.36779746427E+03  0.12499958621E+03 0.  0.
          2    1    1    2  501    0 -0.27233956938E+02  0.25092859531E+02 -0.23490607164E+03  0.23780706992E+03  0.00000000000E+00 0. -1.
          1    1    1    2  502    0  0.14978431924E+02 -0.50097912304E+02  0.40054025831E+03  0.40393892208E+03  0.00000000000E+00 0. -1.
         22    1    3    3    0    0  0.24002570792E+02 -0.36413334641E+02 -0.25304259227E+03  0.25677345627E+03  0.00000000000E+00 0.  1.
         22    1    3    3    0    0 -0.11747045778E+02  0.61418387414E+02 -0.91739407864E+02  0.11102400800E+03  0.00000000000E+00 0.  1.
</event>
<event>
 7    1  0.5736319E-006  0.7126697E+02  0.7818608E-02  0.1437716E+00
          2   -1    0    0  502    0  0.00000000000E+00  0.00000000000E+00  0.21460614766E+03  0.21460614766E+03  0.00000000000E+00 0. -1.
          1   -1    0    0  501    0 -0.00000000000E+00 -0.00000000000E+00 -0.83924162125E+02  0.83924162125E+02  0.00000000000E+00 0. -1.
         25    2    1    2    0    0  0.27121758388E+02 -0.41710251303E+02  0.45897642680E+02  0.14214973617E+03  0.12499847618E+03 0.  0.
          2    1    1    2  501    0 -0.11039195647E+02 -0.35452750297E+02 -0.43601582553E+01  0.37386793445E+02  0.00000000000E+00 0. -1.
          1    1    1    2  502    0 -0.16082562741E+02  0.77163001600E+02  0.89144501109E+02  0.11899378017E+03  0.00000000000E+00 0. -1.
         22    1    3    3    0    0 -0.31720666683E+02 -0.63981587052E+02  0.20465366994E+02  0.74287787844E+02  0.00000000000E+00 0. -1.
         22    1    3    3    0    0  0.58842425071E+02  0.22271335749E+02  0.25432275685E+02  0.67861948328E+02  0.00000000000E+00 0. -1.
</event>
<event>
 7    1  0.5736319E-006  0.6336777E+02  0.7818608E-02  0.1397236E+00
          2   -1    0    0  502    0  0.00000000000E+00  0.00000000000E+00  0.33215531752E+03  0.33215531752E+03  0.00000000000E+00 0. -1.
          1   -1    0    0  501    0 -0.00000000000E+00 -0.00000000000E+00 -0.28760900024E+03  0.28760900024E+03  0.00000000000E+00 0. -1.
         25    2    1    2    0    0 -0.98478486130E+02  0.56138521166E+02  0.50178832350E+02  0.17604578339E+03  0.12499862737E+03 0.  0.
          2    1    1    2  501    0  0.55303642160E+02 -0.14132495450E+02 -0.21676833086E+03  0.22415782282E+03  0.00000000000E+00 0. -1.
          1    1    1    2  502    0  0.43174843971E+02 -0.42006025716E+02  0.21113581580E+03  0.21956071156E+03  0.00000000000E+00 0. -1.
         22    1    3    3    0    0  0.30179558089E+02  0.14062903849E+02  0.77044209790E+01  0.34174977596E+02  0.00000000000E+00 0. -1.
         22    1    3    3    0    0 -0.12865804422E+03  0.42075617317E+02  0.42474411371E+02  0.14187080579E+03  0.00000000000E+00 0. -1.
</event>
<event>
 7    1  0.5736319E-006  0.7852304E+02  0.7818608E-02  0.1341497E+00
          2   -1    0    0  502    0  0.00000000000E+00  0.00000000000E+00  0.33366466880E+03  0.33366466880E+03  0.00000000000E+00 0. -1.
          1   -1    0    0  501    0 -0.00000000000E+00 -0.00000000000E+00 -0.24528755289E+03  0.24528755289E+03  0.00000000000E+00 0. -1.
         25    2    1    2    0    0  0.38972664469E+02 -0.27740439907E+02  0.19513391458E+03  0.23662632632E+03  0.12500549231E+03 0.  0.
          2    1    1    2  501    0 -0.71013155699E+02 -0.37982684084E+02 -0.20477436883E+03  0.22004112049E+03  0.00000000000E+00 0. -1.
          1    1    1    2  502    0  0.32040491230E+02  0.65723123991E+02  0.98017570164E+02  0.12228477488E+03  0.00000000000E+00 0. -1.
         22    1    3    3    0    0  0.21512917391E+02 -0.63654906234E+01 -0.13494239245E+02  0.26180519062E+02  0.00000000000E+00 0.  1.
         22    1    3    3    0    0  0.17459747079E+02 -0.21374949283E+02  0.20862815383E+03  0.21044580726E+03  0.00000000000E+00 0.  1.
</event>
<event>
 7    1  0.5736319E-006  0.1508119E+03  0.7818608E-02  0.1350171E+00
          2   -1    0    0  502    0  0.00000000000E+00  0.00000000000E+00  0.95344166990E+03  0.95344166990E+03  0.00000000000E+00 0. -1.
          1   -1    0    0  501    0 -0.00000000000E+00 -0.00000000000E+00 -0.57174954481E+03  0.57174954481E+03  0.00000000000E+00 0. -1.
         25    2    1    2    0    0 -0.99090649965E+02  0.70466605982E+02  0.35690729479E+03  0.39723085800E+03  0.12500015201E+03 0.  0.
          2    1    1    2  501    0  0.13442719382E+03 -0.70195807127E+02 -0.54060210248E+03  0.56147017284E+03  0.00000000000E+00 0. -1.
          1    1    1    2  502    0 -0.35336543850E+02 -0.27079885511E+00  0.56538693278E+03  0.56649018388E+03  0.00000000000E+00 0. -1.
         22    1    3    3    0    0 -0.28623270592E+02 -0.16915826597E+02  0.20858295057E+03  0.21121620221E+03  0.00000000000E+00 0.  1.
         22    1    3    3    0    0 -0.70467379373E+02  0.87382432579E+02  0.14832434422E+03  0.18601465579E+03  0.00000000000E+00 0.  1.
</event>
<event>
 7    1  0.5736319E-006  0.4968368E+02  0.7818608E-02  0.1470477E+00
          2   -1    0    0  502    0  0.00000000000E+00  0.00000000000E+00  0.45114389559E+03  0.45114389559E+03  0.00000000000E+00 0. -1.
          1   -1    0    0  501    0 -0.00000000000E+00 -0.00000000000E+00 -0.65183823508E+02  0.65183823508E+02  0.00000000000E+00 0. -1.
         25    2    1    2    0    0 -0.13385139303E+02 -0.56559723265E+02  0.61007727016E+02  0.15074799132E+03  0.12499939952E+03 0.  0.
          2    1    1    2  501    0  0.43210725290E+02  0.27133932553E+02  0.15531643894E+02  0.53335251362E+02  0.00000000000E+00 0. -1.
          1    1    1    2  502    0 -0.29825585986E+02  0.29425790712E+02  0.30942070117E+03  0.31224447641E+03  0.00000000000E+00 0. -1.
         22    1    3    3    0    0  0.13049998143E+02 -0.32010262946E+02 -0.34387415772E+02  0.48759140157E+02  0.00000000000E+00 0.  1.
         22    1    3    3    0    0 -0.26435137446E+02 -0.24549460318E+02  0.95395142788E+02  0.10198885116E+03  0.00000000000E+00 0.  1.
</event>
<event>
 7    1  0.5736319E-006  0.3692739E+02  0.7818608E-02  0.1603110E+00
          2   -1    0    0  502    0  0.00000000000E+00  0.00000000000E+00  0.19977780588E+04  0.19977780588E+04  0.00000000000E+00 0. -1.
          1   -1    0    0  501    0 -0.00000000000E+00 -0.00000000000E+00 -0.39690516019E+02  0.39690516019E+02  0.00000000000E+00 0. -1.
         25    2    1    2    0    0  0.13898627434E+02 -0.52316376599E+01  0.25579203613E+03  0.28508812391E+03  0.12500052307E+03 0.  0.
          2    1    1    2  501    0  0.23319874353E+02  0.39221832598E+01 -0.19213309020E+02  0.30468857951E+02  0.00000000000E+00 0. -1.
          1    1    1    2  502    0 -0.37218501787E+02  0.13094544001E+01  0.17215088157E+04  0.17219115930E+04  0.00000000000E+00 0. -1.
         22    1    3    3    0    0 -0.40263509710E+02 -0.25499388180E+02  0.41711373080E+02  0.63334095525E+02  0.00000000000E+00 0. -1.
         22    1    3    3    0    0  0.54162137145E+02  0.20267750520E+02  0.21408066305E+03  0.22175402838E+03  0.00000000000E+00 0. -1.
</event>
<event>
 7    1  0.5736319E-006  0.7697012E+02  0.7818608E-02  0.1341055E+00
          2   -1    0    0  502    0  0.00000000000E+00  0.00000000000E+00  0.14641217433E+04  0.14641217433E+04  0.00000000000E+00 0. -1.
          1   -1    0    0  501    0 -0.00000000000E+00 -0.00000000000E+00 -0.43203791520E+03  0.43203791520E+03  0.00000000000E+00 0. -1.
         25    2    1    2    0    0 -0.77026016865E+02 -0.35058399839E+02 -0.30589435740E+02  0.15402322255E+03  0.12500136333E+03 0.  0.
          2    1    1    2  501    0  0.15255998081E+02  0.77380775703E+02 -0.33413773632E+03  0.34331990441E+03  0.00000000000E+00 0. -1.
          1    1    1    2  502    0  0.61770018784E+02 -0.42322375864E+02  0.13968110002E+04  0.13988165315E+04  0.00000000000E+00 0. -1.
         22    1    3    3    0    0  0.20944628780E+02 -0.20531273867E+02 -0.45228119860E+02  0.53905412599E+02  0.00000000000E+00 0. -1.
         22    1    3    3    0    0 -0.97970645645E+02 -0.14527125971E+02  0.14638684120E+02  0.10011780995E+03  0.00000000000E+00 0. -1.
</event>
<event>
 7    1  0.5736319E-006  0.1750982E+03  0.7818608E-02  0.1210146E+00
          2   -1    0    0  502    0  0.00000000000E+00  0.00000000000E+00  0.13872729648E+04  0.13872729648E+04  0.00000000000E+00 0. -1.
          1   -1    0    0  501    0 -0.00000000000E+00 -0.00000000000E+00 -0.78281378491E+03  0.78281378491E+03  0.00000000000E+00 0. -1.
         25    2    1    2    0    0  0.12803719399E+03 -0.19779416810E+03 -0.44176540996E+03  0.51604015415E+03  0.12499882911E+03 0.  0.
          2    1    1    2  501    0 -0.11334115516E+03  0.23709989418E+02 -0.28697139165E+03  0.30945267922E+03  0.00000000000E+00 0. -1.
          1    1    1    2  502    0 -0.14696038833E+02  0.17408417868E+03  0.13331959815E+04  0.13445939163E+04  0.00000000000E+00 0. -1.
         22    1    3    3    0    0  0.59942219920E+02 -0.17944974310E+03 -0.26397701751E+03  0.32477553141E+03  0.00000000000E+00 0.  1.
         22    1    3    3    0    0  0.68094974072E+02 -0.18344424994E+02 -0.17778839245E+03  0.19126462274E+03  0.00000000000E+00 0.  1.
</event>
<event>
 7    1  0.5736319E-006  0.1366456E+03  0.7818608E-02  0.1224388E+00
          2   -1    0    0  502    0  0.00000000000E+00  0.00000000000E+00  0.41439692296E+03  0.41439692296E+03  0.00000000000E+00 0. -1.
          1   -1    0    0  501    0 -0.00000000000E+00 -0.00000000000E+00 -0.55245677060E+03  0.55245677060E+03  0.00000000000E+00 0. -1.
         25    2    1    2    0    0  0.22224101467E+03  0.59893073331E+02 -0.17828971150E+02  0.26253007544E+03  0.12500367782E+03 0.  0.
          2    1    1    2  501    0 -0.97385271783E+02 -0.86620515381E+02 -0.38711580416E+03  0.40846744139E+03  0.00000000000E+00 0. -1.
          1    1    1    2  502    0 -0.12485574288E+03  0.26727442050E+02  0.26688492767E+03  0.29585617672E+03  0.00000000000E+00 0. -1.
         22    1    3    3    0    0  0.20525242896E+03  0.14853416426E+02  0.11589535382E+02  0.20611526121E+03  0.00000000000E+00 0. -1.
         22    1    3    3    0    0  0.16988585704E+02  0.45039656905E+02 -0.29418506532E+02  0.56414814233E+02  0.00000000000E+00 0. -1.
</event>
<event>
 7    1  0.5736319E-006  0.3654333E+03  0.7818608E-02  0.1232525E+00
          2   -1    0    0  502    0  0.00000000000E+00  0.00000000000E+00  0.22829665809E+03  0.22829665809E+03  0.00000000000E+00 0. -1.
          1   -1    0    0  501    0 -0.00000000000E+00 -0.00000000000E+00 -0.29501497867E+04  0.29501497867E+04  0.00000000000E+00 0. -1.
         25    2    1    2    0    0  0.24224539710E+03  0.31503911707E+03 -0.44896043365E+03  0.61247254885E+03  0.12499869763E+03 0.  0.
          2    1    1    2  501    0 -0.20153323471E+03 -0.29864714985E+03 -0.24023826784E+04  0.24292485048E+04  0.00000000000E+00 0. -1.
          1    1    1    2  502    0 -0.40712162382E+02 -0.16391967224E+02  0.12948998345E+03  0.13672539109E+03  0.00000000000E+00 0. -1.
         22    1    3    3    0    0  0.72478739007E+02  0.19568175226E+03 -0.21163097902E+03  0.29720731327E+03  0.00000000000E+00 0. -1.
         22    1    3    3    0    0  0.16976665809E+03  0.11935736481E+03 -0.23732945463E+03  0.31526523558E+03  0.00000000000E+00 0. -1.
</event>
<event>
 7    1  0.5736319E-006  0.1103799E+03  0.7818608E-02  0.1411415E+00
          2   -1    0    0  502    0  0.00000000000E+00  0.00000000000E+00  0.10512317753E+04  0.10512317753E+04  0.00000000000E+00 0. -1.
          1   -1    0    0  501    0 -0.00000000000E+00 -0.00000000000E+00 -0.67588905113E+02  0.67588905113E+02  0.00000000000E+00 0. -1.
         25    2    1    2    0    0  0.10249528358E+03 -0.46881424600E+02  0.54055127911E+03  0.56614859969E+03  0.12500160182E+03 0.  0.
          2    1    1    2  501    0  0.64897421153E+01  0.28582702500E+02 -0.44184166786E+02  0.53021959880E+02  0.00000000000E+00 0. -1.
          1    1    1    2  502    0 -0.10898502569E+03  0.18298722100E+02  0.48727575787E+03  0.49965012085E+03  0.00000000000E+00 0. -1.
         22    1    3    3    0    0  0.27805433831E+02  0.80252737869E+01  0.37734434051E+03  0.37845250493E+03  0.00000000000E+00 0. -1.
         22    1    3    3    0    0  0.74689849748E+02 -0.54906698387E+02  0.16320693860E+03  0.18769609476E+03  0.00000000000E+00 0. -1.
</event>
<event>
 7    1  0.5736319E-006  0.9472781E+02  0.7818608E-02  0.1303297E+00
          2   -1    0    0  502    0  0.00000000000E+00  0.00000000000E+00  0.68909899312E+03  0.68909899312E+03  0.00000000000E+00 0. -1.
          1   -1    0    0  501    0 -0.00000000000E+00 -0.00000000000E+00 -0.56720062900E+03  0.56720062900E+03  0.00000000000E+00 0. -1.
         25    2    1    2    0    0 -0.50791015820E+02 -0.35268238621E+02 -0.83569583408E+01  0.13970939414E+03  0.12500120045E+03 0.  0.
          2    1    1    2  501    0  0.91147050094E+02 -0.39722272619E+02 -0.48519425783E+03  0.49527680292E+03  0.00000000000E+00 0. -1.
          1    1    1    2  502    0 -0.40356034274E+02  0.74990511239E+02  0.61544958029E+03  0.62131342506E+03  0.00000000000E+00 0. -1.
         22    1    3    3    0    0 -0.32891951688E+02 -0.70268811108E+02  0.31491362758E+02  0.83733459434E+02  0.00000000000E+00 0.  1.
         22    1    3    3    0    0 -0.17899064132E+02  0.35000572488E+02 -0.39848321099E+02  0.55975934701E+02  0.00000000000E+00 0.  1.
</event>
<event>
 7    1  0.5736319E-006  0.6912221E+02  0.7818608E-02  0.1422470E+00
          2   -1    0    0  502    0  0.00000000000E+00  0.00000000000E+00  0.38279436489E+03  0.38279436489E+03  0.00000000000E+00 0. -1.
          1   -1    0    0  501    0 -0.00000000000E+00 -0.00000000000E+00 -0.58452512012E+02  0.58452512012E+02  0.00000000000E+00 0. -1.
         25    2    1    2    0    0 -0.32655123753E+02  0.15406359648E+02  0.25566964567E+03  0.28687229834E+03  0.12500013926E+03 0.  0.
          2    1    1    2  501    0  0.49733249982E+02 -0.54840849200E+02  0.79504148439E+00  0.74037470147E+02  0.00000000000E+00 0. -1.
          1    1    1    2  502    0 -0.17078126229E+02  0.39434489551E+02  0.67877165723E+02  0.80337108413E+02  0.00000000000E+00 0. -1.
         22    1    3    3    0    0 -0.45557024072E+01  0.83094875224E+01 -0.13308316523E+02  0.16337481323E+02  0.00000000000E+00 0.  1.
         22    1    3    3    0    0 -0.28099421346E+02  0.70968721260E+01  0.26897796220E+03  0.27053481702E+03  0.00000000000E+00 0.  1.
</event>
<event>
 7    1  0.5736319E-006  0.7844140E+02  0.7818608E-02  0.1390085E+00
          2   -1    0    0  502    0  0.00000000000E+00  0.00000000000E+00  0.15947569647E+04  0.15947569647E+04  0.00000000000E+00 0. -1.
          1   -1    0    0  501    0 -0.00000000000E+00 -0.00000000000E+00 -0.29858049037E+03  0.29858049037E+03  0.00000000000E+00 0. -1.
         25    2    1    2    0    0 -0.31365359833E+02  0.24946677355E+01  0.46951993352E+03  0.48689248422E+03  0.12500125622E+03 0.  0.
          2    1    1    2  501    0  0.78135433899E+02  0.11517799777E+02 -0.28396853500E+03  0.29474723851E+03  0.00000000000E+00 0. -1.
          1    1    1    2  502    0 -0.46770074066E+02 -0.14012467513E+02  0.11106250758E+04  0.11116977323E+04  0.00000000000E+00 0. -1.
         22    1    3    3    0    0 -0.37907737140E+02 -0.35028579882E+02  0.42576198946E+03  0.42887908507E+03  0.00000000000E+00 0.  1.
         22    1    3    3    0    0  0.65423773072E+01  0.37523247618E+02  0.43757944057E+02  0.58013399148E+02  0.00000000000E+00 0.  1.
</event>
<event>
 7    1  0.5736319E-006  0.7434390E+02  0.7818608E-02  0.1485092E+00
          2   -1    0    0  502    0  0.00000000000E+00  0.00000000000E+00  0.28479548526E+03  0.28479548526E+03  0.00000000000E+00 0. -1.
          1   -1    0    0  501    0 -0.00000000000E+00 -0.00000000000E+00 -0.78159421728E+03  0.78159421728E+03  0.00000000000E+00 0. -1.
         25    2    1    2    0    0  0.50260406453E+01  0.78797630633E+02  0.14780874929E+03  0.20906176195E+03  0.12500026506E+03 0.  0.
          2    1    1    2  501    0  0.19232664234E+02 -0.71807593449E+02 -0.74759976227E+03  0.75128664995E+03  0.00000000000E+00 0. -1.
          1    1    1    2  502    0 -0.24258704879E+02 -0.69900371837E+01  0.10299228095E+03  0.10604129063E+03  0.00000000000E+00 0. -1.
         22    1    3    3    0    0  0.50027696443E+02  0.18437437475E+02  0.13356341961E+02  0.54964546597E+02  0.00000000000E+00 0. -1.
         22    1    3    3    0    0 -0.45001655798E+02  0.60360193158E+02  0.13445240733E+03  0.15409721536E+03  0.00000000000E+00 0. -1.
</event>
<event>
 7    1  0.5736319E-006  0.1232532E+03  0.7818608E-02  0.1385394E+00
          2   -1    0    0  502    0  0.00000000000E+00  0.00000000000E+00  0.99417852180E+03  0.99417852180E+03  0.00000000000E+00 0. -1.
          1   -1    0    0  501    0 -0.00000000000E+00 -0.00000000000E+00 -0.11017933106E+03  0.11017933106E+03  0.00000000000E+00 0. -1.
         25    2    1    2    0    0  0.51033623757E+01  0.96971137940E+02  0.58243107007E+02  0.16865081825E+03  0.12498557149E+03 0.  0.
          2    1    1    2  501    0  0.18883512014E+02  0.26168726601E+02 -0.45324357031E+02  0.55638894832E+02  0.00000000000E+00 0. -1.
          1    1    1    2  502    0 -0.23986874390E+02 -0.12313986454E+03  0.87108044076E+03  0.88006813978E+03  0.00000000000E+00 0. -1.
         22    1    3    3    0    0  0.25405614675E+02  0.12277412658E+03  0.44153346355E+02  0.13292271969E+03  0.00000000000E+00 0. -1.
         22    1    3    3    0    0 -0.20302252299E+02 -0.25802988643E+02  0.14089760652E+02  0.35728098558E+02  0.00000000000E+00 0. -1.
</event>
<event>
 7    1  0.5736319E-006  0.5602215E+02  0.7818608E-02  0.1466400E+00
          2   -1    0    0  502    0  0.00000000000E+00  0.00000000000E+00  0.53447652163E+02  0.53447652163E+02  0.00000000000E+00 0. -1.
          1   -1    0    0  501    0 -0.00000000000E+00 -0.00000000000E+00 -0.52740708179E+03  0.52740708179E+03  0.00000000000E+00 0. -1.
         25    2    1    2    0    0  0.27866963675E+02 -0.72609558577E+02 -0.20640305866E+03  0.25352555880E+03  0.12499708267E+03 0.  0.
          2    1    1    2  501    0 -0.40407815722E+02  0.36462184054E+02 -0.28141932816E+03  0.28663412341E+03  0.00000000000E+00 0. -1.
          1    1    1    2  502    0  0.12540852047E+02  0.36147374523E+02  0.13862957198E+02  0.40695051754E+02  0.00000000000E+00 0. -1.
         22    1    3    3    0    0 -0.41639944153E+02  0.51338566404E+01 -0.73011986801E+02  0.84208026041E+02  0.00000000000E+00 0. -1.
         22    1    3    3    0    0  0.69506907827E+02 -0.77743415217E+02 -0.13339107186E+03  0.16931753275E+03  0.00000000000E+00 0. -1.
</event>
<event>
 7    1  0.5736319E-006  0.4478977E+02  0.7818608E-02  0.1505612E+00
          2   -1    0    0  502    0  0.00000000000E+00  0.00000000000E+00  0.12682366485E+04  0.12682366485E+04  0.00000000000E+00 0. -1.
          1   -1    0    0  501    0 -0.00000000000E+00 -0.00000000000E+00 -0.13226164654E+03  0.13226164654E+03  0.00000000000E+00 0. -1.
         25    2    1    2    0    0 -0.99356723197E+01  0.74128459635E+01  0.52399703895E+03  0.53884242360E+03  0.12499837105E+03 0.  0.
          2    1    1    2  501    0 -0.34475377440E+02  0.11554165539E+02 -0.12138034968E+03  0.12670927227E+03  0.00000000000E+00 0. -1.
          1    1    1    2  502    0  0.44411049760E+02 -0.18967011503E+02  0.73335831265E+03  0.73494659914E+03  0.00000000000E+00 0. -1.
         22    1    3    3    0    0  0.89347551563E+01 -0.11024304392E+02  0.86734980721E-02  0.14190321077E+02  0.00000000000E+00 0. -1.
         22    1    3    3    0    0 -0.18870427476E+02  0.18437150356E+02  0.52398836545E+03  0.52465210252E+03  0.00000000000E+00 0. -1.
</event>
<event>
 7    1  0.5736319E-006  0.5454761E+02  0.7818608E-02  0.1431427E+00
          2   -1    0    0  502    0  0.00000000000E+00  0.00000000000E+00  0.27132799833E+04  0.27132799833E+04  0.00000000000E+00 0. -1.
          1   -1    0    0  501    0 -0.00000000000E+00 -0.00000000000E+00 -0.27383866369E+02  0.27383866369E+02  0.00000000000E+00 0. -1.
         25    2    1    2    0    0 -0.34981931818E+01  0.51966852040E+01  0.50867437053E+03  0.52384598693E+03  0.12500303956E+03 0.  0.
          2    1    1    2  501    0 -0.16520424176E+02  0.48108597567E+02  0.13878588093E+02  0.52725485131E+02  0.00000000000E+00 0. -1.
          1    1    1    2  502    0  0.20018617358E+02 -0.53305282771E+02  0.21633431583E+04  0.21640923776E+04  0.00000000000E+00 0. -1.
         22    1    3    3    0    0 -0.26041938848E+02  0.74035097448E+01  0.17693250234E+02  0.32342628825E+02  0.00000000000E+00 0.  1.
         22    1    3    3    0    0  0.22543745666E+02 -0.22068245408E+01  0.49098112030E+03  0.49150335811E+03  0.00000000000E+00 0.  1.
</event>
<event>
 7    1  0.5736319E-006  0.8517399E+02  0.7818608E-02  0.1443756E+00
          2   -1    0    0  502    0  0.00000000000E+00  0.00000000000E+00  0.10722730199E+04  0.10722730199E+04  0.00000000000E+00 0. -1.
          1   -1    0    0  501    0 -0.00000000000E+00 -0.00000000000E+00 -0.24072219220E+03  0.24072219220E+03  0.00000000000E+00 0. -1.
         25    2    1    2    0    0 -0.85245096694E+01  0.58070940836E+02 -0.91794950387E+02  0.16581162998E+03  0.12498912866E+03 0.  0.
          2    1    1    2  501    0 -0.18784648623E+02  0.23004072771E+02 -0.10814610260E+03  0.11215003297E+03  0.00000000000E+00 0. -1.
          1    1    1    2  502    0  0.27309158293E+02 -0.81075013607E+02  0.10314918807E+04  0.10350335491E+04  0.00000000000E+00 0. -1.
         22    1    3    3    0    0 -0.20263206955E+02 -0.28765892388E+02 -0.65452810049E+02  0.74311132842E+02  0.00000000000E+00 0.  1.
         22    1    3    3    0    0  0.11738697285E+02  0.86836833223E+02 -0.26342140338E+02  0.91500497134E+02  0.00000000000E+00 0.  1.
</event>
<event>
 7    1  0.5736319E-006  0.8123632E+02  0.7818608E-02  0.1333089E+00
          2   -1    0    0  502    0  0.00000000000E+00  0.00000000000E+00  0.60168068031E+03  0.60168068031E+03  0.00000000000E+00 0. -1.
          1   -1    0    0  501    0 -0.00000000000E+00 -0.00000000000E+00 -0.83817135874E+03  0.83817135874E+03  0.00000000000E+00 0. -1.
         25    2    1    2    0    0  0.45459645399E+02 -0.26938421328E+02 -0.43417142044E+02  0.14248800688E+03  0.12500210389E+03 0.  0.
          2    1    1    2  501    0  0.50359075198E+01  0.83788404888E+02 -0.74021758876E+03  0.74496170094E+03  0.00000000000E+00 0. -1.
          1    1    1    2  502    0 -0.50495552919E+02 -0.56849983561E+02  0.54714405238E+03  0.55240233123E+03  0.00000000000E+00 0. -1.
         22    1    3    3    0    0 -0.11817831732E+01  0.54513860249E+01 -0.76543858589E+02  0.76746833868E+02  0.00000000000E+00 0.  1.
         22    1    3    3    0    0  0.46641428572E+02 -0.32389807353E+02  0.33126716544E+02  0.65741173009E+02  0.00000000000E+00 0.  1.
</event>
<event>
 7    1  0.5736319E-006  0.1254509E+03  0.7818608E-02  0.1408392E+00
          2   -1    0    0  502    0  0.00000000000E+00  0.00000000000E+00  0.12933073894E+03  0.12933073894E+03  0.00000000000E+00 0. -1.
          1   -1    0    0  501    0 -0.00000000000E+00 -0.00000000000E+00 -0.12016573085E+04  0.12016573085E+04  0.00000000000E+00 0. -1.
         25    2    1    2    0    0 -0.64938830668E+02  0.93133667228E+02 -0.76091794545E+02  0.18522216442E+03  0.12500542906E+03 0.  0.
          2    1    1    2  501    0  0.81484268641E+01  0.25115895642E+02 -0.10131554041E+04  0.10134994218E+04  0.00000000000E+00 0. -1.
          1    1    1    2  502    0  0.56790403804E+02 -0.11824956287E+03  0.16920629079E+02  0.13226646125E+03  0.00000000000E+00 0. -1.
         22    1    3    3    0    0 -0.20705805344E+02  0.32032396315E+02  0.34449690008E+02  0.51396361060E+02  0.00000000000E+00 0. -1.
         22    1    3    3    0    0 -0.44233025324E+02  0.61101270913E+02 -0.11054148455E+03  0.13382580336E+03  0.00000000000E+00 0. -1.
</event>
<event>
 7    1  0.5736319E-006  0.1116133E+03  0.7818608E-02  0.1291296E+00
          2   -1    0    0  502    0  0.00000000000E+00  0.00000000000E+00  0.22669615030E+04  0.22669615030E+04  0.00000000000E+00 0. -1.
          1   -1    0    0  501    0 -0.00000000000E+00 -0.00000000000E+00 -0.21479366058E+03  0.21479366058E+03  0.00000000000E+00 0. -1.
         25    2    1    2    0    0 -0.17888566181E+03  0.67882490416E+01  0.11400651740E+04  0.11607839611E+04  0.12499857210E+03 0.  0.
          2    1    1    2  501    0  0.10424514641E+03 -0.37649969844E+02 -0.18782126241E+03  0.21808575696E+03  0.00000000000E+00 0. -1.
          1    1    1    2  502    0  0.74640515399E+02  0.30861720802E+02  0.10999239308E+04  0.11028854455E+04  0.00000000000E+00 0. -1.
         22    1    3    3    0    0 -0.36763251333E+02 -0.61363344072E+01  0.55399311020E+02  0.66770314587E+02  0.00000000000E+00 0.  1.
         22    1    3    3    0    0 -0.14212241047E+03  0.12924583449E+02  0.10846658630E+04  0.10940136465E+04  0.00000000000E+00 0.  1.
</event>
<event>
 7    1  0.5736319E-006  0.7474923E+02  0.7818608E-02  0.1456697E+00
          2   -1    0    0  502    0  0.00000000000E+00  0.00000000000E+00  0.23863709425E+02  0.23863709425E+02  0.00000000000E+00 0. -1.
          1   -1    0    0  501    0 -0.00000000000E+00 -0.00000000000E+00 -0.91690799693E+03  0.91690799693E+03  0.00000000000E+00 0. -1.
         25    2    1    2    0    0  0.47292578034E+02  0.57150396764E+02 -0.33495411569E+03  0.36513324587E+03  0.12500108734E+03 0.  0.
          2    1    1    2  501    0 -0.25682646605E+02  0.16937206989E+02 -0.38374142418E+03  0.38497265870E+03  0.00000000000E+00 0. -1.
          1    1    1    2  502    0 -0.21609931428E+02 -0.74087603752E+02 -0.17434874763E+03  0.19066580178E+03  0.00000000000E+00 0. -1.
         22    1    3    3    0    0  0.72775830029E+02  0.31944286462E+02 -0.10135680679E+03  0.12880202311E+03  0.00000000000E+00 0. -1.
         22    1    3    3    0    0 -0.25483251996E+02  0.25206110302E+02 -0.23359730890E+03  0.23633122276E+03  0.00000000000E+00 0. -1.
</event>
<event>
 7    1  0.5736319E-006  0.8932829E+02  0.7818608E-02  0.1309121E+00
          2   -1    0    0  502    0  0.00000000000E+00  0.00000000000E+00  0.35008045334E+03  0.35008045334E+03  0.00000000000E+00 0. -1.
          1   -1    0    0  501    0 -0.00000000000E+00 -0.00000000000E+00 -0.41465822174E+03  0.41465822174E+03  0.00000000000E+00 0. -1.
         25    2    1    2    0    0 -0.53640677234E+01 -0.50307762763E+02  0.84613755702E+02  0.15919795268E+03  0.12499942507E+03 0.  0.
          2    1    1    2  501    0 -0.89103931858E+02  0.63271711782E+01 -0.35971438066E+03  0.37063995929E+03  0.00000000000E+00 0. -1.
          1    1    1    2  502    0  0.94467999581E+02  0.43980591585E+02  0.21052285655E+03  0.23490076311E+03  0.00000000000E+00 0. -1.
         22    1    3    3    0    0  0.28030307122E+02 -0.53972552640E+02  0.10395134829E+03  0.12043511683E+03  0.00000000000E+00 0. -1.
         22    1    3    3    0    0 -0.33394374845E+02  0.36647898772E+01 -0.19337592583E+02  0.38762835849E+02  0.00000000000E+00 0. -1.
</event>
<event>
 7    1  0.5736319E-006  0.5446711E+02  0.7818608E-02  0.1545237E+00
          2   -1    0    0  502    0  0.00000000000E+00  0.00000000000E+00  0.19653309732E+04  0.19653309732E+04  0.00000000000E+00 0. -1.
          1   -1    0    0  501    0 -0.00000000000E+00 -0.00000000000E+00 -0.38060946807E+02  0.38060946807E+02  0.00000000000E+00 0. -1.
         25    2    1    2    0    0 -0.47479304897E+02  0.19236891127E+02  0.10617116274E+04  0.10702727844E+04  0.12501164304E+03 0.  0.
          2    1    1    2  501    0 -0.83890215366E+01 -0.21398184741E+02 -0.28894316478E+02  0.36920719350E+02  0.00000000000E+00 0. -1.
          1    1    1    2  502    0  0.55868326434E+02  0.21612936141E+01  0.89445271551E+03  0.89619841629E+03  0.00000000000E+00 0. -1.
         22    1    3    3    0    0 -0.39974486850E+02 -0.21294656169E+02  0.13026364366E+03  0.13791315688E+03  0.00000000000E+00 0. -1.
         22    1    3    3    0    0 -0.75048180468E+01  0.40531547295E+02  0.93144798370E+03  0.93235962748E+03  0.00000000000E+00 0. -1.
</event>
<event>
 7    1  0.5736319E-006  0.8174515E+02  0.7818608E-02  0.1424446E+00
          2   -1    0    0  502    0  0.00000000000E+00  0.00000000000E+00  0.23249739460E+04  0.23249739460E+04  0.00000000000E+00 0. -1.
          1   -1    0    0  501    0 -0.00000000000E+00 -0.00000000000E+00 -0.18737918775E+02  0.18737918775E+02  0.00000000000E+00 0. -1.
         25    2    1    2    0    0 -0.99713316178E+02  0.44274732500E+02  0.13529312552E+04  0.13630668002E+04  0.12500049249E+03 0.  0.
          2    1    1    2  501    0  0.30037506774E+02 -0.19464281779E+02  0.14000431695E+02  0.38433347057E+02  0.00000000000E+00 0. -1.
          1    1    1    2  502    0  0.69675809404E+02 -0.24810450721E+02  0.93930434034E+03  0.94221171754E+03  0.00000000000E+00 0. -1.
         22    1    3    3    0    0 -0.36202636184E+02  0.71850613785E+02  0.42448853284E+03  0.43204589581E+03  0.00000000000E+00 0. -1.
         22    1    3    3    0    0 -0.63510679994E+02 -0.27575881285E+02  0.92844272232E+03  0.93102090435E+03  0.00000000000E+00 0. -1.
</event>
<event>
 7    1  0.5736319E-006  0.8507741E+02  0.7818608E-02  0.1344926E+00
          2   -1    0    0  502    0  0.00000000000E+00  0.00000000000E+00  0.19432325198E+03  0.19432325198E+03  0.00000000000E+00 0. -1.
          1   -1    0    0  501    0 -0.00000000000E+00 -0.00000000000E+00 -0.91865399429E+03  0.91865399429E+03  0.00000000000E+00 0. -1.
         25    2    1    2    0    0 -0.43119314097E+02 -0.12591708766E+03 -0.34714790082E+03  0.39223815135E+03  0.12499885645E+03 0.  0.
          2    1    1    2  501    0  0.50134566953E+02  0.42180895795E+02 -0.53657141655E+03  0.54055673878E+03  0.00000000000E+00 0. -1.
          1    1    1    2  502    0 -0.70152528556E+01  0.83736191865E+02  0.15938857507E+03  0.18018235614E+03  0.00000000000E+00 0. -1.
         22    1    3    3    0    0 -0.47061910293E+02 -0.14947743802E+03 -0.31828066008E+03  0.35476880705E+03  0.00000000000E+00 0.  1.
         22    1    3    3    0    0  0.39425961957E+01  0.23560350359E+02 -0.28867240747E+02  0.37469344298E+02  0.00000000000E+00 0.  1.
</event>
<event>
 7    1  0.5736319E-006  0.5783131E+02  0.7818608E-02  0.1452471E+00
          2   -1    0    0  502    0  0.00000000000E+00  0.00000000000E+00  0.18744627722E+04  0.18744627722E+04  0.00000000000E+00 0. -1.
          1   -1    0    0  501    0 -0.00000000000E+00 -0.00000000000E+00 -0.26351425283E+02  0.26351425283E+02  0.00000000000E+00 0. -1.
         25    2    1    2    0    0  0.71723696498E+02 -0.54293211766E+02  0.49698089416E+03  0.52029517306E+03  0.12500006588E+03 0.  0.
          2    1    1    2  501    0 -0.31847129705E+02  0.44701988904E+02  0.38020584223E+02  0.66768797406E+02  0.00000000000E+00 0. -1.
          1    1    1    2  502    0 -0.39876566792E+02  0.95912228618E+01  0.13131098686E+04  0.13137502270E+04  0.00000000000E+00 0. -1.
         22    1    3    3    0    0  0.75600060638E+02  0.15409082891E+02  0.33746161979E+03  0.34616925605E+03  0.00000000000E+00 0.  1.
         22    1    3    3    0    0 -0.38763641406E+01 -0.69702294657E+02  0.15951927436E+03  0.17412591700E+03  0.00000000000E+00 0.  1.
</event>
<event>
 7    1  0.5736319E-006  0.8314515E+02  0.7818608E-02  0.1384179E+00
          2   -1    0    0  502    0  0.00000000000E+00  0.00000000000E+00  0.91116297143E+03  0.91116297143E+03  0.00000000000E+00 0. -1.
          1   -1    0    0  501    0 -0.00000000000E+00 -0.00000000000E+00 -0.16267599847E+03  0.16267599847E+03  0.00000000000E+00 0. -1.
         25    2    1    2    0    0 -0.17142464555E+02 -0.66449537303E+02 -0.79223679459E+02  0.16313112937E+03  0.12500387548E+03 0.  0.
          2    1    1    2  501    0 -0.46096230240E+00  0.11143857777E+03  0.35401884768E+02  0.11692759532E+03  0.00000000000E+00 0. -1.
          1    1    1    2  502    0  0.17603426858E+02 -0.44989040468E+02  0.79230876764E+03  0.79378024521E+03  0.00000000000E+00 0. -1.
         22    1    3    3    0    0  0.31449158162E+02  0.18227128454E+02 -0.48844103417E+02  0.60885336489E+02  0.00000000000E+00 0.  1.
         22    1    3    3    0    0 -0.48591622717E+02 -0.84676665757E+02 -0.30379576043E+02  0.10224579288E+03  0.00000000000E+00 0.  1.
</event>
<event>
 7    1  0.5736319E-006  0.1485201E+03  0.7818608E-02  0.1245898E+00
          2   -1    0    0  502    0  0.00000000000E+00  0.00000000000E+00  0.44670237053E+03  0.44670237053E+03  0.00000000000E+00 0. -1.
          1   -1    0    0  501    0 -0.00000000000E+00 -0.00000000000E+00 -0.14642362696E+04  0.14642362696E+04  0.00000000000E+00 0. -1.
         25    2    1    2    0    0 -0.20095169202E+02 -0.14526732684E+03 -0.20552488319E+03  0.28172993497E+03  0.12499946631E+03 0.  0.
          2    1    1    2  501    0 -0.85897633718E+02  0.38807276421E+02 -0.12048975318E+04  0.12085786985E+04  0.00000000000E+00 0. -1.
          1    1    1    2  502    0  0.10599280292E+03  0.10646005042E+03  0.39288851592E+03  0.42063000671E+03  0.00000000000E+00 0. -1.
         22    1    3    3    0    0  0.22621262869E+02 -0.81556733358E+02 -0.18325753251E+03  0.20185773582E+03  0.00000000000E+00 0. -1.
         22    1    3    3    0    0 -0.42716432071E+02 -0.63710593479E+02 -0.22267350677E+02  0.79872199146E+02  0.00000000000E+00 0. -1.
</event>
<event>
 7    1  0.5736319E-006  0.1652869E+03  0.7818608E-02  0.1280422E+00
          2   -1    0    0  502    0  0.00000000000E+00  0.00000000000E+00  0.55317965875E+03  0.55317965875E+03  0.00000000000E+00 0. -1.
          1   -1    0    0  501    0 -0.00000000000E+00 -0.00000000000E+00 -0.69786958228E+03  0.69786958228E+03  0.00000000000E+00 0. -1.
         25    2    1    2    0    0 -0.53189657477E+02  0.20953561484E+03  0.10116953912E+03  0.26943357020E+03  0.12499943822E+03 0.  0.
          2    1    1    2  501    0  0.62702316635E+02 -0.14986063723E+03 -0.60038643776E+03  0.62197561507E+03  0.00000000000E+00 0. -1.
          1    1    1    2  502    0 -0.95126591583E+01 -0.59674977616E+02  0.35452697509E+03  0.35964005576E+03  0.00000000000E+00 0. -1.
         22    1    3    3    0    0 -0.79632986138E+01  0.20002958067E+03  0.64134972440E+02  0.21021070847E+03  0.00000000000E+00 0.  1.
         22    1    3    3    0    0 -0.45226358863E+02  0.95060341753E+01  0.37034566683E+02  0.59222861727E+02  0.00000000000E+00 0.  1.
</event>
<event>
 7    1  0.5736319E-006  0.2106538E+03  0.7818608E-02  0.1151655E+00
          2   -1    0    0  502    0  0.00000000000E+00  0.00000000000E+00  0.18820891142E+04  0.18820891142E+04  0.00000000000E+00 0. -1.
          1   -1    0    0  501    0 -0.00000000000E+00 -0.00000000000E+00 -0.12376583418E+03  0.12376583418E+03  0.00000000000E+00 0. -1.
         25    2    1    2    0    0  0.22232138119E+02  0.18902534582E+02  0.71710300120E+03  0.72849985591E+03  0.12499500776E+03 0.  0.
          2    1    1    2  501    0  0.11827103459E+03 -0.17585439225E+03 -0.31519251372E+01  0.21194985145E+03  0.00000000000E+00 0. -1.
          1    1    1    2  502    0 -0.14050317271E+03  0.15695185767E+03  0.10443722040E+04  0.10654052411E+04  0.00000000000E+00 0. -1.
         22    1    3    3    0    0  0.56487237356E+01  0.46260500935E+02  0.97439743026E+02  0.10801132139E+03  0.00000000000E+00 0.  1.
         22    1    3    3    0    0  0.16583414383E+02 -0.27357966352E+02  0.61966325817E+03  0.62048853453E+03  0.00000000000E+00 0.  1.
</event>
<event>
 7    1  0.5736319E-006  0.4304235E+02  0.7818608E-02  0.1596323E+00
          2   -1    0    0  502    0  0.00000000000E+00  0.00000000000E+00  0.79221876534E+02  0.79221876534E+02  0.00000000000E+00 0. -1.
          1   -1    0    0  501    0 -0.00000000000E+00 -0.00000000000E+00 -0.26401304748E+04  0.26401304748E+04  0.00000000000E+00 0. -1.
         25    2    1    2    0    0  0.23875673682E+02  0.55544287810E+02 -0.31183538408E+03  0.34135208010E+03  0.12499888047E+03 0.  0.
          2    1    1    2  501    0 -0.25423333565E+02 -0.34467283646E+02 -0.23116009049E+04  0.23119976390E+04  0.00000000000E+00 0. -1.
          1    1    1    2  502    0  0.15476598829E+01 -0.21077004164E+02  0.62527690681E+02  0.66002632202E+02  0.00000000000E+00 0. -1.
         22    1    3    3    0    0  0.59307794560E+02  0.76878504427E+02 -0.20652052533E+03  0.22820702513E+03  0.00000000000E+00 0.  1.
         22    1    3    3    0    0 -0.35432120877E+02 -0.21334216617E+02 -0.10531485875E+03  0.11314505496E+03  0.00000000000E+00 0.  1.
</event>
<event>
 7    1  0.5736319E-006  0.1222701E+03  0.7818608E-02  0.1291186E+00
          2   -1    0    0  502    0  0.00000000000E+00  0.00000000000E+00  0.49234591237E+03  0.49234591237E+03  0.00000000000E+00 0. -1.
          1   -1    0    0  501    0 -0.00000000000E+00 -0.00000000000E+00 -0.75803541824E+03  0.75803541824E+03  0.00000000000E+00 0. -1.
         25    2    1    2    0    0 -0.18400783288E+02  0.11184094548E+03 -0.33554012704E+03  0.37557842234E+03  0.12499995424E+03 0.  0.
          2    1    1    2  501    0 -0.54553069111E+02 -0.12301715697E+03 -0.38819028840E+03  0.41085393787E+03  0.00000000000E+00 0. -1.
          1    1    1    2  502    0  0.72953852399E+02  0.11176211493E+02  0.45804090958E+03  0.46394897039E+03  0.00000000000E+00 0. -1.
         22    1    3    3    0    0 -0.15701530491E+02 -0.10841815742E+02 -0.16152107878E+03  0.16264421883E+03  0.00000000000E+00 0.  1.
         22    1    3    3    0    0 -0.26992527974E+01  0.12268276122E+03 -0.17401904826E+03  0.21293420351E+03  0.00000000000E+00 0.  1.
</event>
<event>
 7    1  0.5736319E-006  0.5863315E+02  0.7818608E-02  0.1462376E+00
          2   -1    0    0  502    0  0.00000000000E+00  0.00000000000E+00  0.34821682799E+03  0.34821682799E+03  0.00000000000E+00 0. -1.
          1   -1    0    0  501    0 -0.00000000000E+00 -0.00000000000E+00 -0.17134483319E+03  0.17134483319E+03  0.00000000000E+00 0. -1.
         25    2    1    2    0    0 -0.62999550677E+02 -0.60662247249E+02  0.96253880656E+02  0.18038486142E+03  0.12500014825E+03 0.  0.
          2    1    1    2  501    0  0.12630177118E+02  0.35452242097E+02 -0.12262643765E+03  0.12827168843E+03  0.00000000000E+00 0. -1.
          1    1    1    2  502    0  0.50369373559E+02  0.25210005152E+02  0.20324455179E+03  0.21090511133E+03  0.00000000000E+00 0. -1.
         22    1    3    3    0    0 -0.29494860001E+02 -0.10297425138E+02 -0.28150826148E+02  0.42052975445E+02  0.00000000000E+00 0.  1.
         22    1    3    3    0    0 -0.33504690676E+02 -0.50364822111E+02  0.12440470680E+03  0.13833188598E+03  0.00000000000E+00 0.  1.
</event>
<event>
 7    1  0.5736319E-006  0.1276600E+03  0.7818608E-02  0.1277685E+00
          2   -1    0    0  502    0  0.00000000000E+00  0.00000000000E+00  0.15460865410E+04  0.15460865410E+04  0.00000000000E+00 0. -1.
          1   -1    0    0  501    0 -0.00000000000E+00 -0.00000000000E+00 -0.42625168147E+02  0.42625168147E+02  0.00000000000E+00 0. -1.
         25    2    1    2    0    0  0.63633054168E+02 -0.64883907390E+02  0.71519435107E+03  0.73170178237E+03  0.12500180600E+03 0.  0.
          2    1    1    2  501    0  0.64422621506E+02 -0.47947594819E+02  0.40364653524E+02  0.89880761372E+02  0.00000000000E+00 0. -1.
          1    1    1    2  502    0 -0.12805567567E+03  0.11283150221E+03  0.74790236826E+03  0.76712916541E+03  0.00000000000E+00 0. -1.
         22    1    3    3    0    0  0.43940262730E+01 -0.84712486673E+02  0.51647897621E+03  0.52339855343E+03  0.00000000000E+00 0.  1.
         22    1    3    3    0    0  0.59239027895E+02  0.19828579283E+02  0.19871537486E+03  0.20830322894E+03  0.00000000000E+00 0.  1.
</event>
<event>
 7    1  0.5736319E-006  0.5919353E+02  0.7818608E-02  0.1498971E+00
          2   -1    0    0  502    0  0.00000000000E+00  0.00000000000E+00  0.11980627956E+04  0.11980627956E+04  0.00000000000E+00 0. -1.
          1   -1    0    0  501    0 -0.00000000000E+00 -0.00000000000E+00 -0.50443168202E+02  0.50443168202E+02  0.00000000000E+00 0. -1.
         25    2    1    2    0    0  0.81823683272E+02  0.21461178750E+02  0.48310872629E+03  0.50614319628E+03  0.12502478308E+03 0.  0.
          2    1    1    2  501    0 -0.28752668479E+02 -0.15203436903E+01 -0.32287978392E+02  0.43261309946E+02  0.00000000000E+00 0. -1.
          1    1    1    2  502    0 -0.53071014793E+02 -0.19940835060E+02  0.69679887954E+03  0.69910145762E+03  0.00000000000E+00 0. -1.
         22    1    3    3    0    0  0.10367227597E+02  0.19223986990E+02  0.45962397761E+01  0.22319643902E+02  0.00000000000E+00 0.  1.
         22    1    3    3    0    0  0.71456455675E+02  0.22371917608E+01  0.47851248651E+03  0.48382355237E+03  0.00000000000E+00 0.  1.
</event>
<event>
 7    1  0.5736319E-006  0.5148205E+02  0.7818608E-02  0.1456302E+00
          2   -1    0    0  502    0  0.00000000000E+00  0.00000000000E+00  0.17390871972E+04  0.17390871972E+04  0.00000000000E+00 0. -1.
          1   -1    0    0  501    0 -0.00000000000E+00 -0.00000000000E+00 -0.11414973840E+03  0.11414973840E+03  0.00000000000E+00 0. -1.
         25    2    1    2    0    0  0.40618416350E+02  0.44520578844E+02  0.61248948509E+03  0.62801133398E+03  0.12499171400E+03 0.  0.
          2    1    1    2  501    0 -0.51569438687E+02 -0.10818084635E+01 -0.99659232415E+02  0.11221648685E+03  0.00000000000E+00 0. -1.
          1    1    1    2  502    0  0.10951022337E+02 -0.43438770381E+02  0.11121072061E+04  0.11130091148E+04  0.00000000000E+00 0. -1.
         22    1    3    3    0    0  0.38873191624E+02  0.76574992433E+02  0.25476855604E+03  0.26885288104E+03  0.00000000000E+00 0. -1.
         22    1    3    3    0    0  0.17452247264E+01 -0.32054413589E+02  0.35772092905E+03  0.35915845294E+03  0.00000000000E+00 0. -1.
</event>
<event>
 7    1  0.5736319E-006  0.2110199E+03  0.7818608E-02  0.1317682E+00
          2   -1    0    0  502    0  0.00000000000E+00  0.00000000000E+00  0.19558856191E+04  0.19558856191E+04  0.00000000000E+00 0. -1.
          1   -1    0    0  501    0 -0.00000000000E+00 -0.00000000000E+00 -0.10292384507E+03  0.10292384507E+03  0.00000000000E+00 0. -1.
         25    2    1    2    0    0  0.17844079827E+03  0.42579469991E+02  0.18820265161E+03  0.29103095185E+03  0.12499858845E+03 0.  0.
          2    1    1    2  501    0  0.33053990972E+02 -0.57697318022E+01 -0.38485450201E+02  0.51058652562E+02  0.00000000000E+00 0. -1.
          1    1    1    2  502    0 -0.21149478924E+03 -0.36809738189E+02  0.17032445726E+04  0.17167198597E+04  0.00000000000E+00 0. -1.
         22    1    3    3    0    0  0.12785295369E+03  0.17807687208E+02  0.19545852159E+03  0.23423818039E+03  0.00000000000E+00 0. -1.
         22    1    3    3    0    0  0.50587844577E+02  0.24771782783E+02 -0.72558699825E+01  0.56792771463E+02  0.00000000000E+00 0. -1.
</event>
<event>
 7    1  0.5736319E-006  0.1192755E+03  0.7818608E-02  0.1266088E+00
          2   -1    0    0  502    0  0.00000000000E+00  0.00000000000E+00  0.46886660294E+03  0.46886660294E+03  0.00000000000E+00 0. -1.
          1   -1    0    0  501    0 -0.00000000000E+00 -0.00000000000E+00 -0.42220701580E+03  0.42220701580E+03  0.00000000000E+00 0. -1.
         25    2    1    2    0    0 -0.11009476292E+03 -0.86905972692E+01 -0.14303912496E+03  0.21973128432E+03  0.12500105094E+03 0.  0.
          2    1    1    2  501    0  0.88816150404E+02  0.10242486280E+03 -0.21566632225E+03  0.25473736209E+03  0.00000000000E+00 0. -1.
          1    1    1    2  502    0  0.21278612516E+02 -0.93734265531E+02  0.40536503435E+03  0.41660497232E+03  0.00000000000E+00 0. -1.
         22    1    3    3    0    0 -0.89633161131E+02  0.30593557654E+02 -0.31650415085E+02  0.99858991179E+02  0.00000000000E+00 0. -1.
         22    1    3    3    0    0 -0.20461601789E+02 -0.39284154924E+02 -0.11138870988E+03  0.11987229314E+03  0.00000000000E+00 0. -1.
</event>
<event>
 7    1  0.5736319E-006  0.3912262E+02  0.7818608E-02  0.1583146E+00
          2   -1    0    0  502    0  0.00000000000E+00  0.00000000000E+00  0.45436922834E+03  0.45436922834E+03  0.00000000000E+00 0. -1.
          1   -1    0    0  501    0 -0.00000000000E+00 -0.00000000000E+00 -0.17206827995E+04  0.17206827995E+04  0.00000000000E+00 0. -1.
         25    2    1    2    0    0 -0.40465259461E+02 -0.10961401068E+02 -0.46706833274E+02  0.13986902649E+03  0.12499690700E+03 0.  0.
          2    1    1    2  501    0  0.15895015798E+02 -0.19549788720E+02 -0.16263562379E+04  0.16265514004E+04  0.00000000000E+00 0. -1.
          1    1    1    2  502    0  0.24570243663E+02  0.30511189789E+02  0.40674949996E+03  0.40863160095E+03  0.00000000000E+00 0. -1.
         22    1    3    3    0    0  0.45048234856E+02 -0.79251170699E+01 -0.10340189841E+02  0.46894247730E+02  0.00000000000E+00 0. -1.
         22    1    3    3    0    0 -0.85513494317E+02 -0.30362839984E+01 -0.36366643433E+02  0.92974778760E+02  0.00000000000E+00 0. -1.
</event>
<event>
 7    1  0.5736319E-006  0.6848622E+02  0.7818608E-02  0.1378914E+00
          2   -1    0    0  502    0  0.00000000000E+00  0.00000000000E+00  0.17906160341E+04  0.17906160341E+04  0.00000000000E+00 0. -1.
          1   -1    0    0  501    0 -0.00000000000E+00 -0.00000000000E+00 -0.20870268954E+03  0.20870268954E+03  0.00000000000E+00 0. -1.
         25    2    1    2    0    0  0.85309229031E+02 -0.90977731078E+02  0.47154786683E+03  0.50352734202E+03  0.12501112487E+03 0.  0.
          2    1    1    2  501    0 -0.57086183783E+02  0.36653671984E+02 -0.18599773002E+03  0.19798353371E+03  0.00000000000E+00 0. -1.
          1    1    1    2  502    0 -0.28223045248E+02  0.54324059093E+02  0.12963632077E+04  0.12978078479E+04  0.00000000000E+00 0. -1.
         22    1    3    3    0    0  0.41553085180E+02  0.79279596840E+00  0.30914315761E+03  0.31192431664E+03  0.00000000000E+00 0.  1.
         22    1    3    3    0    0  0.43756143851E+02 -0.91770527046E+02  0.16240470922E+03  0.19160302539E+03  0.00000000000E+00 0.  1.
</event>
<event>
 7    1  0.5736319E-006  0.5654029E+02  0.7818608E-02  0.1532538E+00
          2   -1    0    0  502    0  0.00000000000E+00  0.00000000000E+00  0.33189825623E+04  0.33189825623E+04  0.00000000000E+00 0. -1.
          1   -1    0    0  501    0 -0.00000000000E+00 -0.00000000000E+00 -0.35688011484E+02  0.35688011484E+02  0.00000000000E+00 0. -1.
         25    2    1    2    0    0 -0.17332187927E+02  0.30088998908E+02  0.20376191144E+04  0.20417449079E+04  0.12499944291E+03 0.  0.
          2    1    1    2  501    0  0.38204008841E+02 -0.42041742136E+02 -0.94345129549E+01  0.57585279439E+02  0.00000000000E+00 0. -1.
          1    1    1    2  502    0 -0.20871820914E+02  0.11952743228E+02  0.12551099494E+04  0.12553403865E+04  0.00000000000E+00 0. -1.
         22    1    3    3    0    0 -0.40809580029E+02  0.53255511708E+01  0.18810599620E+04  0.18815101286E+04  0.00000000000E+00 0. -1.
         22    1    3    3    0    0  0.23477392102E+02  0.24763447737E+02  0.15655915241E+03  0.16023477927E+03  0.00000000000E+00 0. -1.
</event>
<event>
 7    1  0.5736319E-006  0.3593927E+02  0.7818608E-02  0.1629816E+00
          2   -1    0    0  502    0  0.00000000000E+00  0.00000000000E+00  0.46510378455E+03  0.46510378455E+03  0.00000000000E+00 0. -1.
          1   -1    0    0  501    0 -0.00000000000E+00 -0.00000000000E+00 -0.18863321773E+04  0.18863321773E+04  0.00000000000E+00 0. -1.
         25    2    1    2    0    0 -0.33577231315E+02 -0.15473651115E+02 -0.70969565417E+03  0.72156942159E+03  0.12501057667E+03 0.  0.
          2    1    1    2  501    0 -0.19900669535E+01  0.20664795224E+02 -0.11699039678E+04  0.11700881539E+04  0.00000000000E+00 0. -1.
          1    1    1    2  502    0  0.35567298269E+02 -0.51911441095E+01  0.45837122926E+03  0.45977838628E+03  0.00000000000E+00 0. -1.
         22    1    3    3    0    0 -0.35359831076E+02  0.50157931479E+02 -0.42455854740E+03  0.42897097328E+03  0.00000000000E+00 0.  1.
         22    1    3    3    0    0  0.17825997608E+01 -0.65631582594E+02 -0.28513710677E+03  0.29259844831E+03  0.00000000000E+00 0.  1.
</event>
<event>
 7    1  0.5736319E-006  0.9095957E+02  0.7818608E-02  0.1384158E+00
          2   -1    0    0  502    0  0.00000000000E+00  0.00000000000E+00  0.81387605336E+03  0.81387605336E+03  0.00000000000E+00 0. -1.
          1   -1    0    0  501    0 -0.00000000000E+00 -0.00000000000E+00 -0.85728055310E+03  0.85728055310E+03  0.00000000000E+00 0. -1.
         25    2    1    2    0    0  0.66365240825E+02  0.65121186561E+02 -0.63912046820E+03  0.65783338467E+03  0.12499869996E+03 0.  0.
          2    1    1    2  501    0  0.20789455151E+02 -0.38968620880E+02 -0.20385824937E+03  0.20858796872E+03  0.00000000000E+00 0. -1.
          1    1    1    2  502    0 -0.87154695976E+02 -0.26152565681E+02  0.79957421783E+03  0.80473525307E+03  0.00000000000E+00 0. -1.
         22    1    3    3    0    0  0.91459256456E+02  0.81301132757E+02 -0.44875258828E+03  0.46513821093E+03  0.00000000000E+00 0.  1.
         22    1    3    3    0    0 -0.25094015631E+02 -0.16179946196E+02 -0.19036787992E+03  0.19269517374E+03  0.00000000000E+00 0.  1.
</event>
<event>
 7    1  0.5736319E-006  0.8161528E+02  0.7818608E-02  0.1337524E+00
          2   -1    0    0  502    0  0.00000000000E+00  0.00000000000E+00  0.54428056105E+03  0.54428056105E+03  0.00000000000E+00 0. -1.
          1   -1    0    0  501    0 -0.00000000000E+00 -0.00000000000E+00 -0.18188565610E+03  0.18188565610E+03  0.00000000000E+00 0. -1.
         25    2    1    2    0    0 -0.33388508575E+02 -0.13020351240E+02  0.16289938625E+03  0.20845619246E+03  0.12503380377E+03 0.  0.
          2    1    1    2  501    0  0.16719606081E+02  0.83899026485E+02 -0.14350318285E+03  0.16706811593E+03  0.00000000000E+00 0. -1.
          1    1    1    2  502    0  0.16668902494E+02 -0.70878675245E+02  0.34299870155E+03  0.35064190876E+03  0.00000000000E+00 0. -1.
         22    1    3    3    0    0  0.14630859729E+02 -0.10150417590E+02  0.15921777230E+03  0.16021046174E+03  0.00000000000E+00 0.  1.
         22    1    3    3    0    0 -0.48019368305E+02 -0.28699336504E+01  0.36816139443E+01  0.48245730721E+02  0.00000000000E+00 0.  1.
</event>
<event>
 7    1  0.5736319E-006  0.8089968E+02  0.7818608E-02  0.1345153E+00
          2   -1    0    0  502    0  0.00000000000E+00  0.00000000000E+00  0.58366707280E+02  0.58366707280E+02  0.00000000000E+00 0. -1.
          1   -1    0    0  501    0 -0.00000000000E+00 -0.00000000000E+00 -0.10357038635E+04  0.10357038635E+04  0.00000000000E+00 0. -1.
         25    2    1    2    0    0  0.36825069297E+02  0.78908200259E+01 -0.24987003214E+03  0.28191098573E+03  0.12498167924E+03 0.  0.
          2    1    1    2  501    0  0.14635524433E+02  0.67192719508E+02 -0.71727586565E+03  0.72056486701E+03  0.00000000000E+00 0. -1.
          1    1    1    2  502    0 -0.51460593729E+02 -0.75083539534E+02 -0.10191258383E+02  0.91594717989E+02  0.00000000000E+00 0. -1.
         22    1    3    3    0    0  0.49235649270E+01 -0.49344222031E+02 -0.17744302621E+03  0.18424201825E+03  0.00000000000E+00 0. -1.
         22    1    3    3    0    0  0.31901504370E+02  0.57235042057E+02 -0.72427005928E+02  0.97668967477E+02  0.00000000000E+00 0. -1.
</event>
<event>
 7    1  0.5736319E-006  0.5238927E+02  0.7818608E-02  0.1502703E+00
          2   -1    0    0  502    0  0.00000000000E+00  0.00000000000E+00  0.28356222694E+03  0.28356222694E+03  0.00000000000E+00 0. -1.
          1   -1    0    0  501    0 -0.00000000000E+00 -0.00000000000E+00 -0.15711762437E+03  0.15711762437E+03  0.00000000000E+00 0. -1.
         25    2    1    2    0    0  0.13179208718E+02  0.45325555642E+02 -0.54405426386E+02  0.14426931245E+03  0.12500234621E+03 0.  0.
          2    1    1    2  501    0 -0.43339453610E+02 -0.35534057425E+02 -0.42803460039E+02  0.70520306775E+02  0.00000000000E+00 0. -1.
          1    1    1    2  502    0  0.30160244892E+02 -0.97914982163E+01  0.22365348899E+03  0.22589023208E+03  0.00000000000E+00 0. -1.
         22    1    3    3    0    0  0.87272310627E+01  0.45991766524E+01  0.40084191904E+02  0.41280254704E+02  0.00000000000E+00 0. -1.
         22    1    3    3    0    0  0.44519776550E+01  0.40726378989E+02 -0.94489618289E+02  0.10298905774E+03  0.00000000000E+00 0. -1.
</event>
<event>
 7    1  0.5736319E-006  0.5630213E+02  0.7818608E-02  0.1429788E+00
          2   -1    0    0  502    0  0.00000000000E+00  0.00000000000E+00  0.19612396932E+03  0.19612396932E+03  0.00000000000E+00 0. -1.
          1   -1    0    0  501    0 -0.00000000000E+00 -0.00000000000E+00 -0.86953582728E+02  0.86953582728E+02  0.00000000000E+00 0. -1.
         25    2    1    2    0    0 -0.15762604320E+02 -0.19264311530E+01  0.78805063649E+02  0.14861539264E+03  0.12499650411E+03 0.  0.
          2    1    1    2  501    0  0.64135195784E+02  0.14163849590E+02 -0.14611766206E+02  0.67286266690E+02  0.00000000000E+00 0. -1.
          1    1    1    2  502    0 -0.48372591463E+02 -0.12237418436E+02  0.44977089154E+02  0.67175892727E+02  0.00000000000E+00 0. -1.
         22    1    3    3    0    0  0.36354218233E+01 -0.27074673364E+02  0.10434394212E+03  0.10786061601E+03  0.00000000000E+00 0.  1.
         22    1    3    3    0    0 -0.19398026144E+02  0.25148242210E+02 -0.25538878467E+02  0.40754776626E+02  0.00000000000E+00 0.  1.
</event>
<event>
 7    1  0.5736319E-006  0.3963052E+03  0.7818608E-02  0.1147214E+00
          2   -1    0    0  502    0  0.00000000000E+00  0.00000000000E+00  0.15490865955E+04  0.15490865955E+04  0.00000000000E+00 0. -1.
          1   -1    0    0  501    0 -0.00000000000E+00 -0.00000000000E+00 -0.21775934584E+04  0.21775934584E+04  0.00000000000E+00 0. -1.
         25    2    1    2    0    0  0.10666382329E+03  0.40703738558E+03 -0.43480304049E+03  0.61784659779E+03  0.12499651965E+03 0.  0.
          2    1    1    2  501    0 -0.10338259708E+03 -0.11371806991E+02 -0.16227197510E+04  0.16260494056E+04  0.00000000000E+00 0. -1.
          1    1    1    2  502    0 -0.32812262049E+01 -0.39566557859E+03  0.14290159285E+04  0.14827840506E+04  0.00000000000E+00 0. -1.
         22    1    3    3    0    0  0.12687698717E+03  0.33271970280E+03 -0.31498861119E+03  0.47541349969E+03  0.00000000000E+00 0. -1.
         22    1    3    3    0    0 -0.20213163879E+02  0.74317682779E+02 -0.11981442930E+03  0.14243309810E+03  0.00000000000E+00 0. -1.
</event>
<event>
 7    1  0.5736319E-006  0.4600165E+02  0.7818608E-02  0.1474595E+00
          2   -1    0    0  502    0  0.00000000000E+00  0.00000000000E+00  0.60160308503E+03  0.60160308503E+03  0.00000000000E+00 0. -1.
          1   -1    0    0  501    0 -0.00000000000E+00 -0.00000000000E+00 -0.21563935609E+03  0.21563935609E+03  0.00000000000E+00 0. -1.
         25    2    1    2    0    0 -0.63990303520E+01 -0.38748418896E+02 -0.14251080600E+02  0.13179791629E+03  0.12500083954E+03 0.  0.
          2    1    1    2  501    0 -0.37296107500E+02  0.23233690610E+02 -0.13820997059E+03  0.14502689400E+03  0.00000000000E+00 0. -1.
          1    1    1    2  502    0  0.43695137852E+02  0.15514728286E+02  0.53842478013E+03  0.54041763084E+03  0.00000000000E+00 0. -1.
         22    1    3    3    0    0  0.21713796648E+02 -0.76016477962E+02 -0.26769651425E+02  0.83466209475E+02  0.00000000000E+00 0.  1.
         22    1    3    3    0    0 -0.28112827000E+02  0.37268059066E+02  0.12518570825E+02  0.48331706818E+02  0.00000000000E+00 0.  1.
</event>
<event>
 7    1  0.5736319E-006  0.2177040E+03  0.7818608E-02  0.1367946E+00
          2   -1    0    0  502    0  0.00000000000E+00  0.00000000000E+00  0.12490888108E+04  0.12490888108E+04  0.00000000000E+00 0. -1.
          1   -1    0    0  501    0 -0.00000000000E+00 -0.00000000000E+00 -0.93303253251E+03  0.93303253251E+03  0.00000000000E+00 0. -1.
         25    2    1    2    0    0  0.15914313978E+03  0.16327775817E+03 -0.16651928097E+03  0.30877095957E+03  0.12499867716E+03 0.  0.
          2    1    1    2  501    0  0.47077251887E+01 -0.20546295167E+02 -0.68520255642E+03  0.68552669988E+03  0.00000000000E+00 0. -1.
          1    1    1    2  502    0 -0.16385086496E+03 -0.14273146300E+03  0.11677781157E+04  0.11878236839E+04  0.00000000000E+00 0. -1.
         22    1    3    3    0    0  0.58701443062E+02  0.11820139989E+03 -0.14595383536E+03  0.19677386110E+03  0.00000000000E+00 0. -1.
         22    1    3    3    0    0  0.10044169671E+03  0.45076358284E+02 -0.20565445601E+02  0.11199709848E+03  0.00000000000E+00 0. -1.
</event>
<event>
 7    1  0.5736319E-006  0.1478798E+03  0.7818608E-02  0.1306855E+00
          2   -1    0    0  502    0  0.00000000000E+00  0.00000000000E+00  0.11835233115E+04  0.11835233115E+04  0.00000000000E+00 0. -1.
          1   -1    0    0  501    0 -0.00000000000E+00 -0.00000000000E+00 -0.19683220104E+03  0.19683220104E+03  0.00000000000E+00 0. -1.
         25    2    1    2    0    0  0.95322004507E+02 -0.66847123958E+02 -0.16813118262E+02  0.17161706802E+03  0.12495965176E+03 0.  0.
          2    1    1    2  501    0 -0.47790235564E+01 -0.52587995560E+02 -0.90358101020E+02  0.10465621225E+03  0.00000000000E+00 0. -1.
          1    1    1    2  502    0 -0.90542980950E+02  0.11943511952E+03  0.10938623297E+04  0.11040822322E+04  0.00000000000E+00 0. -1.
         22    1    3    3    0    0  0.95948707269E+02 -0.82946684143E+02 -0.48724498470E+02  0.13586899421E+03  0.00000000000E+00 0.  1.
         22    1    3    3    0    0 -0.62670276239E+00  0.16099560185E+02  0.31911380208E+02  0.35748073812E+02  0.00000000000E+00 0.  1.
</event>
<event>
 7    1  0.5736319E-006  0.5934311E+02  0.7818608E-02  0.1423631E+00
          2   -1    0    0  502    0  0.00000000000E+00  0.00000000000E+00  0.12873912109E+04  0.12873912109E+04  0.00000000000E+00 0. -1.
          1   -1    0    0  501    0 -0.00000000000E+00 -0.00000000000E+00 -0.47646470899E+03  0.47646470899E+03  0.00000000000E+00 0. -1.
         25    2    1    2    0    0 -0.37545694902E+02 -0.25646891232E+01  0.47080917559E+02  0.13877571637E+03  0.12500331923E+03 0.  0.
          2    1    1    2  501    0  0.30808601995E+02  0.51717625557E+02 -0.42799481811E+03  0.43220764348E+03  0.00000000000E+00 0. -1.
          1    1    1    2  502    0  0.67370929069E+01 -0.49152936434E+02  0.11918404025E+04  0.11928725601E+04  0.00000000000E+00 0. -1.
         22    1    3    3    0    0 -0.54001435467E+02  0.49617319916E+02  0.40197092078E+02  0.83629179595E+02  0.00000000000E+00 0.  1.
         22    1    3    3    0    0  0.16455740565E+02 -0.52182009040E+02  0.68838254811E+01  0.55146536774E+02  0.00000000000E+00 0.  1.
</event>
<event>
 7    1  0.5736319E-006  0.1741842E+03  0.7818608E-02  0.1306581E+00
          2   -1    0    0  502    0  0.00000000000E+00  0.00000000000E+00  0.95420628775E+03  0.95420628775E+03  0.00000000000E+00 0. -1.
          1   -1    0    0  501    0 -0.00000000000E+00 -0.00000000000E+00 -0.34849143215E+03  0.34849143215E+03  0.00000000000E+00 0. -1.
         25    2    1    2    0    0 -0.18814739197E+03 -0.87468479908E+02 -0.17208374787E+02  0.24284408106E+03  0.12500777361E+03 0.  0.
          2    1    1    2  501    0  0.15482177000E+03  0.57314747027E+02 -0.18656373407E+03  0.24912002642E+03  0.00000000000E+00 0. -1.
          1    1    1    2  502    0  0.33325621966E+02  0.30153732881E+02  0.80948696445E+03  0.81073361242E+03  0.00000000000E+00 0. -1.
         22    1    3    3    0    0 -0.12737990270E+03 -0.59373486480E+02 -0.70542805050E+02  0.15724864977E+03  0.00000000000E+00 0.  1.
         22    1    3    3    0    0 -0.60767489264E+02 -0.28094993428E+02  0.53334430263E+02  0.85595431295E+02  0.00000000000E+00 0.  1.
</event>
<event>
 7    1  0.5736319E-006  0.1956174E+03  0.7818608E-02  0.1187528E+00
          2   -1    0    0  502    0  0.00000000000E+00  0.00000000000E+00  0.10188482624E+04  0.10188482624E+04  0.00000000000E+00 0. -1.
          1   -1    0    0  501    0 -0.00000000000E+00 -0.00000000000E+00 -0.50995589146E+03  0.50995589146E+03  0.00000000000E+00 0. -1.
         25    2    1    2    0    0  0.27794695473E+03 -0.42159075005E+01  0.26936240552E+03  0.40676070172E+03  0.12500351772E+03 0.  0.
          2    1    1    2  501    0 -0.10861092326E+03  0.76022857453E+02 -0.41839251640E+03  0.43889418461E+03  0.00000000000E+00 0. -1.
          1    1    1    2  502    0 -0.16933603147E+03 -0.71806949953E+02  0.65792248179E+03  0.68314926748E+03  0.00000000000E+00 0. -1.
         22    1    3    3    0    0  0.18903057866E+03 -0.39933957429E+00  0.25372325207E+03  0.31639881129E+03  0.00000000000E+00 0. -1.
         22    1    3    3    0    0  0.88916376064E+02 -0.38165679262E+01  0.15639153449E+02  0.90361890439E+02  0.00000000000E+00 0. -1.
</event>
<event>
 7    1  0.5736319E-006  0.7516639E+02  0.7818608E-02  0.1479561E+00
          2   -1    0    0  502    0  0.00000000000E+00  0.00000000000E+00  0.11227383856E+04  0.11227383856E+04  0.00000000000E+00 0. -1.
          1   -1    0    0  501    0 -0.00000000000E+00 -0.00000000000E+00 -0.17459074230E+03  0.17459074230E+03  0.00000000000E+00 0. -1.
         25    2    1    2    0    0  0.93375273771E+02  0.14669175354E+02  0.57305078064E+03  0.59409245779E+03  0.12499809899E+03 0.  0.
          2    1    1    2  501    0 -0.22387578963E+02 -0.13144260515E+02 -0.16068587038E+03  0.16276954327E+03  0.00000000000E+00 0. -1.
          1    1    1    2  502    0 -0.70987694808E+02 -0.15249148391E+01  0.53578273301E+03  0.54046712682E+03  0.00000000000E+00 0. -1.
         22    1    3    3    0    0  0.36734595877E+02  0.63223326683E+02  0.38311716463E+03  0.39003253891E+03  0.00000000000E+00 0. -1.
         22    1    3    3    0    0  0.56640677895E+02 -0.48554151329E+02  0.18993361601E+03  0.20405991888E+03  0.00000000000E+00 0. -1.
</event>
<event>
 7    1  0.5736319E-006  0.1050811E+03  0.7818608E-02  0.1346752E+00
          2   -1    0    0  502    0  0.00000000000E+00  0.00000000000E+00  0.35983254032E+03  0.35983254032E+03  0.00000000000E+00 0. -1.
          1   -1    0    0  501    0 -0.00000000000E+00 -0.00000000000E+00 -0.14137375603E+04  0.14137375603E+04  0.00000000000E+00 0. -1.
         25    2    1    2    0    0  0.15180868949E+03 -0.61083180066E+01 -0.39946270457E+02  0.20075628521E+03  0.12499676706E+03 0.  0.
          2    1    1    2  501    0 -0.10176390220E+03  0.21026662224E+02 -0.12888369088E+04  0.12930191761E+04  0.00000000000E+00 0. -1.
          1    1    1    2  502    0 -0.50044787289E+02 -0.14918344217E+02  0.27487815928E+03  0.27979463929E+03  0.00000000000E+00 0. -1.
         22    1    3    3    0    0  0.16695041167E+03  0.67802601614E+01 -0.13449779069E+02  0.16762848339E+03  0.00000000000E+00 0.  1.
         22    1    3    3    0    0 -0.15141722185E+02 -0.12888578168E+02 -0.26496491388E+02  0.33127801825E+02  0.00000000000E+00 0.  1.
</event>
<event>
 7    1  0.5736319E-006  0.5292928E+02  0.7818608E-02  0.1544655E+00
          2   -1    0    0  502    0  0.00000000000E+00  0.00000000000E+00  0.70754308676E+03  0.70754308676E+03  0.00000000000E+00 0. -1.
          1   -1    0    0  501    0 -0.00000000000E+00 -0.00000000000E+00 -0.16777557750E+03  0.16777557750E+03  0.00000000000E+00 0. -1.
         25    2    1    2    0    0  0.41366105741E+02  0.10514313367E+02 -0.26496359725E+02  0.13471454411E+03  0.12499698327E+03 0.  0.
          2    1    1    2  501    0 -0.75157136980E+00  0.23728849386E+02 -0.84450911502E+02  0.87724452727E+02  0.00000000000E+00 0. -1.
          1    1    1    2  502    0 -0.40614534371E+02 -0.34243162753E+02  0.65071478049E+03  0.65287966743E+03  0.00000000000E+00 0. -1.
         22    1    3    3    0    0  0.65220912469E+02  0.34239968340E+02 -0.53937381296E+02  0.91298323951E+02  0.00000000000E+00 0.  1.
         22    1    3    3    0    0 -0.23854806727E+02 -0.23725654973E+02  0.27441021571E+02  0.43416220158E+02  0.00000000000E+00 0.  1.
</event>
<event>
 7    1  0.5736319E-006  0.4041754E+02  0.7818608E-02  0.1523650E+00
          2   -1    0    0  502    0  0.00000000000E+00  0.00000000000E+00  0.13271261895E+04  0.13271261895E+04  0.00000000000E+00 0. -1.
          1   -1    0    0  501    0 -0.00000000000E+00 -0.00000000000E+00 -0.39310986529E+03  0.39310986529E+03  0.00000000000E+00 0. -1.
         25    2    1    2    0    0  0.24943189714E+02  0.66892508493E+02  0.10476966670E+03  0.17803994053E+03  0.12499906783E+03 0.  0.
          2    1    1    2  501    0 -0.12862062862E+01 -0.40178081252E+02 -0.35507187543E+03  0.35734013105E+03  0.00000000000E+00 0. -1.
          1    1    1    2  502    0 -0.23656983427E+02 -0.26714427241E+02  0.11843185329E+04  0.11848559832E+04  0.00000000000E+00 0. -1.
         22    1    3    3    0    0  0.20790886305E+02  0.69702058261E+02 -0.41291480430E+00  0.72737943179E+02  0.00000000000E+00 0. -1.
         22    1    3    3    0    0  0.41523034083E+01 -0.28095497682E+01  0.10518258151E+03  0.10530199735E+03  0.00000000000E+00 0. -1.
</event>
<event>
 7    1  0.5736319E-006  0.2436899E+03  0.7818608E-02  0.1293193E+00
          2   -1    0    0  502    0  0.00000000000E+00  0.00000000000E+00  0.17245625169E+04  0.17245625169E+04  0.00000000000E+00 0. -1.
          1   -1    0    0  501    0 -0.00000000000E+00 -0.00000000000E+00 -0.17408822914E+04  0.17408822914E+04  0.00000000000E+00 0. -1.
         25    2    1    2    0    0 -0.21477519145E+03  0.14589689647E+02  0.15555497666E+03  0.29353216087E+03  0.12499014678E+03 0.  0.
          2    1    1    2  501    0 -0.33203774705E+02 -0.14778390879E+02 -0.16614448042E+04  0.16618422696E+04  0.00000000000E+00 0. -1.
          1    1    1    2  502    0  0.24797896616E+03  0.18870123228E+00  0.14895700530E+04  0.15100703779E+04  0.00000000000E+00 0. -1.
         22    1    3    3    0    0 -0.12654982656E+03  0.51491833841E+02  0.37645562547E+02  0.14171611035E+03  0.00000000000E+00 0.  1.
         22    1    3    3    0    0 -0.88225364895E+02 -0.36902144194E+02  0.11790941412E+03  0.15181605052E+03  0.00000000000E+00 0.  1.
</event>
<event>
 7    1  0.5736319E-006  0.8448817E+02  0.7818608E-02  0.1330880E+00
          2   -1    0    0  502    0  0.00000000000E+00  0.00000000000E+00  0.95270790217E+03  0.95270790217E+03  0.00000000000E+00 0. -1.
          1   -1    0    0  501    0 -0.00000000000E+00 -0.00000000000E+00 -0.13409980619E+04  0.13409980619E+04  0.00000000000E+00 0. -1.
         25    2    1    2    0    0  0.14357303233E+03  0.67878398944E+02  0.52953582169E+03  0.56679366372E+03  0.12500471242E+03 0.  0.
          2    1    1    2  501    0 -0.76930226405E+02 -0.34484382191E+02 -0.13175767001E+04  0.13202711059E+04  0.00000000000E+00 0. -1.
          1    1    1    2  502    0 -0.66642805925E+02 -0.33394016753E+02  0.39975071870E+03  0.40664119447E+03  0.00000000000E+00 0. -1.
         22    1    3    3    0    0  0.93038852345E+02  0.98668801215E+02  0.43122312633E+03  0.45204551216E+03  0.00000000000E+00 0.  1.
         22    1    3    3    0    0  0.50534179985E+02 -0.30790402271E+02  0.98312695358E+02  0.11474815156E+03  0.00000000000E+00 0.  1.
</event>
<event>
 7    1  0.5736319E-006  0.7100373E+02  0.7818608E-02  0.1460758E+00
          2   -1    0    0  502    0  0.00000000000E+00  0.00000000000E+00  0.20864233323E+04  0.20864233323E+04  0.00000000000E+00 0. -1.
          1   -1    0    0  501    0 -0.00000000000E+00 -0.00000000000E+00 -0.78782101622E+02  0.78782101622E+02  0.00000000000E+00 0. -1.
         25    2    1    2    0    0 -0.42184656423E+02  0.15358641650E+02  0.14969160274E+03  0.20011986822E+03  0.12499981045E+03 0.  0.
          2    1    1    2  501    0  0.65637338575E+02 -0.36304438291E+02 -0.27114784231E+02  0.79758911594E+02  0.00000000000E+00 0. -1.
          1    1    1    2  502    0 -0.23452682152E+02  0.20945796641E+02  0.18850644121E+04  0.18853266541E+04  0.00000000000E+00 0. -1.
         22    1    3    3    0    0 -0.32566839319E+02 -0.36018675975E+02  0.81533249261E+01  0.49238407261E+02  0.00000000000E+00 0.  1.
         22    1    3    3    0    0 -0.96178171031E+01  0.51377317625E+02  0.14153827782E+03  0.15088146095E+03  0.00000000000E+00 0.  1.
</event>
<event>
 7    1  0.5736319E-006  0.1214790E+03  0.7818608E-02  0.1330743E+00
          2   -1    0    0  502    0  0.00000000000E+00  0.00000000000E+00  0.14336483985E+04  0.14336483985E+04  0.00000000000E+00 0. -1.
          1   -1    0    0  501    0 -0.00000000000E+00 -0.00000000000E+00 -0.15750181059E+03  0.15750181059E+03  0.00000000000E+00 0. -1.
         25    2    1    2    0    0  0.77421309137E+02  0.40905015995E+02  0.28978195137E+03  0.32751339782E+03  0.12499666784E+03 0.  0.
          2    1    1    2  501    0 -0.12379346102E+03 -0.17584866576E+02 -0.10970386115E+03  0.16633997017E+03  0.00000000000E+00 0. -1.
          1    1    1    2  502    0  0.46372151883E+02 -0.23320149418E+02  0.10960684977E+04  0.10972968411E+04  0.00000000000E+00 0. -1.
         22    1    3    3    0    0  0.18416112572E+02  0.71651231115E+02  0.21522594323E+03  0.22758571740E+03  0.00000000000E+00 0. -1.
         22    1    3    3    0    0  0.59005196565E+02 -0.30746215121E+02  0.74556008138E+02  0.99927680426E+02  0.00000000000E+00 0. -1.
</event>
<event>
 7    1  0.5736319E-006  0.3445842E+02  0.7818608E-02  0.1569528E+00
          2   -1    0    0  502    0  0.00000000000E+00  0.00000000000E+00  0.68020536151E+02  0.68020536151E+02  0.00000000000E+00 0. -1.
          1   -1    0    0  501    0 -0.00000000000E+00 -0.00000000000E+00 -0.44049807359E+03  0.44049807359E+03  0.00000000000E+00 0. -1.
         25    2    1    2    0    0 -0.33713984211E+02  0.21609593866E+02 -0.12474632830E+03  0.18107863388E+03  0.12499687173E+03 0.  0.
          2    1    1    2  501    0  0.28371484464E+02  0.12808035172E+02 -0.27894117747E+03  0.28067270509E+03  0.00000000000E+00 0. -1.
          1    1    1    2  502    0  0.53424997475E+01 -0.34417629038E+02  0.31209968335E+02  0.46767270773E+02  0.00000000000E+00 0. -1.
         22    1    3    3    0    0 -0.74298054479E+02 -0.15164637336E+02 -0.63394614774E+02  0.98838475844E+02  0.00000000000E+00 0.  1.
         22    1    3    3    0    0  0.40584070267E+02  0.36774231202E+02 -0.61351713530E+02  0.82240158032E+02  0.00000000000E+00 0.  1.
</event>
<event>
 7    1  0.5736319E-006  0.8746056E+02  0.7818608E-02  0.1322408E+00
          2   -1    0    0  502    0  0.00000000000E+00  0.00000000000E+00  0.93474439847E+03  0.93474439847E+03  0.00000000000E+00 0. -1.
          1   -1    0    0  501    0 -0.00000000000E+00 -0.00000000000E+00 -0.18048393404E+04  0.18048393404E+04  0.00000000000E+00 0. -1.
         25    2    1    2    0    0 -0.45610165665E+02  0.60424152713E+01  0.45244975837E+03  0.47164883063E+03  0.12500015037E+03 0.  0.
          2    1    1    2  501    0 -0.70186676052E+01  0.87178483755E+02 -0.17880962725E+04  0.17902339594E+04  0.00000000000E+00 0. -1.
          1    1    1    2  502    0  0.52628833270E+02 -0.93220899026E+02  0.46555157222E+03  0.47770094882E+03  0.00000000000E+00 0. -1.
         22    1    3    3    0    0  0.10946004220E+02 -0.49925544735E+02  0.13421268647E+03  0.14361552923E+03  0.00000000000E+00 0. -1.
         22    1    3    3    0    0 -0.56556169885E+02  0.55967960007E+02  0.31823707190E+03  0.32803330140E+03  0.00000000000E+00 0. -1.
</event>
<event>
 7    1  0.5736319E-006  0.3931829E+02  0.7818608E-02  0.1537718E+00
          2   -1    0    0  502    0  0.00000000000E+00  0.00000000000E+00  0.18791038766E+03  0.18791038766E+03  0.00000000000E+00 0. -1.
          1   -1    0    0  501    0 -0.00000000000E+00 -0.00000000000E+00 -0.13472162553E+03  0.13472162553E+03  0.00000000000E+00 0. -1.
         25    2    1    2    0    0  0.48940452571E+02  0.52168807700E+01  0.59612386353E+02  0.14697061547E+03  0.12499736582E+03 0.  0.
          2    1    1    2  501    0 -0.17169315406E+02 -0.28687574309E+02 -0.83009343553E+02  0.89489180510E+02  0.00000000000E+00 0. -1.
          1    1    1    2  502    0 -0.31771137165E+02  0.23470693539E+02  0.76585719332E+02  0.86172217202E+02  0.00000000000E+00 0. -1.
         22    1    3    3    0    0  0.12517990683E+02 -0.58531676710E+02  0.17641581979E+02  0.62400983036E+02  0.00000000000E+00 0. -1.
         22    1    3    3    0    0  0.36422461888E+02  0.63748557480E+02  0.41970804374E+02  0.84569632437E+02  0.00000000000E+00 0. -1.
</event>
<event>
 7    1  0.5736319E-006  0.7456923E+02  0.7818608E-02  0.1444615E+00
          2   -1    0    0  502    0  0.00000000000E+00  0.00000000000E+00  0.56423851723E+03  0.56423851723E+03  0.00000000000E+00 0. -1.
          1   -1    0    0  501    0 -0.00000000000E+00 -0.00000000000E+00 -0.35002585966E+03  0.35002585966E+03  0.00000000000E+00 0. -1.
         25    2    1    2    0    0  0.58633520243E+02  0.19122470318E+02  0.16523757139E+03  0.21619755133E+03  0.12503746493E+03 0.  0.
          2    1    1    2  501    0 -0.53614201958E+02 -0.52453872371E+02 -0.31943250937E+03  0.32812043433E+03  0.00000000000E+00 0. -1.
          1    1    1    2  502    0 -0.50193182849E+01  0.33331402054E+02  0.36840759556E+03  0.36994639124E+03  0.00000000000E+00 0. -1.
         22    1    3    3    0    0 -0.31886238444E+02 -0.14313672777E+02  0.80558622444E+02  0.87814036922E+02  0.00000000000E+00 0. -1.
         22    1    3    3    0    0  0.90519758687E+02  0.33436143095E+02  0.84678948941E+02  0.12838351441E+03  0.00000000000E+00 0. -1.
</event>
<event>
 7    1  0.5736319E-006  0.7635749E+02  0.7818608E-02  0.1397995E+00
          2   -1    0    0  502    0  0.00000000000E+00  0.00000000000E+00  0.17053003471E+04  0.17053003471E+04  0.00000000000E+00 0. -1.
          1   -1    0    0  501    0 -0.00000000000E+00 -0.00000000000E+00 -0.36535668836E+03  0.36535668836E+03  0.00000000000E+00 0. -1.
         25    2    1    2    0    0 -0.53302813334E+02 -0.73017064814E+02 -0.17274867427E+03  0.23159281238E+03  0.12498177716E+03 0.  0.
          2    1    1    2  501    0 -0.17245377016E+02  0.43813668115E+02 -0.15889976343E+03  0.16572922302E+03  0.00000000000E+00 0. -1.
          1    1    1    2  502    0  0.70548190350E+02  0.29203396698E+02  0.16715920965E+04  0.16733350001E+04  0.00000000000E+00 0. -1.
         22    1    3    3    0    0 -0.37026823476E+02  0.76199692394E+01  0.26147806426E+01  0.37893095226E+02  0.00000000000E+00 0.  1.
         22    1    3    3    0    0 -0.16275989858E+02 -0.80637034053E+02 -0.17536345492E+03  0.19369971716E+03  0.00000000000E+00 0.  1.
</event>
<event>
 7    1  0.5736319E-006  0.1577871E+03  0.7818608E-02  0.1365027E+00
          2   -1    0    0  502    0  0.00000000000E+00  0.00000000000E+00  0.15691522916E+04  0.15691522916E+04  0.00000000000E+00 0. -1.
          1   -1    0    0  501    0 -0.00000000000E+00 -0.00000000000E+00 -0.11233275507E+03  0.11233275507E+03  0.00000000000E+00 0. -1.
         25    2    1    2    0    0 -0.15025548762E+03 -0.10358702325E+03  0.44555876809E+03  0.49744540167E+03  0.12498931507E+03 0.  0.
          2    1    1    2  501    0  0.24939622420E+02  0.16307667244E+02 -0.78326077671E+02  0.83802739935E+02  0.00000000000E+00 0. -1.
          1    1    1    2  502    0  0.12531586520E+03  0.87279356010E+02  0.10895868461E+04  0.11002369050E+04  0.00000000000E+00 0. -1.
         22    1    3    3    0    0 -0.14591572008E+03 -0.35054510743E+02  0.33825873880E+03  0.37005295630E+03  0.00000000000E+00 0. -1.
         22    1    3    3    0    0 -0.43397675321E+01 -0.68532512512E+02  0.10730002928E+03  0.12739244537E+03  0.00000000000E+00 0. -1.
</event>
<event>
 7    1  0.5736319E-006  0.9832127E+02  0.7818608E-02  0.1305373E+00
          2   -1    0    0  502    0  0.00000000000E+00  0.00000000000E+00  0.51647361612E+03  0.51647361612E+03  0.00000000000E+00 0. -1.
          1   -1    0    0  501    0 -0.00000000000E+00 -0.00000000000E+00 -0.48629080791E+03  0.48629080791E+03  0.00000000000E+00 0. -1.
         25    2    1    2    0    0  0.30865788150E+02 -0.42616735409E+02 -0.16648248201E+03  0.21473224628E+03  0.12499855103E+03 0.  0.
          2    1    1    2  501    0 -0.60610058805E+02 -0.52981884592E+02 -0.28495885811E+03  0.29611182033E+03  0.00000000000E+00 0. -1.
          1    1    1    2  502    0  0.29744270655E+02  0.95598620001E+02  0.48162414834E+03  0.49192035742E+03  0.00000000000E+00 0. -1.
         22    1    3    3    0    0  0.41646392768E+01 -0.82886630155E+02 -0.77875360425E+02  0.11380733474E+03  0.00000000000E+00 0. -1.
         22    1    3    3    0    0  0.26701148873E+02  0.40269894745E+02 -0.88607121587E+02  0.10092491154E+03  0.00000000000E+00 0. -1.
</event>
<event>
 7    1  0.5736319E-006  0.1191064E+03  0.7818608E-02  0.1293567E+00
          2   -1    0    0  502    0  0.00000000000E+00  0.00000000000E+00  0.24676793600E+04  0.24676793600E+04  0.00000000000E+00 0. -1.
          1   -1    0    0  501    0 -0.00000000000E+00 -0.00000000000E+00 -0.30076881346E+03  0.30076881346E+03  0.00000000000E+00 0. -1.
         25    2    1    2    0    0  0.13165246223E+02  0.18728868750E+03  0.18369675500E+03  0.29089993177E+03  0.12501158478E+03 0.  0.
          2    1    1    2  501    0  0.39640406664E+01 -0.11519451768E+03 -0.23307650470E+03  0.26001951382E+03  0.00000000000E+00 0. -1.
          1    1    1    2  502    0 -0.17129286890E+02 -0.72094169820E+02  0.22162902962E+04  0.22175287278E+04  0.00000000000E+00 0. -1.
         22    1    3    3    0    0 -0.36412820596E+02  0.61544200451E+02  0.12399337321E+03  0.14313608460E+03  0.00000000000E+00 0. -1.
         22    1    3    3    0    0  0.49578066819E+02  0.12574448705E+03  0.59703381793E+02  0.14776384717E+03  0.00000000000E+00 0. -1.
</event>
<event>
 7    1  0.5736319E-006  0.8157181E+02  0.7818608E-02  0.1326378E+00
          2   -1    0    0  502    0  0.00000000000E+00  0.00000000000E+00  0.97398734221E+03  0.97398734221E+03  0.00000000000E+00 0. -1.
          1   -1    0    0  501    0 -0.00000000000E+00 -0.00000000000E+00 -0.49718466502E+03  0.49718466502E+03  0.00000000000E+00 0. -1.
         25    2    1    2    0    0  0.13175212973E+02  0.81609434518E+01  0.18308526043E+03  0.22222906338E+03  0.12500142714E+03 0.  0.
          2    1    1    2  501    0  0.23844354293E+02 -0.79455027181E+02 -0.47189326504E+03  0.47912932301E+03  0.00000000000E+00 0. -1.
          1    1    1    2  502    0 -0.37019567266E+02  0.71294083730E+02  0.76561068180E+03  0.76981362084E+03  0.00000000000E+00 0. -1.
         22    1    3    3    0    0  0.17270238893E+01  0.75985168828E+01  0.20089699030E+03  0.20104805590E+03  0.00000000000E+00 0. -1.
         22    1    3    3    0    0  0.11448189084E+02  0.56242656902E+00 -0.17811729866E+02  0.21181007478E+02  0.00000000000E+00 0. -1.
</event>
<event>
 7    1  0.5736319E-006  0.6447040E+02  0.7818608E-02  0.1501547E+00
          2   -1    0    0  502    0  0.00000000000E+00  0.00000000000E+00  0.52309887385E+03  0.52309887385E+03  0.00000000000E+00 0. -1.
          1   -1    0    0  501    0 -0.00000000000E+00 -0.00000000000E+00 -0.52978866072E+03  0.52978866072E+03  0.00000000000E+00 0. -1.
         25    2    1    2    0    0  0.83156031847E+02 -0.33489960952E+02  0.25550975561E+03  0.29823868029E+03  0.12499828834E+03 0.  0.
          2    1    1    2  501    0 -0.57696154349E+02  0.28354737688E+02 -0.50569862762E+03  0.50976851546E+03  0.00000000000E+00 0. -1.
          1    1    1    2  502    0 -0.25459877498E+02  0.51352232639E+01  0.24349908513E+03  0.24488033882E+03  0.00000000000E+00 0. -1.
         22    1    3    3    0    0  0.56270137067E+02 -0.78546696974E+02  0.12814655045E+03  0.16049127803E+03  0.00000000000E+00 0. -1.
         22    1    3    3    0    0  0.26885894781E+02  0.45056736022E+02  0.12736320517E+03  0.13774740226E+03  0.00000000000E+00 0. -1.
</event>
<event>
 7    1  0.5736319E-006  0.9084653E+02  0.7818608E-02  0.1414219E+00
          2   -1    0    0  502    0  0.00000000000E+00  0.00000000000E+00  0.31635303659E+02  0.31635303659E+02  0.00000000000E+00 0. -1.
          1   -1    0    0  501    0 -0.00000000000E+00 -0.00000000000E+00 -0.14688683822E+04  0.14688683822E+04  0.00000000000E+00 0. -1.
         25    2    1    2    0    0 -0.33106218587E+02 -0.87874044287E+02 -0.52495907464E+03  0.54775595533E+03  0.12504674000E+03 0.  0.
          2    1    1    2  501    0  0.34674235891E+02 -0.34430909145E+01 -0.82719634737E+03  0.82792992132E+03  0.00000000000E+00 0. -1.
          1    1    1    2  502    0 -0.15680173041E+01  0.91317135202E+02 -0.85077656584E+02  0.12481780926E+03  0.00000000000E+00 0. -1.
         22    1    3    3    0    0 -0.33262237164E+02 -0.11978800588E+03 -0.42694525412E+03  0.44467717818E+03  0.00000000000E+00 0.  1.
         22    1    3    3    0    0  0.15601857696E+00  0.31913961598E+02 -0.98013820511E+02  0.10307877715E+03  0.00000000000E+00 0.  1.
</event>
<event>
 7    1  0.5736319E-006  0.1345806E+03  0.7818608E-02  0.1285202E+00
          2   -1    0    0  502    0  0.00000000000E+00  0.00000000000E+00  0.18111912940E+04  0.18111912940E+04  0.00000000000E+00 0. -1.
          1   -1    0    0  501    0 -0.00000000000E+00 -0.00000000000E+00 -0.60544413264E+03  0.60544413264E+03  0.00000000000E+00 0. -1.
         25    2    1    2    0    0  0.56354487345E+02 -0.67319705103E+02 -0.40983311339E+03  0.43737517782E+03  0.12500437751E+03 0.  0.
          2    1    1    2  501    0 -0.28891686870E+02 -0.64779399679E+02 -0.17228305590E+03  0.18631304716E+03  0.00000000000E+00 0. -1.
          1    1    1    2  502    0 -0.27462800475E+02  0.13209910478E+03  0.17878633307E+04  0.17929472017E+04  0.00000000000E+00 0. -1.
         22    1    3    3    0    0  0.41083305092E+02 -0.28275734209E+02 -0.36767572395E+02  0.61961354747E+02  0.00000000000E+00 0. -1.
         22    1    3    3    0    0  0.15271182253E+02 -0.39043970894E+02 -0.37306554100E+03  0.37541382307E+03  0.00000000000E+00 0. -1.
</event>
<event>
 7    1  0.5736319E-006  0.9048730E+02  0.7818608E-02  0.1369000E+00
          2   -1    0    0  502    0  0.00000000000E+00  0.00000000000E+00  0.24038169519E+03  0.24038169519E+03  0.00000000000E+00 0. -1.
          1   -1    0    0  501    0 -0.00000000000E+00 -0.00000000000E+00 -0.28198032876E+03  0.28198032876E+03  0.00000000000E+00 0. -1.
         25    2    1    2    0    0  0.68231473268E+02  0.92924222126E+02  0.43637292619E+02  0.17555671724E+03  0.12500201062E+03 0.  0.
          2    1    1    2  501    0 -0.49583775897E+02 -0.82890590737E+01 -0.19817181818E+03  0.20444884165E+03  0.00000000000E+00 0. -1.
          1    1    1    2  502    0 -0.18647697371E+02 -0.84635163053E+02  0.11293589199E+03  0.14235646505E+03  0.00000000000E+00 0. -1.
         22    1    3    3    0    0  0.12016498051E+02 -0.31385348228E+02  0.78542966177E+01  0.34512697434E+02  0.00000000000E+00 0.  1.
         22    1    3    3    0    0  0.56214975217E+02  0.12430957035E+03  0.35782996002E+02  0.14104401981E+03  0.00000000000E+00 0.  1.
</event>
<event>
 7    1  0.5736319E-006  0.1123528E+03  0.7818608E-02  0.1291934E+00
          2   -1    0    0  502    0  0.00000000000E+00  0.00000000000E+00  0.61583143773E+03  0.61583143773E+03  0.00000000000E+00 0. -1.
          1   -1    0    0  501    0 -0.00000000000E+00 -0.00000000000E+00 -0.67066653973E+03  0.67066653973E+03  0.00000000000E+00 0. -1.
         25    2    1    2    0    0  0.16178250682E+01  0.63855475892E+02  0.22062312257E+02  0.14209661881E+03  0.12499825717E+03 0.  0.
          2    1    1    2  501    0 -0.73324265084E+02  0.31390012094E+02 -0.60132565201E+03  0.60659238412E+03  0.00000000000E+00 0. -1.
          1    1    1    2  502    0  0.71706440016E+02 -0.95245487985E+02  0.52442823776E+03  0.53780897453E+03  0.00000000000E+00 0. -1.
         22    1    3    3    0    0 -0.25978426498E+02  0.71488722180E+02 -0.30733130481E+02  0.82036829237E+02  0.00000000000E+00 0.  1.
         22    1    3    3    0    0  0.27596251566E+02 -0.76332462880E+01  0.52795442738E+02  0.60059789570E+02  0.00000000000E+00 0.  1.
</event>
<event>
 7    1  0.5736319E-006  0.1140035E+03  0.7818608E-02  0.1401107E+00
          2   -1    0    0  502    0  0.00000000000E+00  0.00000000000E+00  0.49317105406E+03  0.49317105406E+03  0.00000000000E+00 0. -1.
          1   -1    0    0  501    0 -0.00000000000E+00 -0.00000000000E+00 -0.61463729417E+03  0.61463729417E+03  0.00000000000E+00 0. -1.
         25    2    1    2    0    0  0.12935115722E+03 -0.35971074577E+02  0.73935818588E+02  0.19778148884E+03  0.12500148790E+03 0.  0.
          2    1    1    2  501    0 -0.28559923660E+02 -0.11448207501E+02 -0.54358771424E+03  0.54445783470E+03  0.00000000000E+00 0. -1.
          1    1    1    2  502    0 -0.10079123356E+03  0.47419282079E+02  0.34818565555E+03  0.36556902468E+03  0.00000000000E+00 0. -1.
         22    1    3    3    0    0  0.12640622484E+03 -0.70571504006E+02  0.74987863573E+02  0.16304002742E+03  0.00000000000E+00 0. -1.
         22    1    3    3    0    0  0.29449323781E+01  0.34600429429E+02 -0.10520449849E+01  0.34741461426E+02  0.00000000000E+00 0. -1.
</event>
<event>
 7    1  0.5736319E-006  0.7029626E+02  0.7818608E-02  0.1443652E+00
          2   -1    0    0  502    0  0.00000000000E+00  0.00000000000E+00  0.11651704427E+04  0.11651704427E+04  0.00000000000E+00 0. -1.
          1   -1    0    0  501    0 -0.00000000000E+00 -0.00000000000E+00 -0.39259536268E+03  0.39259536268E+03  0.00000000000E+00 0. -1.
         25    2    1    2    0    0 -0.77952522396E+01 -0.93820918872E+02 -0.10740393090E+02  0.15685491016E+03  0.12499990408E+03 0.  0.
          2    1    1    2  501    0  0.27408064935E+02  0.63617424522E+02 -0.30461129019E+03  0.31238824695E+03  0.00000000000E+00 0. -1.
          1    1    1    2  502    0 -0.19612812696E+02  0.30203494351E+02  0.10879267633E+04  0.10885226483E+04  0.00000000000E+00 0. -1.
         22    1    3    3    0    0  0.69623131446E+01 -0.29339500187E+02  0.55549792730E+02  0.63206483433E+02  0.00000000000E+00 0. -1.
         22    1    3    3    0    0 -0.14757565384E+02 -0.64481418685E+02 -0.66290185820E+02  0.93648426723E+02  0.00000000000E+00 0. -1.
</event>
<event>
 7    1  0.5736319E-006  0.6856937E+02  0.7818608E-02  0.1481240E+00
          2   -1    0    0  502    0  0.00000000000E+00  0.00000000000E+00  0.91100068659E+03  0.91100068659E+03  0.00000000000E+00 0. -1.
          1   -1    0    0  501    0 -0.00000000000E+00 -0.00000000000E+00 -0.77031098307E+03  0.77031098307E+03  0.00000000000E+00 0. -1.
         25    2    1    2    0    0 -0.84633892393E+02  0.46300148004E+02  0.20514749785E+03  0.25887479088E+03  0.12499624806E+03 0.  0.
          2    1    1    2  501    0  0.59432126885E+02 -0.33818439039E+02 -0.74158247085E+03  0.74472842406E+03  0.00000000000E+00 0. -1.
          1    1    1    2  502    0  0.25201765507E+02 -0.12481708964E+02  0.67712467652E+03  0.67770845472E+03  0.00000000000E+00 0. -1.
         22    1    3    3    0    0 -0.52896335805E+02  0.67946009654E+02  0.51143440965E+02  0.10015155577E+03  0.00000000000E+00 0.  1.
         22    1    3    3    0    0 -0.31737556587E+02 -0.21645861650E+02  0.15400405689E+03  0.15872323511E+03  0.00000000000E+00 0.  1.
</event>
<event>
 7    1  0.5736319E-006  0.8841378E+02  0.7818608E-02  0.1379210E+00
          2   -1    0    0  502    0  0.00000000000E+00  0.00000000000E+00  0.27559549088E+04  0.27559549088E+04  0.00000000000E+00 0. -1.
          1   -1    0    0  501    0 -0.00000000000E+00 -0.00000000000E+00 -0.10275014870E+03  0.10275014870E+03  0.00000000000E+00 0. -1.
         25    2    1    2    0    0  0.58715778171E+02 -0.36381528105E+02  0.85955065056E+03  0.87133396774E+03  0.12499761706E+03 0.  0.
          2    1    1    2  501    0 -0.13017868975E+02 -0.45478899969E+02 -0.89846263393E+02  0.10153889058E+03  0.00000000000E+00 0. -1.
          1    1    1    2  502    0 -0.45697909195E+02  0.81860428074E+02  0.18835003729E+04  0.18858321992E+04  0.00000000000E+00 0. -1.
         22    1    3    3    0    0 -0.33776991101E+02 -0.26760250627E+02  0.16286646101E+03  0.16847100719E+03  0.00000000000E+00 0. -1.
         22    1    3    3    0    0  0.92492769272E+02 -0.96212774781E+01  0.69668418955E+03  0.70286296055E+03  0.00000000000E+00 0. -1.
</event>
<event>
 7    1  0.5736319E-006  0.3666363E+02  0.7818608E-02  0.1575115E+00
          2   -1    0    0  502    0  0.00000000000E+00  0.00000000000E+00  0.95013206186E+02  0.95013206186E+02  0.00000000000E+00 0. -1.
          1   -1    0    0  501    0 -0.00000000000E+00 -0.00000000000E+00 -0.13260146348E+04  0.13260146348E+04  0.00000000000E+00 0. -1.
         25    2    1    2    0    0  0.42794682804E+02 -0.32274521844E+02 -0.79854524293E+02  0.15771768166E+03  0.12500036969E+03 0.  0.
          2    1    1    2  501    0 -0.69829104056E+01  0.27377856198E+02 -0.12012211838E+04  0.12015534281E+04  0.00000000000E+00 0. -1.
          1    1    1    2  502    0 -0.35811772399E+02  0.48966656459E+01  0.50074279548E+02  0.61756731204E+02  0.00000000000E+00 0. -1.
         22    1    3    3    0    0  0.30319638774E+02 -0.62477971802E+02  0.21108032468E+01  0.69478291187E+02  0.00000000000E+00 0.  1.
         22    1    3    3    0    0  0.12475044030E+02  0.30203449958E+02 -0.81965327540E+02  0.88239390476E+02  0.00000000000E+00 0.  1.
</event>
<event>
 7    1  0.5736319E-006  0.2915030E+02  0.7818608E-02  0.1640081E+00
          2   -1    0    0  502    0  0.00000000000E+00  0.00000000000E+00  0.12082178715E+04  0.12082178715E+04  0.00000000000E+00 0. -1.
          1   -1    0    0  501    0 -0.00000000000E+00 -0.00000000000E+00 -0.45712023129E+02  0.45712023129E+02  0.00000000000E+00 0. -1.
         25    2    1    2    0    0 -0.34923223369E+02 -0.19555648243E+01  0.14741074435E+03  0.19641328229E+03  0.12499917659E+03 0.  0.
          2    1    1    2  501    0  0.20312556457E+02  0.21156008779E+02 -0.10862224543E+02  0.31275622764E+02  0.00000000000E+00 0. -1.
          1    1    1    2  502    0  0.14610666913E+02 -0.19200443955E+02  0.10259573285E+04  0.10262409895E+04  0.00000000000E+00 0. -1.
         22    1    3    3    0    0  0.17245869234E+02  0.51897969847E+02  0.57795065231E+02  0.79568139635E+02  0.00000000000E+00 0. -1.
         22    1    3    3    0    0 -0.52169092603E+02 -0.53853534671E+02  0.89615679117E+02  0.11684514266E+03  0.00000000000E+00 0. -1.
</event>
<event>
 7    1  0.5736319E-006  0.1179565E+03  0.7818608E-02  0.1272820E+00
          2   -1    0    0  502    0  0.00000000000E+00  0.00000000000E+00  0.18704528182E+03  0.18704528182E+03  0.00000000000E+00 0. -1.
          1   -1    0    0  501    0 -0.00000000000E+00 -0.00000000000E+00 -0.53260525960E+03  0.53260525960E+03  0.00000000000E+00 0. -1.
         25    2    1    2    0    0 -0.12397969858E+03 -0.83280898772E+02  0.73607610594E+02  0.20820318649E+03  0.12499525098E+03 0.  0.
          2    1    1    2  501    0  0.23287662320E+02  0.88035267262E+02 -0.39820745044E+03  0.40848708313E+03  0.00000000000E+00 0. -1.
          1    1    1    2  502    0  0.10069203626E+03 -0.47543684896E+01 -0.20960137937E+02  0.10296027180E+03  0.00000000000E+00 0. -1.
         22    1    3    3    0    0  0.15116647637E+02 -0.14815347657E+02 -0.18295119151E+02  0.27977114696E+02  0.00000000000E+00 0.  1.
         22    1    3    3    0    0 -0.13909634622E+03 -0.68465551115E+02  0.91902729745E+02  0.18022607180E+03  0.00000000000E+00 0.  1.
</event>
<event>
 7    1  0.5736319E-006  0.7909867E+02  0.7818608E-02  0.1476063E+00
          2   -1    0    0  502    0  0.00000000000E+00  0.00000000000E+00  0.11069544072E+04  0.11069544072E+04  0.00000000000E+00 0. -1.
          1   -1    0    0  501    0 -0.00000000000E+00 -0.00000000000E+00 -0.14788632944E+03  0.14788632944E+03  0.00000000000E+00 0. -1.
         25    2    1    2    0    0  0.72401420007E+02  0.18675184836E+02  0.32855188464E+03  0.35939177188E+03  0.12500150657E+03 0.  0.
          2    1    1    2  501    0  0.75661574089E+01 -0.24131212756E+02 -0.12913135798E+03  0.13158445874E+03  0.00000000000E+00 0. -1.
          1    1    1    2  502    0 -0.79967577416E+02  0.54560279194E+01  0.75964755113E+03  0.76386450606E+03  0.00000000000E+00 0. -1.
         22    1    3    3    0    0  0.69862636540E+02  0.66180115206E+02  0.24538577039E+03  0.26358067445E+03  0.00000000000E+00 0. -1.
         22    1    3    3    0    0  0.25387834668E+01 -0.47504930369E+02  0.83166114250E+02  0.95811097428E+02  0.00000000000E+00 0. -1.
</event>
<event>
 7    1  0.5736319E-006  0.1715990E+03  0.7818608E-02  0.1182764E+00
          2   -1    0    0  502    0  0.00000000000E+00  0.00000000000E+00  0.24104444976E+04  0.24104444976E+04  0.00000000000E+00 0. -1.
          1   -1    0    0  501    0 -0.00000000000E+00 -0.00000000000E+00 -0.50615951597E+03  0.50615951597E+03  0.00000000000E+00 0. -1.
         25    2    1    2    0    0  0.42270134540E+02  0.44390832926E+02  0.49651345293E+03  0.51566281678E+03  0.12500088540E+03 0.  0.
          2    1    1    2  501    0  0.12173788251E+03  0.12093846401E+03 -0.47436689586E+03  0.50445037021E+03  0.00000000000E+00 0. -1.
          1    1    1    2  502    0 -0.16400801705E+03 -0.16532929694E+03  0.18821384246E+04  0.18964908266E+04  0.00000000000E+00 0. -1.
         22    1    3    3    0    0  0.18313901327E+01  0.65420501890E+02  0.43047670928E+03  0.43542323467E+03  0.00000000000E+00 0.  1.
         22    1    3    3    0    0  0.40438744408E+02 -0.21029668964E+02  0.66036743644E+02  0.80239582110E+02  0.00000000000E+00 0.  1.
</event>
<event>
 7    1  0.5736319E-006  0.1109400E+03  0.7818608E-02  0.1277981E+00
          2   -1    0    0  502    0  0.00000000000E+00  0.00000000000E+00  0.52625396840E+03  0.52625396840E+03  0.00000000000E+00 0. -1.
          1   -1    0    0  501    0 -0.00000000000E+00 -0.00000000000E+00 -0.83786250029E+03  0.83786250029E+03  0.00000000000E+00 0. -1.
         25    2    1    2    0    0 -0.23762890508E+02 -0.17612661342E+03 -0.11425870434E+03  0.24549059277E+03  0.12500128280E+03 0.  0.
          2    1    1    2  501    0 -0.31821260692E+02  0.10262945394E+03 -0.64891683642E+03  0.65775258117E+03  0.00000000000E+00 0. -1.
          1    1    1    2  502    0  0.55584151200E+02  0.73497159484E+02  0.45156700887E+03  0.46087329476E+03  0.00000000000E+00 0. -1.
         22    1    3    3    0    0 -0.75477345065E+02 -0.10168013509E+03 -0.66061077725E+02  0.14282767757E+03  0.00000000000E+00 0.  1.
         22    1    3    3    0    0  0.51714454557E+02 -0.74446478329E+02 -0.48197626618E+02  0.10266291520E+03  0.00000000000E+00 0.  1.
</event>
<event>
 7    1  0.5736319E-006  0.3878986E+02  0.7818608E-02  0.1572102E+00
          2   -1    0    0  502    0  0.00000000000E+00  0.00000000000E+00  0.75140666610E+03  0.75140666610E+03  0.00000000000E+00 0. -1.
          1   -1    0    0  501    0 -0.00000000000E+00 -0.00000000000E+00 -0.11340277509E+03  0.11340277509E+03  0.00000000000E+00 0. -1.
         25    2    1    2    0    0 -0.41050267043E+02 -0.21521572062E+02  0.44232410455E+03  0.46198429726E+03  0.12502229786E+03 0.  0.
          2    1    1    2  501    0  0.23777071668E+02 -0.13232969123E+02 -0.10049727331E+03  0.10411610130E+03  0.00000000000E+00 0. -1.
          1    1    1    2  502    0  0.17273195375E+02  0.34754541184E+02  0.29617705977E+03  0.29870904262E+03  0.00000000000E+00 0. -1.
         22    1    3    3    0    0 -0.62023698456E+02  0.22754614290E+02  0.12982697901E+03  0.14567002478E+03  0.00000000000E+00 0.  1.
         22    1    3    3    0    0  0.20973431413E+02 -0.44276186351E+02  0.31249712554E+03  0.31631427248E+03  0.00000000000E+00 0.  1.
</event>
<event>
 7    1  0.5736319E-006  0.1672544E+03  0.7818608E-02  0.1331183E+00
          2   -1    0    0  502    0  0.00000000000E+00  0.00000000000E+00  0.16225675824E+04  0.16225675824E+04  0.00000000000E+00 0. -1.
          1   -1    0    0  501    0 -0.00000000000E+00 -0.00000000000E+00 -0.27813781834E+03  0.27813781834E+03  0.00000000000E+00 0. -1.
         25    2    1    2    0    0  0.18404214144E+03  0.85229424608E+02  0.54041087467E+03  0.59059660074E+03  0.12499946681E+03 0.  0.
          2    1    1    2  501    0 -0.15193788920E+03 -0.65744785062E+02 -0.22558824538E+03  0.27981700340E+03  0.00000000000E+00 0. -1.
          1    1    1    2  502    0 -0.32104252237E+02 -0.19484639546E+02  0.10296071348E+04  0.10302917966E+04  0.00000000000E+00 0. -1.
         22    1    3    3    0    0  0.15251853870E+03  0.77350206724E+02  0.52932486455E+03  0.55626412014E+03  0.00000000000E+00 0.  1.
         22    1    3    3    0    0  0.31523602733E+02  0.78792178833E+01  0.11086010122E+02  0.34332480600E+02  0.00000000000E+00 0.  1.
</event>
<event>
 7    1  0.5736319E-006  0.7273784E+02  0.7818608E-02  0.1412662E+00
          2   -1    0    0  502    0  0.00000000000E+00  0.00000000000E+00  0.88230474461E+02  0.88230474461E+02  0.00000000000E+00 0. -1.
          1   -1    0    0  501    0 -0.00000000000E+00 -0.00000000000E+00 -0.21982358037E+04  0.21982358037E+04  0.00000000000E+00 0. -1.
         25    2    1    2    0    0 -0.17330185384E+02 -0.65229645787E+02 -0.35858524985E+03  0.38569991442E+03  0.12500320219E+03 0.  0.
          2    1    1    2  501    0  0.43917073771E+02 -0.34025864811E+01 -0.18076229849E+04  0.18081596009E+04  0.00000000000E+00 0. -1.
          1    1    1    2  502    0 -0.26586888387E+02  0.68632232268E+02  0.56202905469E+02  0.92606762838E+02  0.00000000000E+00 0. -1.
         22    1    3    3    0    0 -0.36721093661E+01 -0.74377086915E+02 -0.90891466525E+02  0.11750188991E+03  0.00000000000E+00 0. -1.
         22    1    3    3    0    0 -0.13658076018E+02  0.91474411281E+01 -0.26769378332E+03  0.26819802451E+03  0.00000000000E+00 0. -1.
</event>
<event>
 7    1  0.5736319E-006  0.5787217E+02  0.7818608E-02  0.1473253E+00
          2   -1    0    0  502    0  0.00000000000E+00  0.00000000000E+00  0.22024781615E+04  0.22024781615E+04  0.00000000000E+00 0. -1.
          1   -1    0    0  501    0 -0.00000000000E+00 -0.00000000000E+00 -0.22036469834E+03  0.22036469834E+03  0.00000000000E+00 0. -1.
         25    2    1    2    0    0  0.44139605174E+02  0.24496902179E+01  0.26699080027E+03  0.29810043895E+03  0.12500191416E+03 0.  0.
          2    1    1    2  501    0 -0.44332024961E+02 -0.37712600886E+02 -0.20050931319E+03  0.20878590321E+03  0.00000000000E+00 0. -1.
          1    1    1    2  502    0  0.19241978639E+00  0.35262910668E+02  0.19156319761E+04  0.19159565177E+04  0.00000000000E+00 0. -1.
         22    1    3    3    0    0  0.15878512112E+02 -0.22323062002E+02  0.25801056085E+03  0.25946077883E+03  0.00000000000E+00 0. -1.
         22    1    3    3    0    0  0.28261093062E+02  0.24772752220E+02  0.89802394259E+01  0.38639660115E+02  0.00000000000E+00 0. -1.
</event>
<event>
 7    1  0.5736319E-006  0.1686759E+03  0.7818608E-02  0.1318361E+00
          2   -1    0    0  502    0  0.00000000000E+00  0.00000000000E+00  0.13550709405E+04  0.13550709405E+04  0.00000000000E+00 0. -1.
          1   -1    0    0  501    0 -0.00000000000E+00 -0.00000000000E+00 -0.45369882655E+03  0.45369882655E+03  0.00000000000E+00 0. -1.
         25    2    1    2    0    0 -0.11083988759E+03  0.15882935948E+03  0.20301017499E+03  0.30716591964E+03  0.12500209970E+03 0.  0.
          2    1    1    2  501    0  0.40885267497E+02 -0.83153045124E+01 -0.39425289200E+03  0.39645440120E+03  0.00000000000E+00 0. -1.
          1    1    1    2  502    0  0.69954620089E+02 -0.15051405496E+03  0.10926148309E+04  0.11051494462E+04  0.00000000000E+00 0. -1.
         22    1    3    3    0    0 -0.64214325471E+00 -0.80783671884E+00  0.74440755412E+02  0.74447908060E+02  0.00000000000E+00 0.  1.
         22    1    3    3    0    0 -0.11019774433E+03  0.15963719619E+03  0.12856941958E+03  0.23271801158E+03  0.00000000000E+00 0.  1.
</event>
<event>
 7    1  0.5736319E-006  0.1777265E+03  0.7818608E-02  0.1262612E+00
          2   -1    0    0  502    0  0.00000000000E+00  0.00000000000E+00  0.56874168430E+02  0.56874168430E+02  0.00000000000E+00 0. -1.
          1   -1    0    0  501    0 -0.00000000000E+00 -0.00000000000E+00 -0.10299985648E+04  0.10299985648E+04  0.00000000000E+00 0. -1.
         25    2    1    2    0    0  0.22051909843E+02  0.14623582274E+03 -0.58980288155E+03  0.62077650234E+03  0.12499929676E+03 0.  0.
          2    1    1    2  501    0 -0.49017546183E+02  0.45282983734E+02 -0.14148287258E+03  0.15643104450E+03  0.00000000000E+00 0. -1.
          1    1    1    2  502    0  0.26965636340E+02 -0.19151880648E+03 -0.24183864219E+03  0.30966518634E+03  0.00000000000E+00 0. -1.
         22    1    3    3    0    0 -0.28941415305E+02  0.58020002230E+02 -0.91383903764E+02  0.11204884670E+03  0.00000000000E+00 0.  1.
         22    1    3    3    0    0  0.50993325148E+02  0.88215820511E+02 -0.49841897778E+03  0.50872765564E+03  0.00000000000E+00 0.  1.
</event>
<event>
 7    1  0.5736319E-006  0.7624080E+02  0.7818608E-02  0.1384757E+00
          2   -1    0    0  502    0  0.00000000000E+00  0.00000000000E+00  0.29060392443E+03  0.29060392443E+03  0.00000000000E+00 0. -1.
          1   -1    0    0  501    0 -0.00000000000E+00 -0.00000000000E+00 -0.30352485446E+03  0.30352485446E+03  0.00000000000E+00 0. -1.
         25    2    1    2    0    0  0.31151384666E+02  0.26296327494E+02  0.10981286758E+03  0.17131357450E+03  0.12501027684E+03 0.  0.
          2    1    1    2  501    0 -0.15732179442E+02 -0.76417223673E+02 -0.26233444459E+03  0.27369043528E+03  0.00000000000E+00 0. -1.
          1    1    1    2  502    0 -0.15419205224E+02  0.50120896179E+02  0.13960064698E+03  0.14912476910E+03  0.00000000000E+00 0. -1.
         22    1    3    3    0    0  0.42739343535E+02 -0.34885960595E+02  0.90727280943E+02  0.10618437380E+03  0.00000000000E+00 0.  1.
         22    1    3    3    0    0 -0.11587958869E+02  0.61182288089E+02  0.19085586639E+02  0.65129200701E+02  0.00000000000E+00 0.  1.
</event>
<event>
 7    1  0.5736319E-006  0.1537868E+03  0.7818608E-02  0.1234050E+00
          2   -1    0    0  502    0  0.00000000000E+00  0.00000000000E+00  0.21610612957E+04  0.21610612957E+04  0.00000000000E+00 0. -1.
          1   -1    0    0  501    0 -0.00000000000E+00 -0.00000000000E+00 -0.29504424158E+03  0.29504424158E+03  0.00000000000E+00 0. -1.
         25    2    1    2    0    0 -0.68315517014E+01 -0.15169922746E+03  0.16077319085E+04  0.16197183349E+04  0.12500507527E+03 0.  0.
          2    1    1    2  501    0  0.10273834137E+03  0.11505617625E+03 -0.26310357646E+03  0.30498620038E+03  0.00000000000E+00 0. -1.
          1    1    1    2  502    0 -0.95906789670E+02  0.36643051207E+02  0.52138872206E+03  0.53140100206E+03  0.00000000000E+00 0. -1.
         22    1    3    3    0    0  0.54570736711E+02 -0.82132662641E+02  0.10134741211E+04  0.10182600521E+04  0.00000000000E+00 0.  1.
         22    1    3    3    0    0 -0.61402288412E+02 -0.69566564817E+02  0.59425778746E+03  0.60145828278E+03  0.00000000000E+00 0.  1.
</event>
<event>
 7    1  0.5736319E-006  0.1039978E+03  0.7818608E-02  0.1351767E+00
          2   -1    0    0  502    0  0.00000000000E+00  0.00000000000E+00  0.10181563881E+04  0.10181563881E+04  0.00000000000E+00 0. -1.
          1   -1    0    0  501    0 -0.00000000000E+00 -0.00000000000E+00 -0.22309897076E+03  0.22309897076E+03  0.00000000000E+00 0. -1.
         25    2    1    2    0    0 -0.65387133898E+02 -0.98025687289E+01 -0.22454262574E+02  0.14316751121E+03  0.12498469797E+03 0.  0.
          2    1    1    2  501    0 -0.25601133421E+02 -0.43590920668E+02 -0.13271792771E+03  0.14201983923E+03  0.00000000000E+00 0. -1.
          1    1    1    2  502    0  0.90988267319E+02  0.53393489397E+02  0.95022960763E+03  0.95606800842E+03  0.00000000000E+00 0. -1.
         22    1    3    3    0    0 -0.92837158525E+02 -0.27943820391E+02 -0.41151098754E+02  0.10532334988E+03  0.00000000000E+00 0.  1.
         22    1    3    3    0    0  0.27450024628E+02  0.18141251662E+02  0.18696836180E+02  0.37844161334E+02  0.00000000000E+00 0.  1.
</event>
<event>
 7    1  0.5736319E-006  0.1062178E+03  0.7818608E-02  0.1309608E+00
          2   -1    0    0  502    0  0.00000000000E+00  0.00000000000E+00  0.25403536873E+04  0.25403536873E+04  0.00000000000E+00 0. -1.
          1   -1    0    0  501    0 -0.00000000000E+00 -0.00000000000E+00 -0.69400758690E+03  0.69400758690E+03  0.00000000000E+00 0. -1.
         25    2    1    2    0    0 -0.14328207271E+03  0.58895912602E+02 -0.12777271763E+03  0.23653526423E+03  0.12499833187E+03 0.  0.
          2    1    1    2  501    0  0.10258374024E+03  0.13062501687E+00 -0.50619049895E+03  0.51648065022E+03  0.00000000000E+00 0. -1.
          1    1    1    2  502    0  0.40698332475E+02 -0.59026537619E+02  0.24803093170E+04  0.24813453598E+04  0.00000000000E+00 0. -1.
         22    1    3    3    0    0  0.22949493870E+02  0.82605286963E+00 -0.15447482497E+02  0.27676458367E+02  0.00000000000E+00 0. -1.
         22    1    3    3    0    0 -0.16623156658E+03  0.58069859733E+02 -0.11232523513E+03  0.20885880586E+03  0.00000000000E+00 0. -1.
</event>
<event>
 7    1  0.5736319E-006  0.9511910E+02  0.7818608E-02  0.1358791E+00
          2   -1    0    0  502    0  0.00000000000E+00  0.00000000000E+00  0.95837055541E+03  0.95837055541E+03  0.00000000000E+00 0. -1.
          1   -1    0    0  501    0 -0.00000000000E+00 -0.00000000000E+00 -0.56738183251E+03  0.56738183251E+03  0.00000000000E+00 0. -1.
         25    2    1    2    0    0 -0.78272501327E+01  0.24837818087E+02 -0.34855446453E+03  0.37120594752E+03  0.12500183072E+03 0.  0.
          2    1    1    2  501    0  0.95406836116E+02  0.12276321957E+02 -0.19380473844E+03  0.21636415854E+03  0.00000000000E+00 0. -1.
          1    1    1    2  502    0 -0.87579585983E+02 -0.37114140044E+02  0.93334792587E+03  0.93818228186E+03  0.00000000000E+00 0. -1.
         22    1    3    3    0    0  0.10759565327E+00  0.65668287811E+02 -0.10299540172E+03  0.12214904165E+03  0.00000000000E+00 0.  1.
         22    1    3    3    0    0 -0.79348457859E+01 -0.40830469723E+02 -0.24555906281E+03  0.24905690587E+03  0.00000000000E+00 0.  1.
</event>
<event>
 7    1  0.5736319E-006  0.1792593E+03  0.7818608E-02  0.1345202E+00
          2   -1    0    0  502    0  0.00000000000E+00  0.00000000000E+00  0.50918543835E+03  0.50918543835E+03  0.00000000000E+00 0. -1.
          1   -1    0    0  501    0 -0.00000000000E+00 -0.00000000000E+00 -0.33334731359E+03  0.33334731359E+03  0.00000000000E+00 0. -1.
         25    2    1    2    0    0 -0.16038558809E+03 -0.10698949609E+03 -0.96657092126E+01  0.22998355674E+03  0.12501488429E+03 0.  0.
          2    1    1    2  501    0  0.13088370382E+03  0.11658108898E+03 -0.17677772001E+03  0.24894187378E+03  0.00000000000E+00 0. -1.
          1    1    1    2  502    0  0.29501884277E+02 -0.95915928853E+01  0.36228155398E+03  0.36360732142E+03  0.00000000000E+00 0. -1.
         22    1    3    3    0    0 -0.75043333456E+02 -0.12187296786E+03 -0.43490684901E+01  0.14319021122E+03  0.00000000000E+00 0. -1.
         22    1    3    3    0    0 -0.85342254638E+02  0.14883471769E+02 -0.53166407225E+01  0.86793345523E+02  0.00000000000E+00 0. -1.
</event>
<event>
 7    1  0.5736319E-006  0.4176208E+02  0.7818608E-02  0.1581595E+00
          2   -1    0    0  502    0  0.00000000000E+00  0.00000000000E+00  0.12646349359E+04  0.12646349359E+04  0.00000000000E+00 0. -1.
          1   -1    0    0  501    0 -0.00000000000E+00 -0.00000000000E+00 -0.15714688767E+04  0.15714688767E+04  0.00000000000E+00 0. -1.
         25    2    1    2    0    0 -0.54376768886E+02  0.35211055860E+02  0.19681689506E+03  0.24198884282E+03  0.12500023367E+03 0.  0.
          2    1    1    2  501    0  0.37429216136E+02 -0.18458299373E+02 -0.15484659020E+04  0.15490281807E+04  0.00000000000E+00 0. -1.
          1    1    1    2  502    0  0.16947552750E+02 -0.16752756487E+02  0.10448150661E+04  0.10450867891E+04  0.00000000000E+00 0. -1.
         22    1    3    3    0    0 -0.22957332553E+00 -0.38634738035E+02  0.21541417719E+02  0.44234922452E+02  0.00000000000E+00 0. -1.
         22    1    3    3    0    0 -0.54147195561E+02  0.73845793895E+02  0.17527547734E+03  0.19775392037E+03  0.00000000000E+00 0. -1.
</event>
<event>
 7    1  0.5736319E-006  0.9098432E+02  0.7818608E-02  0.1326025E+00
          2   -1    0    0  502    0  0.00000000000E+00  0.00000000000E+00  0.23815866405E+03  0.23815866405E+03  0.00000000000E+00 0. -1.
          1   -1    0    0  501    0 -0.00000000000E+00 -0.00000000000E+00 -0.61449086991E+03  0.61449086991E+03  0.00000000000E+00 0. -1.
         25    2    1    2    0    0 -0.93569186152E+02 -0.11073390217E+03 -0.31106799027E+03  0.36524797056E+03  0.12500238293E+03 0.  0.
          2    1    1    2  501    0  0.67356805732E+02  0.43410096985E+02 -0.26402499003E+03  0.27591768910E+03  0.00000000000E+00 0. -1.
          1    1    1    2  502    0  0.26212380419E+02  0.67323805189E+02  0.19876077444E+03  0.21148387430E+03  0.00000000000E+00 0. -1.
         22    1    3    3    0    0 -0.19787689136E+02 -0.86766803706E+02 -0.25343388164E+03  0.26860521818E+03  0.00000000000E+00 0. -1.
         22    1    3    3    0    0 -0.73781497016E+02 -0.23967098468E+02 -0.57634108624E+02  0.96642752381E+02  0.00000000000E+00 0. -1.
</event>
<event>
 7    1  0.5736319E-006  0.9285614E+02  0.7818608E-02  0.1341285E+00
          2   -1    0    0  502    0  0.00000000000E+00  0.00000000000E+00  0.99383836714E+03  0.99383836714E+03  0.00000000000E+00 0. -1.
          1   -1    0    0  501    0 -0.00000000000E+00 -0.00000000000E+00 -0.54330011089E+03  0.54330011089E+03  0.00000000000E+00 0. -1.
         25    2    1    2    0    0 -0.11164836800E+03 -0.61660771200E+02 -0.27638881267E+03  0.32906420751E+03  0.12500027248E+03 0.  0.
          2    1    1    2  501    0  0.85114264982E+02  0.56873054004E+01 -0.23198080975E+03  0.24716771561E+03  0.00000000000E+00 0. -1.
          1    1    1    2  502    0  0.26534103013E+02  0.55973465800E+02  0.95890787867E+03  0.96090655491E+03  0.00000000000E+00 0. -1.
         22    1    3    3    0    0 -0.10535156519E+03 -0.94184348533E+02 -0.24800384175E+03  0.28543922176E+03  0.00000000000E+00 0. -1.
         22    1    3    3    0    0 -0.62968028050E+01  0.32523577332E+02 -0.28384970915E+02  0.43624985753E+02  0.00000000000E+00 0. -1.
</event>
<event>
 7    1  0.5736319E-006  0.9535348E+02  0.7818608E-02  0.1458470E+00
          2   -1    0    0  502    0  0.00000000000E+00  0.00000000000E+00  0.38074137234E+03  0.38074137234E+03  0.00000000000E+00 0. -1.
          1   -1    0    0  501    0 -0.00000000000E+00 -0.00000000000E+00 -0.21912769718E+03  0.21912769718E+03  0.00000000000E+00 0. -1.
         25    2    1    2    0    0  0.92941560207E+02 -0.69199988405E+02  0.36527710296E+02  0.17431104575E+03  0.12499317998E+03 0.  0.
          2    1    1    2  501    0 -0.14896826825E+02  0.18570875846E+02 -0.14135375473E+03  0.14334460875E+03  0.00000000000E+00 0. -1.
          1    1    1    2  502    0 -0.78044733382E+02  0.50629112559E+02  0.26643971959E+03  0.28221341503E+03  0.00000000000E+00 0. -1.
         22    1    3    3    0    0  0.11609802202E+03 -0.77707229315E+02  0.13145397695E+02  0.14032093816E+03  0.00000000000E+00 0. -1.
         22    1    3    3    0    0 -0.23156461810E+02  0.85072409103E+01  0.23382312601E+02  0.33990107591E+02  0.00000000000E+00 0. -1.
</event>
<event>
 7    1  0.5736319E-006  0.1561352E+03  0.7818608E-02  0.1204709E+00
          2   -1    0    0  502    0  0.00000000000E+00  0.00000000000E+00  0.12112951265E+04  0.12112951265E+04  0.00000000000E+00 0. -1.
          1   -1    0    0  501    0 -0.00000000000E+00 -0.00000000000E+00 -0.37261012506E+03  0.37261012506E+03  0.00000000000E+00 0. -1.
         25    2    1    2    0    0  0.33688993537E+02  0.49496368374E+02  0.46209078363E+02  0.14609941965E+03  0.12499969092E+03 0.  0.
          2    1    1    2  501    0 -0.10094999271E+02 -0.18511351218E+03 -0.29131837899E+03  0.34530467610E+03  0.00000000000E+00 0. -1.
          1    1    1    2  502    0 -0.23593994266E+02  0.13561714381E+03  0.10837943020E+04  0.10925011558E+04  0.00000000000E+00 0. -1.
         22    1    3    3    0    0  0.35809181899E+02  0.58464189693E+02  0.83297458916E+02  0.10788338911E+03  0.00000000000E+00 0. -1.
         22    1    3    3    0    0 -0.21201883618E+01 -0.89678213196E+01 -0.37088380553E+02  0.38216030537E+02  0.00000000000E+00 0. -1.
</event>
<event>
 7    1  0.5736319E-006  0.7148105E+02  0.7818608E-02  0.1500836E+00
          2   -1    0    0  502    0  0.00000000000E+00  0.00000000000E+00  0.16237712871E+04  0.16237712871E+04  0.00000000000E+00 0. -1.
          1   -1    0    0  501    0 -0.00000000000E+00 -0.00000000000E+00 -0.10406404172E+03  0.10406404172E+03  0.00000000000E+00 0. -1.
         25    2    1    2    0    0 -0.20996417098E+02  0.83495139551E+02  0.13618401103E+04  0.13702722471E+04  0.12500102998E+03 0.  0.
          2    1    1    2  501    0  0.33028727707E+02 -0.63262777861E+02 -0.86457551892E+02  0.11210702117E+03  0.00000000000E+00 0. -1.
          1    1    1    2  502    0 -0.12032310609E+02 -0.20232361691E+02  0.24432468702E+03  0.24545606052E+03  0.00000000000E+00 0. -1.
         22    1    3    3    0    0 -0.13179999295E+02  0.11619440357E+03  0.11241978293E+04  0.11302635140E+04  0.00000000000E+00 0. -1.
         22    1    3    3    0    0 -0.78164178035E+01 -0.32699264019E+02  0.23764228099E+03  0.24000873311E+03  0.00000000000E+00 0. -1.
</event>
<event>
 7    1  0.5736319E-006  0.9084087E+02  0.7818608E-02  0.1365259E+00
          2   -1    0    0  502    0  0.00000000000E+00  0.00000000000E+00  0.31651345007E+04  0.31651345007E+04  0.00000000000E+00 0. -1.
          1   -1    0    0  501    0 -0.00000000000E+00 -0.00000000000E+00 -0.28912670961E+03  0.28912670961E+03  0.00000000000E+00 0. -1.
         25    2    1    2    0    0  0.47871476646E+02  0.14786113371E+01  0.10226186367E+02  0.13425505744E+03  0.12500392391E+03 0.  0.
          2    1    1    2  501    0 -0.95336808220E+02  0.18907324478E+02 -0.21648733261E+03  0.23730435963E+03  0.00000000000E+00 0. -1.
          1    1    1    2  502    0  0.47465331573E+02 -0.20385935815E+02  0.30822689374E+04  0.30827017933E+04  0.00000000000E+00 0. -1.
         22    1    3    3    0    0  0.33186279850E+02 -0.64641124619E+01 -0.56296682248E+02  0.65669097393E+02  0.00000000000E+00 0. -1.
         22    1    3    3    0    0  0.14685196796E+02  0.79427237989E+01  0.66522868616E+02  0.68585960044E+02  0.00000000000E+00 0. -1.
</event>
<event>
 7    1  0.5736319E-006  0.6134747E+02  0.7818608E-02  0.1536049E+00
          2   -1    0    0  502    0  0.00000000000E+00  0.00000000000E+00  0.49212605615E+02  0.49212605615E+02  0.00000000000E+00 0. -1.
          1   -1    0    0  501    0 -0.00000000000E+00 -0.00000000000E+00 -0.65455419215E+03  0.65455419215E+03  0.00000000000E+00 0. -1.
         25    2    1    2    0    0 -0.50796555745E+02  0.49542561253E+02 -0.25319839614E+03  0.29115116372E+03  0.12499926751E+03 0.  0.
          2    1    1    2  501    0  0.53549460043E+02 -0.28055539441E+02 -0.37574634702E+03  0.38057847451E+03  0.00000000000E+00 0. -1.
          1    1    1    2  502    0 -0.27529042980E+01 -0.21487021812E+02  0.23603156621E+02  0.32037159532E+02  0.00000000000E+00 0. -1.
         22    1    3    3    0    0  0.15030600273E+02  0.24474494824E+02 -0.40148880730E+00  0.28724223831E+02  0.00000000000E+00 0.  1.
         22    1    3    3    0    0 -0.65827156017E+02  0.25068066429E+02 -0.25279690733E+03  0.26242693989E+03  0.00000000000E+00 0.  1.
</event>
<event>
 7    1  0.5736319E-006  0.1042537E+03  0.7818608E-02  0.1302275E+00
          2   -1    0    0  502    0  0.00000000000E+00  0.00000000000E+00  0.35522695751E+03  0.35522695751E+03  0.00000000000E+00 0. -1.
          1   -1    0    0  501    0 -0.00000000000E+00 -0.00000000000E+00 -0.66285292194E+03  0.66285292194E+03  0.00000000000E+00 0. -1.
         25    2    1    2    0    0 -0.41339958007E+02 -0.10111584886E+02  0.40783938049E+02  0.13820161142E+03  0.12500047808E+03 0.  0.
          2    1    1    2  501    0  0.99480118753E+02 -0.42046418121E+02 -0.60350535987E+03  0.61309290870E+03  0.00000000000E+00 0. -1.
          1    1    1    2  502    0 -0.58140160746E+02  0.52158003007E+02  0.25509545740E+03  0.26678535933E+03  0.00000000000E+00 0. -1.
         22    1    3    3    0    0  0.15370909119E+02  0.24572272940E+02 -0.29572315248E+02  0.41407526776E+02  0.00000000000E+00 0. -1.
         22    1    3    3    0    0 -0.56710867126E+02 -0.34683857826E+02  0.70356253298E+02  0.96794084643E+02  0.00000000000E+00 0. -1.
</event>
<event>
 7    1  0.5736319E-006  0.1332242E+03  0.7818608E-02  0.1355471E+00
          2   -1    0    0  502    0  0.00000000000E+00  0.00000000000E+00  0.90645057255E+02  0.90645057255E+02  0.00000000000E+00 0. -1.
          1   -1    0    0  501    0 -0.00000000000E+00 -0.00000000000E+00 -0.19913804212E+04  0.19913804212E+04  0.00000000000E+00 0. -1.
         25    2    1    2    0    0 -0.14255195610E+02  0.16686416276E+03 -0.54826994835E+03  0.58674666156E+03  0.12499939668E+03 0.  0.
          2    1    1    2  501    0  0.82962688292E+01 -0.37331065433E+02 -0.13645143600E+04  0.13650501366E+04  0.00000000000E+00 0. -1.
          1    1    1    2  502    0  0.59589267808E+01 -0.12953309732E+03  0.12048944495E+02  0.13022868030E+03  0.00000000000E+00 0. -1.
         22    1    3    3    0    0  0.39936257941E+02  0.12756971845E+03 -0.43604271074E+03  0.45607256369E+03  0.00000000000E+00 0. -1.
         22    1    3    3    0    0 -0.54191453551E+02  0.39294444303E+02 -0.11222723761E+03  0.13067409786E+03  0.00000000000E+00 0. -1.
</event>
<event>
 7    1  0.5736319E-006  0.9431856E+02  0.7818608E-02  0.1348900E+00
          2   -1    0    0  502    0  0.00000000000E+00  0.00000000000E+00  0.88844814274E+03  0.88844814274E+03  0.00000000000E+00 0. -1.
          1   -1    0    0  501    0 -0.00000000000E+00 -0.00000000000E+00 -0.11702395226E+04  0.11702395226E+04  0.00000000000E+00 0. -1.
         25    2    1    2    0    0 -0.72393613194E+01  0.39758945003E+02 -0.66086500570E+02  0.14705549486E+03  0.12499884379E+03 0.  0.
          2    1    1    2  501    0  0.93634138928E+01 -0.96839527867E+02 -0.10604773040E+04  0.10649308335E+04  0.00000000000E+00 0. -1.
          1    1    1    2  502    0 -0.21240525735E+01  0.57080582865E+02  0.84477242473E+03  0.84670133703E+03  0.00000000000E+00 0. -1.
         22    1    3    3    0    0 -0.41240085061E+02 -0.17623609291E+02 -0.66673491978E+02  0.80353536031E+02  0.00000000000E+00 0. -1.
         22    1    3    3    0    0  0.34000723741E+02  0.57382554293E+02  0.58699140783E+00  0.66701958825E+02  0.00000000000E+00 0. -1.
</event>
<event>
 7    1  0.5736319E-006  0.6645309E+02  0.7818608E-02  0.1441258E+00
          2   -1    0    0  502    0  0.00000000000E+00  0.00000000000E+00  0.68182071271E+03  0.68182071271E+03  0.00000000000E+00 0. -1.
          1   -1    0    0  501    0 -0.00000000000E+00 -0.00000000000E+00 -0.31228251125E+03  0.31228251125E+03  0.00000000000E+00 0. -1.
         25    2    1    2    0    0  0.63340594148E+02 -0.20263862125E+02  0.20713650530E+02  0.14310520818E+03  0.12500956089E+03 0.  0.
          2    1    1    2  501    0  0.82881483465E+00  0.38771664988E+02 -0.24771471768E+03  0.25073194910E+03  0.00000000000E+00 0. -1.
          1    1    1    2  502    0 -0.64169408983E+02 -0.18507802863E+02  0.59653926861E+03  0.60026606668E+03  0.00000000000E+00 0. -1.
         22    1    3    3    0    0 -0.33581376559E+02  0.84993862352E+01 -0.12288192468E+02  0.36755245777E+02  0.00000000000E+00 0.  1.
         22    1    3    3    0    0  0.96921970708E+02 -0.28763248360E+02  0.33001842998E+02  0.10634996240E+03  0.00000000000E+00 0.  1.
</event>
<event>
 7    1  0.5736319E-006  0.5046029E+02  0.7818608E-02  0.1489798E+00
          2   -1    0    0  502    0  0.00000000000E+00  0.00000000000E+00  0.16450185831E+03  0.16450185831E+03  0.00000000000E+00 0. -1.
          1   -1    0    0  501    0 -0.00000000000E+00 -0.00000000000E+00 -0.26170828924E+03  0.26170828924E+03  0.00000000000E+00 0. -1.
         25    2    1    2    0    0 -0.23575213651E+02  0.89404691482E+01 -0.57738261618E+02  0.13998699944E+03  0.12500772164E+03 0.  0.
          2    1    1    2  501    0  0.30363783507E+02 -0.44285586879E+02 -0.15561993051E+03  0.16462300971E+03  0.00000000000E+00 0. -1.
          1    1    1    2  502    0 -0.67885698563E+01  0.35345117731E+02  0.11615176120E+03  0.12160013839E+03  0.00000000000E+00 0. -1.
         22    1    3    3    0    0  0.32235832669E+02 -0.25548477669E+02 -0.61818883576E+02  0.74252595818E+02  0.00000000000E+00 0. -1.
         22    1    3    3    0    0 -0.55811046320E+02  0.34488946817E+02  0.40806219583E+01  0.65734403621E+02  0.00000000000E+00 0. -1.
</event>
<event>
 7    1  0.5736319E-006  0.5472313E+02  0.7818608E-02  0.1443482E+00
          2   -1    0    0  502    0  0.00000000000E+00  0.00000000000E+00  0.18957767702E+04  0.18957767702E+04  0.00000000000E+00 0. -1.
          1   -1    0    0  501    0 -0.00000000000E+00 -0.00000000000E+00 -0.20779695481E+02  0.20779695481E+02  0.00000000000E+00 0. -1.
         25    2    1    2    0    0  0.16890026108E+02  0.56747791485E+01  0.11917601945E+04  0.11984303398E+04  0.12500176891E+03 0.  0.
          2    1    1    2  501    0 -0.49352595423E+02  0.27366063442E+02  0.31271387078E+02  0.64517282592E+02  0.00000000000E+00 0. -1.
          1    1    1    2  502    0  0.32462569314E+02 -0.33040842590E+02  0.65196549319E+03  0.65360884327E+03  0.00000000000E+00 0. -1.
         22    1    3    3    0    0  0.30478545093E+02  0.28061938642E+02  0.13204981313E+03  0.13839641346E+03  0.00000000000E+00 0.  1.
         22    1    3    3    0    0 -0.13588518984E+02 -0.22387159494E+02  0.10597103813E+04  0.10600339264E+04  0.00000000000E+00 0.  1.
</event>
<event>
 7    1  0.5736319E-006  0.3645880E+02  0.7818608E-02  0.1576329E+00
          2   -1    0    0  502    0  0.00000000000E+00  0.00000000000E+00  0.26723372949E+03  0.26723372949E+03  0.00000000000E+00 0. -1.
          1   -1    0    0  501    0 -0.00000000000E+00 -0.00000000000E+00 -0.55312434479E+02  0.55312434479E+02  0.00000000000E+00 0. -1.
         25    2    1    2    0    0 -0.14722581633E+02 -0.13453393769E+01  0.19579224114E+03  0.23274094325E+03  0.12496071634E+03 0.  0.
          2    1    1    2  501    0 -0.25625757327E+02 -0.25933845727E+02  0.18813374211E+02  0.41026660137E+02  0.00000000000E+00 0. -1.
          1    1    1    2  502    0  0.40348338960E+02  0.27279185104E+02 -0.26843203382E+01  0.48778560582E+02  0.00000000000E+00 0. -1.
         22    1    3    3    0    0 -0.44229185413E+02  0.42025542355E+02  0.53708926581E+02  0.81283552131E+02  0.00000000000E+00 0. -1.
         22    1    3    3    0    0  0.29506603781E+02 -0.43370881732E+02  0.14208331456E+03  0.15145739112E+03  0.00000000000E+00 0. -1.
</event>
<event>
 7    1  0.5736319E-006  0.8131553E+02  0.7818608E-02  0.1415052E+00
          2   -1    0    0  502    0  0.00000000000E+00  0.00000000000E+00  0.38548583753E+03  0.38548583753E+03  0.00000000000E+00 0. -1.
          1   -1    0    0  501    0 -0.00000000000E+00 -0.00000000000E+00 -0.20291386768E+03  0.20291386768E+03  0.00000000000E+00 0. -1.
         25    2    1    2    0    0  0.44265537030E+02  0.10523502810E+03 -0.12957577098E+02  0.16978233957E+03  0.12499718044E+03 0.  0.
          2    1    1    2  501    0 -0.27137222271E+02 -0.27560430374E+02 -0.10281615268E+03  0.10985065957E+03  0.00000000000E+00 0. -1.
          1    1    1    2  502    0 -0.17128314758E+02 -0.77674597721E+02  0.29834569963E+03  0.30876670608E+03  0.00000000000E+00 0. -1.
         22    1    3    3    0    0  0.17806098724E+02 -0.28125149982E+02 -0.10902581399E+01  0.33305703357E+02  0.00000000000E+00 0. -1.
         22    1    3    3    0    0  0.26459438306E+02  0.13336017808E+03 -0.11867318958E+02  0.13647663621E+03  0.00000000000E+00 0. -1.
</event>
<event>
 7    1  0.5736319E-006  0.8177674E+02  0.7818608E-02  0.1382081E+00
          2   -1    0    0  502    0  0.00000000000E+00  0.00000000000E+00  0.35839057980E+03  0.35839057980E+03  0.00000000000E+00 0. -1.
          1   -1    0    0  501    0 -0.00000000000E+00 -0.00000000000E+00 -0.28741189506E+03  0.28741189506E+03  0.00000000000E+00 0. -1.
         25    2    1    2    0    0  0.71058377033E+02  0.50482548034E+02 -0.14804605038E+03  0.21246098042E+03  0.12499701823E+03 0.  0.
          2    1    1    2  501    0 -0.84043608191E+02 -0.22373395338E+01 -0.88334485977E+02  0.12194800195E+03  0.00000000000E+00 0. -1.
          1    1    1    2  502    0  0.12985231158E+02 -0.48245208500E+02  0.30735922110E+03  0.31139349249E+03  0.00000000000E+00 0. -1.
         22    1    3    3    0    0  0.72482814419E+02  0.60540157756E+02 -0.16648700500E+03  0.19140739777E+03  0.00000000000E+00 0. -1.
         22    1    3    3    0    0 -0.14244373864E+01 -0.10057609722E+02  0.18440954620E+02  0.21053582652E+02  0.00000000000E+00 0. -1.
</event>
<event>
 7    1  0.5736319E-006  0.5934146E+02  0.7818608E-02  0.1464334E+00
          2   -1    0    0  502    0  0.00000000000E+00  0.00000000000E+00  0.90893315822E+02  0.90893315822E+02  0.00000000000E+00 0. -1.
          1   -1    0    0  501    0 -0.00000000000E+00 -0.00000000000E+00 -0.60165474951E+03  0.60165474951E+03  0.00000000000E+00 0. -1.
         25    2    1    2    0    0  0.52371571125E+02 -0.66632691917E+02 -0.48550011205E+02  0.15863518677E+03  0.12500128719E+03 0.  0.
          2    1    1    2  501    0 -0.17251764825E+02  0.56108520940E+02 -0.48643909916E+03  0.48996814866E+03  0.00000000000E+00 0. -1.
          1    1    1    2  502    0 -0.35119806300E+02  0.10524170978E+02  0.24227676674E+02  0.43944729904E+02  0.00000000000E+00 0. -1.
         22    1    3    3    0    0  0.10884323147E+02 -0.97963925245E+02 -0.25805245932E+02  0.10188871310E+03  0.00000000000E+00 0.  1.
         22    1    3    3    0    0  0.41487247978E+02  0.31331233327E+02 -0.22744765273E+02  0.56746473669E+02  0.00000000000E+00 0.  1.
</event>
<event>
 7    1  0.5736319E-006  0.9013133E+02  0.7818608E-02  0.1371184E+00
          2   -1    0    0  502    0  0.00000000000E+00  0.00000000000E+00  0.45661186474E+03  0.45661186474E+03  0.00000000000E+00 0. -1.
          1   -1    0    0  501    0 -0.00000000000E+00 -0.00000000000E+00 -0.24614194700E+04  0.24614194700E+04  0.00000000000E+00 0. -1.
         25    2    1    2    0    0  0.57026695654E+02 -0.42418761327E+02 -0.28674142283E+03  0.32077617183E+03  0.12500125406E+03 0.  0.
          2    1    1    2  501    0 -0.32924331054E+02  0.85730232520E+02 -0.21552825431E+04  0.21572381706E+04  0.00000000000E+00 0. -1.
          1    1    1    2  502    0 -0.24102364599E+02 -0.43311471194E+02  0.43721636063E+03  0.44001699230E+03  0.00000000000E+00 0. -1.
         22    1    3    3    0    0  0.86228784633E+01 -0.78264482959E+02 -0.20205759259E+03  0.21685698985E+03  0.00000000000E+00 0.  1.
         22    1    3    3    0    0  0.48403817190E+02  0.35845721632E+02 -0.84683830243E+02  0.10391918198E+03  0.00000000000E+00 0.  1.
</event>
<event>
 7    1  0.5736319E-006  0.7166091E+02  0.7818608E-02  0.1434183E+00
          2   -1    0    0  502    0  0.00000000000E+00  0.00000000000E+00  0.59063431773E+02  0.59063431773E+02  0.00000000000E+00 0. -1.
          1   -1    0    0  501    0 -0.00000000000E+00 -0.00000000000E+00 -0.31276523850E+03  0.31276523850E+03  0.00000000000E+00 0. -1.
         25    2    1    2    0    0  0.11312056623E+02 -0.44556063718E+02 -0.62719446366E+02  0.14721361204E+03  0.12499965272E+03 0.  0.
          2    1    1    2  501    0  0.34079385865E+01  0.79503969278E+02 -0.11727651618E+03  0.14172606120E+03  0.00000000000E+00 0. -1.
          1    1    1    2  502    0 -0.14719995210E+02 -0.34947905560E+02 -0.73705844183E+02  0.82888997030E+02  0.00000000000E+00 0. -1.
         22    1    3    3    0    0 -0.11342322985E+02  0.41616857064E+02 -0.28844623005E+02  0.51890493917E+02  0.00000000000E+00 0.  1.
         22    1    3    3    0    0  0.22654379609E+02 -0.86172920782E+02 -0.33874823361E+02  0.95323118127E+02  0.00000000000E+00 0.  1.
</event>
<event>
 7    1  0.5736319E-006  0.4703808E+02  0.7818608E-02  0.1560231E+00
          2   -1    0    0  502    0  0.00000000000E+00  0.00000000000E+00  0.16986982900E+04  0.16986982900E+04  0.00000000000E+00 0. -1.
          1   -1    0    0  501    0 -0.00000000000E+00 -0.00000000000E+00 -0.86980634980E+03  0.86980634980E+03  0.00000000000E+00 0. -1.
         25    2    1    2    0    0  0.61929395455E+02 -0.34840406334E+02  0.49777622000E+02  0.15215314628E+03  0.12499465723E+03 0.  0.
          2    1    1    2  501    0 -0.40867710479E+02  0.22965514012E+02 -0.81785587371E+03  0.81919827561E+03  0.00000000000E+00 0. -1.
          1    1    1    2  502    0 -0.21061684976E+02  0.11874892322E+02  0.15969701919E+04  0.15971532179E+04  0.00000000000E+00 0. -1.
         22    1    3    3    0    0  0.60247493292E+02 -0.70764021852E+02  0.64675587034E+02  0.11322649334E+03  0.00000000000E+00 0. -1.
         22    1    3    3    0    0  0.16819021630E+01  0.35923615518E+02 -0.14897965034E+02  0.38926652938E+02  0.00000000000E+00 0. -1.
</event>
<event>
 7    1  0.5736319E-006  0.8481637E+02  0.7818608E-02  0.1337119E+00
          2   -1    0    0  502    0  0.00000000000E+00  0.00000000000E+00  0.97242660467E+03  0.97242660467E+03  0.00000000000E+00 0. -1.
          1   -1    0    0  501    0 -0.00000000000E+00 -0.00000000000E+00 -0.34200708842E+03  0.34200708842E+03  0.00000000000E+00 0. -1.
         25    2    1    2    0    0  0.20637700973E+02 -0.17314240592E+02 -0.11371693586E+03  0.17112113485E+03  0.12500081465E+03 0.  0.
          2    1    1    2  501    0 -0.82645759360E+02 -0.40554727527E+02 -0.18694131180E+03  0.20837960919E+03  0.00000000000E+00 0. -1.
          1    1    1    2  502    0  0.62008058387E+02  0.57868968119E+02  0.93107776391E+03  0.93493294905E+03  0.00000000000E+00 0. -1.
         22    1    3    3    0    0 -0.46486728865E+02  0.19014214059E+02 -0.57381464726E+02  0.76257385157E+02  0.00000000000E+00 0. -1.
         22    1    3    3    0    0  0.67124429838E+02 -0.36328454652E+02 -0.56335471132E+02  0.94863749695E+02  0.00000000000E+00 0. -1.
</event>
<event>
 7    1  0.5736319E-006  0.1154931E+03  0.7818608E-02  0.1276221E+00
          2   -1    0    0  502    0  0.00000000000E+00  0.00000000000E+00  0.32842321183E+04  0.32842321183E+04  0.00000000000E+00 0. -1.
          1   -1    0    0  501    0 -0.00000000000E+00 -0.00000000000E+00 -0.25825784714E+03  0.25825784714E+03  0.00000000000E+00 0. -1.
         25    2    1    2    0    0  0.32799845521E+02  0.72787051482E+01  0.14064463381E+03  0.19113310479E+03  0.12498856472E+03 0.  0.
          2    1    1    2  501    0 -0.12113086452E+03 -0.24628130958E+02 -0.21592137185E+03  0.24879965835E+03  0.00000000000E+00 0. -1.
          1    1    1    2  502    0  0.88331019001E+02  0.17349425809E+02  0.31012510092E+04  0.31025572023E+04  0.00000000000E+00 0. -1.
         22    1    3    3    0    0  0.78591049935E+02 -0.12372793362E+02  0.84260060900E+02  0.11588527520E+03  0.00000000000E+00 0. -1.
         22    1    3    3    0    0 -0.45791204414E+02  0.19651498511E+02  0.56384572911E+02  0.75247829588E+02  0.00000000000E+00 0. -1.
</event>
<event>
 7    1  0.5736319E-006  0.3894536E+02  0.7818608E-02  0.1523904E+00
          2   -1    0    0  502    0  0.00000000000E+00  0.00000000000E+00  0.72262969820E+03  0.72262969820E+03  0.00000000000E+00 0. -1.
          1   -1    0    0  501    0 -0.00000000000E+00 -0.00000000000E+00 -0.31163428422E+03  0.31163428422E+03  0.00000000000E+00 0. -1.
         25    2    1    2    0    0  0.34579602107E+02  0.36838462004E+02  0.92801721882E+02  0.16367572013E+03  0.12499904244E+03 0.  0.
          2    1    1    2  501    0 -0.38988757737E+02 -0.13241486347E+00 -0.27424225296E+03  0.27699991710E+03  0.00000000000E+00 0. -1.
          1    1    1    2  502    0  0.44091556298E+01 -0.36706047140E+02  0.59243594506E+03  0.59358834520E+03  0.00000000000E+00 0. -1.
         22    1    3    3    0    0 -0.10832996252E+02 -0.38423741036E+02  0.55070268928E+02  0.68018175533E+02  0.00000000000E+00 0. -1.
         22    1    3    3    0    0  0.45412598360E+02  0.75262203040E+02  0.37731452954E+02  0.95657544597E+02  0.00000000000E+00 0. -1.
</event>
<event>
 7    1  0.5736319E-006  0.6503142E+02  0.7818608E-02  0.1386626E+00
          2   -1    0    0  502    0  0.00000000000E+00  0.00000000000E+00  0.16523199699E+03  0.16523199699E+03  0.00000000000E+00 0. -1.
          1   -1    0    0  501    0 -0.00000000000E+00 -0.00000000000E+00 -0.34651945166E+03  0.34651945166E+03  0.00000000000E+00 0. -1.
         25    2    1    2    0    0  0.13881870885E+02  0.19927909612E+02  0.58749635093E+02  0.14023442326E+03  0.12499738366E+03 0.  0.
          2    1    1    2  501    0  0.31882039273E+02  0.56679993113E+02 -0.26973901369E+03  0.27746751441E+03  0.00000000000E+00 0. -1.
          1    1    1    2  502    0 -0.45763910158E+02 -0.76607902725E+02  0.29701923924E+02  0.94049510990E+02  0.00000000000E+00 0. -1.
         22    1    3    3    0    0  0.16593465801E+02 -0.16976429943E+02  0.89204805582E+02  0.92309477411E+02  0.00000000000E+00 0.  1.
         22    1    3    3    0    0 -0.27115949165E+01  0.36904339555E+02 -0.30455170489E+02  0.47924945847E+02  0.00000000000E+00 0.  1.
</event>
<event>
 7    1  0.5736319E-006  0.1310538E+03  0.7818608E-02  0.1314384E+00
          2   -1    0    0  502    0  0.00000000000E+00  0.00000000000E+00  0.10514240955E+04  0.10514240955E+04  0.00000000000E+00 0. -1.
          1   -1    0    0  501    0 -0.00000000000E+00 -0.00000000000E+00 -0.28023515869E+03  0.28023515869E+03  0.00000000000E+00 0. -1.
         25    2    1    2    0    0 -0.14423705832E+02  0.18460623612E+03  0.55276699468E+03  0.59620863059E+03  0.12500350028E+03 0.  0.
          2    1    1    2  501    0  0.10017196033E+02 -0.12912774809E+03 -0.24050523427E+03  0.27316128433E+03  0.00000000000E+00 0. -1.
          1    1    1    2  502    0  0.44065097995E+01 -0.55478488031E+02  0.45892717636E+03  0.46228933923E+03  0.00000000000E+00 0. -1.
         22    1    3    3    0    0 -0.20571273559E+02  0.17598964830E+03  0.55722891811E+03  0.58472181487E+03  0.00000000000E+00 0. -1.
         22    1    3    3    0    0  0.61475677263E+01  0.86165878189E+01 -0.44619234374E+01  0.11486815719E+02  0.00000000000E+00 0. -1.
</event>
<event>
 7    1  0.7214595E-006  0.1207998E+03  0.7818608E-02  0.1281782E+00
          2   -1    0    0  502    0  0.00000000000E+00  0.00000000000E+00  0.11829406689E+04  0.11829406689E+04  0.00000000000E+00 0. -1.
          1   -1    0    0  501    0 -0.00000000000E+00 -0.00000000000E+00 -0.17035160696E+04  0.17035160696E+04  0.00000000000E+00 0. -1.
         25    2    1    2    0    0  0.15033075264E+03  0.34581751549E+01 -0.15706598445E+03  0.25080691038E+03  0.12499235440E+03 0.  0.
          2    1    1    2  501    0 -0.47375716901E+02 -0.66465069715E+02 -0.14952572990E+04  0.14974833736E+04  0.00000000000E+00 0. -1.
          1    1    1    2  502    0 -0.10295503574E+03  0.63006894560E+02  0.11317478827E+04  0.11381664545E+04  0.00000000000E+00 0. -1.
         22    1    3    3    0    0  0.74843148458E+02 -0.56563192604E+02 -0.10645298865E+03  0.14189126267E+03  0.00000000000E+00 0. -1.
         22    1    3    3    0    0  0.75487604182E+02  0.60021367759E+02 -0.50612995801E+02  0.10891564771E+03  0.00000000000E+00 0. -1.
</event>
<event>
 7    1  0.5736319E-006  0.3179016E+03  0.7818608E-02  0.1313041E+00
          2   -1    0    0  502    0  0.00000000000E+00  0.00000000000E+00  0.66792341768E+03  0.66792341768E+03  0.00000000000E+00 0. -1.
          1   -1    0    0  501    0 -0.00000000000E+00 -0.00000000000E+00 -0.50010151174E+03  0.50010151174E+03  0.00000000000E+00 0. -1.
         25    2    1    2    0    0 -0.28099661833E+03 -0.14640752730E+03  0.39243954497E+03  0.51964200662E+03  0.12499902013E+03 0.  0.
          2    1    1    2  501    0 -0.13110313732E+02  0.19167831404E+02 -0.31466484157E+03  0.31552059933E+03  0.00000000000E+00 0. -1.
          1    1    1    2  502    0  0.29410693206E+03  0.12723969589E+03  0.90047202548E+02  0.33286232347E+03  0.00000000000E+00 0. -1.
         22    1    3    3    0    0 -0.16151803916E+03 -0.58628358471E+02  0.29760421428E+03  0.34364753709E+03  0.00000000000E+00 0.  1.
         22    1    3    3    0    0 -0.11947857917E+03 -0.87779168827E+02  0.94835330688E+02  0.17599446953E+03  0.00000000000E+00 0.  1.
</event>
<event>
 7    1  0.5736319E-006  0.2277381E+03  0.7818608E-02  0.1231445E+00
          2   -1    0    0  502    0  0.00000000000E+00  0.00000000000E+00  0.55026428321E+03  0.55026428321E+03  0.00000000000E+00 0. -1.
          1   -1    0    0  501    0 -0.00000000000E+00 -0.00000000000E+00 -0.16715677297E+03  0.16715677297E+03  0.00000000000E+00 0. -1.
         25    2    1    2    0    0 -0.47200022534E+02 -0.26078347583E+03  0.20556081021E+03  0.35793323467E+03  0.12500036157E+03 0.  0.
          2    1    1    2  501    0  0.77592665510E+02  0.19638358869E+03  0.55735715593E+02  0.21838865731E+03  0.00000000000E+00 0. -1.
          1    1    1    2  502    0 -0.30392642976E+02  0.64399887136E+02  0.12181098444E+03  0.14109916421E+03  0.00000000000E+00 0. -1.
         22    1    3    3    0    0 -0.73534212426E+02 -0.19029333734E+03  0.19451641246E+03  0.28187846556E+03  0.00000000000E+00 0.  1.
         22    1    3    3    0    0  0.26334189892E+02 -0.70490138489E+02  0.11044397751E+02  0.76054769102E+02  0.00000000000E+00 0.  1.
</event>
<event>
 7    1  0.5736319E-006  0.1191966E+03  0.7818608E-02  0.1265754E+00
          2   -1    0    0  502    0  0.00000000000E+00  0.00000000000E+00  0.17985342464E+03  0.17985342464E+03  0.00000000000E+00 0. -1.
          1   -1    0    0  501    0 -0.00000000000E+00 -0.00000000000E+00 -0.10738811501E+04  0.10738811501E+04  0.00000000000E+00 0. -1.
         25    2    1    2    0    0 -0.59876418153E+02 -0.52011535836E+02 -0.22049678959E+02  0.14967230851E+03  0.12500090513E+03 0.  0.
          2    1    1    2  501    0 -0.88067599360E+02  0.39440078878E+02 -0.93701155886E+03  0.94196713495E+03  0.00000000000E+00 0. -1.
          1    1    1    2  502    0  0.14794401751E+03  0.12571456958E+02  0.65033512383E+02  0.16209513127E+03  0.00000000000E+00 0. -1.
         22    1    3    3    0    0 -0.21213221061E+02  0.72741164790E+01  0.46195563408E+02  0.51351179119E+02  0.00000000000E+00 0.  1.
         22    1    3    3    0    0 -0.38663197091E+02 -0.59285652315E+02 -0.68245242367E+02  0.98321129395E+02  0.00000000000E+00 0.  1.
</event>
<event>
 7    1  0.5736319E-006  0.9808908E+02  0.7818608E-02  0.1303026E+00
          2   -1    0    0  502    0  0.00000000000E+00  0.00000000000E+00  0.27398733119E+04  0.27398733119E+04  0.00000000000E+00 0. -1.
          1   -1    0    0  501    0 -0.00000000000E+00 -0.00000000000E+00 -0.20950246106E+03  0.20950246106E+03  0.00000000000E+00 0. -1.
         25    2    1    2    0    0 -0.76634042042E+01 -0.50753694024E+02  0.95969940112E+02  0.16575492745E+03  0.12501920392E+03 0.  0.
          2    1    1    2  501    0 -0.82161484337E+02  0.68474454375E+01 -0.16386235685E+03  0.18343464507E+03  0.00000000000E+00 0. -1.
          1    1    1    2  502    0  0.89824888542E+02  0.43906248586E+02  0.25982632676E+04  0.26001862005E+04  0.00000000000E+00 0. -1.
         22    1    3    3    0    0  0.13327836798E+02 -0.87157593614E+02  0.84665151448E+02  0.12223855868E+03  0.00000000000E+00 0. -1.
         22    1    3    3    0    0 -0.20991241003E+02  0.36403899590E+02  0.11304788664E+02  0.43516368770E+02  0.00000000000E+00 0. -1.
</event>
<event>
 7    1  0.5736319E-006  0.4636648E+02  0.7818608E-02  0.1511067E+00
          2   -1    0    0  502    0  0.00000000000E+00  0.00000000000E+00  0.16201807143E+04  0.16201807143E+04  0.00000000000E+00 0. -1.
          1   -1    0    0  501    0 -0.00000000000E+00 -0.00000000000E+00 -0.68569427972E+03  0.68569427972E+03  0.00000000000E+00 0. -1.
         25    2    1    2    0    0  0.38556672790E+02  0.48434331053E+02  0.17554629972E+03  0.22421679596E+03  0.12499666717E+03 0.  0.
          2    1    1    2  501    0 -0.43846506411E+02 -0.15004454993E+02 -0.66034519956E+03  0.66196935909E+03  0.00000000000E+00 0. -1.
          1    1    1    2  502    0  0.52898336212E+01 -0.33429876060E+02  0.14192853344E+04  0.14196888389E+04  0.00000000000E+00 0. -1.
         22    1    3    3    0    0  0.93328137216E+01  0.82474343612E+02  0.15286653807E+03  0.17394624810E+03  0.00000000000E+00 0. -1.
         22    1    3    3    0    0  0.29223859068E+02 -0.34040012559E+02  0.22679761651E+02  0.50270547863E+02  0.00000000000E+00 0. -1.
</event>
<event>
 7    1  0.5736319E-006  0.1933588E+03  0.7818608E-02  0.1205888E+00
          2   -1    0    0  502    0  0.00000000000E+00  0.00000000000E+00  0.78704809720E+03  0.78704809720E+03  0.00000000000E+00 0. -1.
          1   -1    0    0  501    0 -0.00000000000E+00 -0.00000000000E+00 -0.17615468193E+03  0.17615468193E+03  0.00000000000E+00 0. -1.
         25    2    1    2    0    0 -0.89144029056E+02  0.11880348170E+03  0.30106628853E+03  0.35822610476E+03  0.12499642739E+03 0.  0.
          2    1    1    2  501    0 -0.27315585553E+02  0.10629979636E+03 -0.82918462102E+02  0.13755456836E+03  0.00000000000E+00 0. -1.
          1    1    1    2  502    0  0.11645961461E+03 -0.22510327806E+03  0.39274558884E+03  0.46742210601E+03  0.00000000000E+00 0. -1.
         22    1    3    3    0    0 -0.64076172542E+02  0.85396069523E+02  0.80422060948E+02  0.13366357943E+03  0.00000000000E+00 0.  1.
         22    1    3    3    0    0 -0.25067856514E+02  0.33407412179E+02  0.22064422759E+03  0.22456252534E+03  0.00000000000E+00 0.  1.
</event>
<event>
 7    1  0.5736319E-006  0.9081003E+02  0.7818608E-02  0.1387161E+00
          2   -1    0    0  502    0  0.00000000000E+00  0.00000000000E+00  0.14702148226E+04  0.14702148226E+04  0.00000000000E+00 0. -1.
          1   -1    0    0  501    0 -0.00000000000E+00 -0.00000000000E+00 -0.29625343757E+02  0.29625343757E+02  0.00000000000E+00 0. -1.
         25    2    1    2    0    0 -0.81130828631E+02  0.25977635860E+02  0.24127785384E+03  0.28477571173E+03  0.12500061727E+03 0.  0.
          2    1    1    2  501    0  0.16702670740E+02  0.39817319154E+02  0.71690466180E+02  0.83689432162E+02  0.00000000000E+00 0. -1.
          1    1    1    2  502    0  0.64428157890E+02 -0.65794955014E+02  0.11276211588E+04  0.11313750224E+04  0.00000000000E+00 0. -1.
         22    1    3    3    0    0 -0.55126005531E+02 -0.38310303959E+01  0.18142409663E+02  0.58160986134E+02  0.00000000000E+00 0.  1.
         22    1    3    3    0    0 -0.26004823100E+02  0.29808666255E+02  0.22313544418E+03  0.22661472560E+03  0.00000000000E+00 0.  1.
</event>
<event>
 7    1  0.5736319E-006  0.1240955E+03  0.7818608E-02  0.1373469E+00
          2   -1    0    0  502    0  0.00000000000E+00  0.00000000000E+00  0.39582870631E+03  0.39582870631E+03  0.00000000000E+00 0. -1.
          1   -1    0    0  501    0 -0.00000000000E+00 -0.00000000000E+00 -0.69487568435E+03  0.69487568435E+03  0.00000000000E+00 0. -1.
         25    2    1    2    0    0 -0.67694933895E+02  0.10115359673E+03 -0.14865609462E+03  0.22921131200E+03  0.12499814748E+03 0.  0.
          2    1    1    2  501    0 -0.28015625052E+02 -0.21522079504E+02 -0.49439254985E+03  0.49565317360E+03  0.00000000000E+00 0. -1.
          1    1    1    2  502    0  0.95710558946E+02 -0.79631517231E+02  0.34400166643E+03  0.36583990506E+03  0.00000000000E+00 0. -1.
         22    1    3    3    0    0  0.15690225834E+02 -0.36479482570E+01  0.11975684021E+02  0.20072561395E+02  0.00000000000E+00 0. -1.
         22    1    3    3    0    0 -0.83385159728E+02  0.10480154499E+03 -0.16063177865E+03  0.20913875061E+03  0.00000000000E+00 0. -1.
</event>
<event>
 7    1  0.5736319E-006  0.6670432E+02  0.7818608E-02  0.1393553E+00
          2   -1    0    0  502    0  0.00000000000E+00  0.00000000000E+00  0.15884738833E+04  0.15884738833E+04  0.00000000000E+00 0. -1.
          1   -1    0    0  501    0 -0.00000000000E+00 -0.00000000000E+00 -0.28713676734E+03  0.28713676734E+03  0.00000000000E+00 0. -1.
         25    2    1    2    0    0  0.24657697238E+02  0.16087947497E+02 -0.99595673013E+02  0.16251493785E+03  0.12499993141E+03 0.  0.
          2    1    1    2  501    0 -0.23027459669E+02  0.50872226256E+02 -0.15034097637E+03  0.16037660826E+03  0.00000000000E+00 0. -1.
          1    1    1    2  502    0 -0.16302375692E+01 -0.66960173753E+02  0.15512737654E+04  0.15527191046E+04  0.00000000000E+00 0. -1.
         22    1    3    3    0    0  0.14454693168E+02 -0.12995933561E+02 -0.12255179408E+03  0.12408374058E+03  0.00000000000E+00 0.  1.
         22    1    3    3    0    0  0.10203004070E+02  0.29083881057E+02  0.22956121064E+02  0.38431197271E+02  0.00000000000E+00 0.  1.
</event>
<event>
 7    1  0.5736319E-006  0.1307668E+03  0.7818608E-02  0.1407097E+00
          2   -1    0    0  502    0  0.00000000000E+00  0.00000000000E+00  0.13070095672E+04  0.13070095672E+04  0.00000000000E+00 0. -1.
          1   -1    0    0  501    0 -0.00000000000E+00 -0.00000000000E+00 -0.53149939341E+02  0.53149939341E+02  0.00000000000E+00 0. -1.
         25    2    1    2    0    0 -0.94452350162E+02  0.84855761648E+02  0.95825990000E+03  0.97468326441E+03  0.12499473281E+03 0.  0.
          2    1    1    2  501    0  0.86713540290E+01  0.24075273919E+02 -0.25249979100E+02  0.35949584692E+02  0.00000000000E+00 0. -1.
          1    1    1    2  502    0  0.85780996133E+02 -0.10893103557E+03  0.32084970696E+03  0.34952665744E+03  0.00000000000E+00 0. -1.
         22    1    3    3    0    0 -0.49248063550E+02  0.56900922820E+02  0.85722050236E+03  0.86051733071E+03  0.00000000000E+00 0.  1.
         22    1    3    3    0    0 -0.45204286613E+02  0.27954838828E+02  0.10103939764E+03  0.11416593370E+03  0.00000000000E+00 0.  1.
</event>
<event>
 7    1  0.5736319E-006  0.1150598E+03  0.7818608E-02  0.1296757E+00
          2   -1    0    0  502    0  0.00000000000E+00  0.00000000000E+00  0.83968829256E+03  0.83968829256E+03  0.00000000000E+00 0. -1.
          1   -1    0    0  501    0 -0.00000000000E+00 -0.00000000000E+00 -0.41014653762E+03  0.41014653762E+03  0.00000000000E+00 0. -1.
         25    2    1    2    0    0  0.55126968123E+02  0.89767433585E+02  0.81329050179E+02  0.18258377373E+03  0.12500098111E+03 0.  0.
          2    1    1    2  501    0 -0.69217126431E+02  0.27466613084E+02 -0.35065680227E+03  0.35847680316E+03  0.00000000000E+00 0. -1.
          1    1    1    2  502    0  0.14090158308E+02 -0.11723404667E+03  0.69886950703E+03  0.70877425328E+03  0.00000000000E+00 0. -1.
         22    1    3    3    0    0  0.14712029943E+02  0.10499533766E+03  0.20504512989E+02  0.10798564630E+03  0.00000000000E+00 0. -1.
         22    1    3    3    0    0  0.40414938180E+02 -0.15227904073E+02  0.60824537191E+02  0.74598127423E+02  0.00000000000E+00 0. -1.
</event>
<event>
 7    1  0.5736319E-006  0.1385420E+03  0.7818608E-02  0.1314859E+00
          2   -1    0    0  502    0  0.00000000000E+00  0.00000000000E+00  0.30084002632E+04  0.30084002632E+04  0.00000000000E+00 0. -1.
          1   -1    0    0  501    0 -0.00000000000E+00 -0.00000000000E+00 -0.24530455568E+04  0.24530455568E+04  0.00000000000E+00 0. -1.
         25    2    1    2    0    0 -0.11425678102E+03 -0.11085320916E+03  0.14921540877E+04  0.15058184958E+04  0.12498989810E+03 0.  0.
          2    1    1    2  501    0  0.63313680344E+02  0.12321039827E+03 -0.24437961327E+04  0.24477191347E+04  0.00000000000E+00 0. -1.
          1    1    1    2  502    0  0.50943100678E+02 -0.12357189108E+02  0.15069967514E+04  0.15079081896E+04  0.00000000000E+00 0. -1.
         22    1    3    3    0    0 -0.91453752673E+02 -0.12851363714E+03  0.14090642249E+04  0.14178651324E+04  0.00000000000E+00 0.  1.
         22    1    3    3    0    0 -0.22803028348E+02  0.17660427983E+02  0.83089862870E+02  0.87953363382E+02  0.00000000000E+00 0.  1.
</event>
<event>
 7    1  0.5736319E-006  0.6056207E+02  0.7818608E-02  0.1445974E+00
          2   -1    0    0  502    0  0.00000000000E+00  0.00000000000E+00  0.25709456506E+02  0.25709456506E+02  0.00000000000E+00 0. -1.
          1   -1    0    0  501    0 -0.00000000000E+00 -0.00000000000E+00 -0.22519955714E+04  0.22519955714E+04  0.00000000000E+00 0. -1.
         25    2    1    2    0    0 -0.41898747248E+02 -0.25898264802E+02 -0.19978698924E+04  0.20023824294E+04  0.12500024610E+03 0.  0.
          2    1    1    2  501    0  0.24817987027E+02 -0.32744608847E+02 -0.20631626241E+03  0.21036763540E+03  0.00000000000E+00 0. -1.
          1    1    1    2  502    0  0.17080760221E+02  0.58642873648E+02 -0.22099960139E+02  0.64954963148E+02  0.00000000000E+00 0. -1.
         22    1    3    3    0    0 -0.27487800285E+02 -0.64910820718E+01 -0.19321760006E+04  0.19323824183E+04  0.00000000000E+00 0.  1.
         22    1    3    3    0    0 -0.14410946963E+02 -0.19407182730E+02 -0.65693891756E+02  0.70000011057E+02  0.00000000000E+00 0.  1.
</event>
<event>
 7    1  0.5736319E-006  0.1495553E+03  0.7818608E-02  0.1273131E+00
          2   -1    0    0  502    0  0.00000000000E+00  0.00000000000E+00  0.24444980155E+04  0.24444980155E+04  0.00000000000E+00 0. -1.
          1   -1    0    0  501    0 -0.00000000000E+00 -0.00000000000E+00 -0.14799482966E+04  0.14799482966E+04  0.00000000000E+00 0. -1.
         25    2    1    2    0    0 -0.78388452174E+02 -0.25144780992E+01  0.67509937798E+03  0.69103921916E+03  0.12499984095E+03 0.  0.
          2    1    1    2  501    0  0.14964598096E+03  0.95964594525E+01 -0.14674281003E+04  0.14750699106E+04  0.00000000000E+00 0. -1.
          1    1    1    2  502    0 -0.71257528784E+02 -0.70819813533E+01  0.17568784412E+04  0.17583371824E+04  0.00000000000E+00 0. -1.
         22    1    3    3    0    0 -0.25459926808E+01  0.44029197988E+02  0.10277013398E+03  0.11183359420E+03  0.00000000000E+00 0. -1.
         22    1    3    3    0    0 -0.75842459493E+02 -0.46543676087E+02  0.57232924401E+03  0.57920562497E+03  0.00000000000E+00 0. -1.
</event>
<event>
 7    1  0.5736319E-006  0.4186688E+02  0.7818608E-02  0.1551871E+00
          2   -1    0    0  502    0  0.00000000000E+00  0.00000000000E+00  0.78738366041E+02  0.78738366041E+02  0.00000000000E+00 0. -1.
          1   -1    0    0  501    0 -0.00000000000E+00 -0.00000000000E+00 -0.29508736674E+03  0.29508736674E+03  0.00000000000E+00 0. -1.
         25    2    1    2    0    0 -0.39770520040E+02 -0.23560147867E+02 -0.76292642980E+02  0.15356277677E+03  0.12499673678E+03 0.  0.
          2    1    1    2  501    0  0.41870450272E+02 -0.50141562291E+01 -0.17215068440E+03  0.17724032980E+03  0.00000000000E+00 0. -1.
          1    1    1    2  502    0 -0.20999302317E+01  0.28574304096E+02  0.32094326677E+02  0.43022626215E+02  0.00000000000E+00 0. -1.
         22    1    3    3    0    0  0.31355674715E+02  0.17261168034E+02  0.72237285565E+01  0.36514497299E+02  0.00000000000E+00 0.  1.
         22    1    3    3    0    0 -0.71126194756E+02 -0.40821315901E+02 -0.83516371537E+02  0.11704827947E+03  0.00000000000E+00 0.  1.
</event>
<event>
 7    1  0.5736319E-006  0.3929087E+02  0.7818608E-02  0.1569820E+00
          2   -1    0    0  502    0  0.00000000000E+00  0.00000000000E+00  0.62452021143E+03  0.62452021143E+03  0.00000000000E+00 0. -1.
          1   -1    0    0  501    0 -0.00000000000E+00 -0.00000000000E+00 -0.36157653147E+02  0.36157653147E+02  0.00000000000E+00 0. -1.
         25    2    1    2    0    0  0.35157018393E+02  0.42294840662E+02  0.25123389597E+03  0.28595060457E+03  0.12499763309E+03 0.  0.
          2    1    1    2  501    0  0.45990496727E+00 -0.27246256365E+02 -0.72393573910E+01  0.28195359440E+02  0.00000000000E+00 0. -1.
          1    1    1    2  502    0 -0.35616923361E+02 -0.15048584297E+02  0.34436801970E+03  0.34653190057E+03  0.00000000000E+00 0. -1.
         22    1    3    3    0    0 -0.78325106670E+01 -0.33656558189E+02  0.22766508753E+02  0.41381469927E+02  0.00000000000E+00 0.  1.
         22    1    3    3    0    0  0.42989529060E+02  0.75951398851E+02  0.22846738722E+03  0.24456913464E+03  0.00000000000E+00 0.  1.
</event>
<event>
 7    1  0.5736319E-006  0.8891427E+02  0.7818608E-02  0.1308025E+00
          2   -1    0    0  502    0  0.00000000000E+00  0.00000000000E+00  0.36049177251E+04  0.36049177251E+04  0.00000000000E+00 0. -1.
          1   -1    0    0  501    0 -0.00000000000E+00 -0.00000000000E+00 -0.16061844988E+03  0.16061844988E+03  0.00000000000E+00 0. -1.
         25    2    1    2    0    0  0.54644855977E+02  0.26436071776E+02  0.23674658129E+03  0.27451361088E+03  0.12499541044E+03 0.  0.
          2    1    1    2  501    0 -0.63678060589E+02  0.62055231598E+02 -0.12713866530E+03  0.15514505272E+03  0.00000000000E+00 0. -1.
          1    1    1    2  502    0  0.90332046123E+01 -0.88491303374E+02  0.33346913593E+04  0.33358775114E+04  0.00000000000E+00 0. -1.
         22    1    3    3    0    0  0.22131771196E+02  0.72700372682E+02  0.17499362613E+03  0.19078241185E+03  0.00000000000E+00 0.  1.
         22    1    3    3    0    0  0.32513084781E+02 -0.46264300907E+02  0.61752955161E+02  0.83731199033E+02  0.00000000000E+00 0.  1.
</event>
<event>
 7    1  0.5736319E-006  0.1034855E+03  0.7818608E-02  0.1364514E+00
          2   -1    0    0  502    0  0.00000000000E+00  0.00000000000E+00  0.35261247605E+03  0.35261247605E+03  0.00000000000E+00 0. -1.
          1   -1    0    0  501    0 -0.00000000000E+00 -0.00000000000E+00 -0.62218996497E+03  0.62218996497E+03  0.00000000000E+00 0. -1.
         25    2    1    2    0    0  0.33027932307E+02  0.88181340017E+02 -0.11306554724E+03  0.19307030925E+03  0.12500213319E+03 0.  0.
          2    1    1    2  501    0 -0.42768926505E+02  0.15899281048E+02 -0.45922062239E+03  0.46148190456E+03  0.00000000000E+00 0. -1.
          1    1    1    2  502    0  0.97409941985E+01 -0.10408062106E+03  0.30270868070E+03  0.32025022720E+03  0.00000000000E+00 0. -1.
         22    1    3    3    0    0 -0.39255340443E+02  0.37144964034E+02 -0.84095042333E+02  0.99963524604E+02  0.00000000000E+00 0. -1.
         22    1    3    3    0    0  0.72283272750E+02  0.51036375983E+02 -0.28970504905E+02  0.93106784648E+02  0.00000000000E+00 0. -1.
</event>
<event>
 7    1  0.5736319E-006  0.8457419E+02  0.7818608E-02  0.1365854E+00
          2   -1    0    0  502    0  0.00000000000E+00  0.00000000000E+00  0.88638655926E+03  0.88638655926E+03  0.00000000000E+00 0. -1.
          1   -1    0    0  501    0 -0.00000000000E+00 -0.00000000000E+00 -0.89694568065E+02  0.89694568065E+02  0.00000000000E+00 0. -1.
         25    2    1    2    0    0 -0.16334531888E+02 -0.10799687093E+03  0.23415165206E+03  0.28700395871E+03  0.12495653280E+03 0.  0.
          2    1    1    2  501    0  0.46188622646E+02  0.30247482969E+02 -0.47831860031E+02  0.73049202062E+02  0.00000000000E+00 0. -1.
          1    1    1    2  502    0 -0.29854090757E+02  0.77749387961E+02  0.61037219917E+03  0.61602796655E+03  0.00000000000E+00 0. -1.
         22    1    3    3    0    0 -0.32964411726E+02 -0.61890616537E+02  0.22686093555E+03  0.23745101586E+03  0.00000000000E+00 0. -1.
         22    1    3    3    0    0  0.16629879837E+02 -0.46106254394E+02  0.72907165136E+01  0.49552942848E+02  0.00000000000E+00 0. -1.
</event>
<event>
 7    1  0.5736319E-006  0.4983155E+02  0.7818608E-02  0.1461631E+00
          2   -1    0    0  502    0  0.00000000000E+00  0.00000000000E+00  0.31471082837E+04  0.31471082837E+04  0.00000000000E+00 0. -1.
          1   -1    0    0  501    0 -0.00000000000E+00 -0.00000000000E+00 -0.67080271983E+03  0.67080271983E+03  0.00000000000E+00 0. -1.
         25    2    1    2    0    0 -0.87171155838E+01 -0.19802124101E+01  0.11846895991E+03  0.17245260912E+03  0.12500039434E+03 0.  0.
          2    1    1    2  501    0  0.25153766710E+02  0.43356717021E+02 -0.64266985789E+03  0.64462164339E+03  0.00000000000E+00 0. -1.
          1    1    1    2  502    0 -0.16436651127E+02 -0.41376504611E+02  0.30005064618E+04  0.30008367510E+04  0.00000000000E+00 0. -1.
         22    1    3    3    0    0 -0.37574856860E+02 -0.33409202213E+02  0.41734785154E+01  0.50452577570E+02  0.00000000000E+00 0. -1.
         22    1    3    3    0    0  0.28857741276E+02  0.31428989803E+02  0.11429548139E+03  0.12200003155E+03  0.00000000000E+00 0. -1.
</event>
<event>
 7    1  0.5736319E-006  0.5205277E+02  0.7818608E-02  0.1448976E+00
          2   -1    0    0  502    0  0.00000000000E+00  0.00000000000E+00  0.10891525775E+04  0.10891525775E+04  0.00000000000E+00 0. -1.
          1   -1    0    0  501    0 -0.00000000000E+00 -0.00000000000E+00 -0.56309764459E+03  0.56309764459E+03  0.00000000000E+00 0. -1.
         25    2    1    2    0    0 -0.43712673174E+02  0.18237336767E+00  0.84315263195E+02  0.15698711058E+03  0.12500023289E+03 0.  0.
          2    1    1    2  501    0  0.15021103012E+02 -0.44275378067E+02 -0.52500774888E+03  0.52708545704E+03  0.00000000000E+00 0. -1.
          1    1    1    2  502    0  0.28691570161E+02  0.44093004700E+02  0.96674741858E+03  0.96817765446E+03  0.00000000000E+00 0. -1.
         22    1    3    3    0    0 -0.25664202897E+01  0.39307133459E+02 -0.15356065320E+02  0.42278197643E+02  0.00000000000E+00 0.  1.
         22    1    3    3    0    0 -0.41146252884E+02 -0.39124760091E+02  0.99671328515E+02  0.11470891293E+03  0.00000000000E+00 0.  1.
</event>
<event>
 7    1  0.5736319E-006  0.1396083E+03  0.7818608E-02  0.1263520E+00
          2   -1    0    0  502    0  0.00000000000E+00  0.00000000000E+00  0.16813816721E+03  0.16813816721E+03  0.00000000000E+00 0. -1.
          1   -1    0    0  501    0 -0.00000000000E+00 -0.00000000000E+00 -0.10904561298E+04  0.10904561298E+04  0.00000000000E+00 0. -1.
         25    2    1    2    0    0 -0.29128464451E+01 -0.63209410289E+02  0.15356463105E+02  0.14091126404E+03  0.12496499170E+03 0.  0.
          2    1    1    2  501    0  0.38186972565E+02  0.13966751285E+03 -0.10015698288E+04  0.10119819074E+04  0.00000000000E+00 0. -1.
          1    1    1    2  502    0 -0.35274126120E+02 -0.76458102563E+02  0.63895403044E+02  0.10570112559E+03  0.00000000000E+00 0. -1.
         22    1    3    3    0    0 -0.17097719607E+02 -0.95343966014E+02 -0.10303017621E+02  0.97411272669E+02  0.00000000000E+00 0. -1.
         22    1    3    3    0    0  0.14184873162E+02  0.32134555725E+02  0.25659480726E+02  0.43499991372E+02  0.00000000000E+00 0. -1.
</event>
<event>
 7    1  0.5736319E-006  0.5162517E+02  0.7818608E-02  0.1559275E+00
          2   -1    0    0  502    0  0.00000000000E+00  0.00000000000E+00  0.47065922361E+03  0.47065922361E+03  0.00000000000E+00 0. -1.
          1   -1    0    0  501    0 -0.00000000000E+00 -0.00000000000E+00 -0.11385431341E+03  0.11385431341E+03  0.00000000000E+00 0. -1.
         25    2    1    2    0    0 -0.35494111638E+02 -0.18103998486E+02 -0.22701093913E+02  0.13314490306E+03  0.12499855529E+03 0.  0.
          2    1    1    2  501    0 -0.16352245881E+02  0.14961983312E+02 -0.30712405395E+02  0.37874909044E+02  0.00000000000E+00 0. -1.
          1    1    1    2  502    0  0.51846357519E+02  0.31420151744E+01  0.41021840951E+03  0.41349372492E+03  0.00000000000E+00 0. -1.
         22    1    3    3    0    0  0.36896977792E+02  0.25599121269E+02 -0.18229098786E+02  0.48466504129E+02  0.00000000000E+00 0. -1.
         22    1    3    3    0    0 -0.72391089430E+02 -0.43703119755E+02 -0.44719951269E+01  0.84678398932E+02  0.00000000000E+00 0. -1.
</event>
<event>
 7    1  0.5736319E-006  0.5020576E+02  0.7818608E-02  0.1478106E+00
          2   -1    0    0  502    0  0.00000000000E+00  0.00000000000E+00  0.24927584129E+04  0.24927584129E+04  0.00000000000E+00 0. -1.
          1   -1    0    0  501    0 -0.00000000000E+00 -0.00000000000E+00 -0.29119126850E+03  0.29119126850E+03  0.00000000000E+00 0. -1.
         25    2    1    2    0    0 -0.44958846445E+02 -0.90239728828E+01  0.44258768421E+03  0.46218264802E+03  0.12500484776E+03 0.  0.
          2    1    1    2  501    0  0.39744741985E+01  0.39068638307E+02 -0.27970551363E+03  0.28244880828E+03  0.00000000000E+00 0. -1.
          1    1    1    2  502    0  0.40984372246E+02 -0.30044665425E+02  0.20386849739E+04  0.20393182251E+04  0.00000000000E+00 0. -1.
         22    1    3    3    0    0  0.18217536465E+01  0.52839100899E+02  0.13543288858E+03  0.14538692059E+03  0.00000000000E+00 0.  1.
         22    1    3    3    0    0 -0.46780600091E+02 -0.61863073782E+02  0.30715479562E+03  0.31679572743E+03  0.00000000000E+00 0.  1.
</event>
<event>
 7    1  0.5736319E-006  0.2094517E+03  0.7818608E-02  0.1222632E+00
          2   -1    0    0  502    0  0.00000000000E+00  0.00000000000E+00  0.17986509384E+03  0.17986509384E+03  0.00000000000E+00 0. -1.
          1   -1    0    0  501    0 -0.00000000000E+00 -0.00000000000E+00 -0.67957922212E+03  0.67957922212E+03  0.00000000000E+00 0. -1.
         25    2    1    2    0    0 -0.13941218995E+03 -0.16427014589E+03  0.24996555878E+01  0.24909584141E+03  0.12498820103E+03 0.  0.
          2    1    1    2  501    0  0.76993932422E+02 -0.35638229620E+02 -0.32535346915E+03  0.33623359280E+03  0.00000000000E+00 0. -1.
          1    1    1    2  502    0  0.62418257524E+02  0.19990837551E+03 -0.17686031473E+03  0.27411488175E+03  0.00000000000E+00 0. -1.
         22    1    3    3    0    0 -0.16848277410E+02 -0.22260510490E+01 -0.38267003195E+02  0.41871031615E+02  0.00000000000E+00 0.  1.
         22    1    3    3    0    0 -0.12256391254E+03 -0.16204409484E+03  0.40766658783E+02  0.20722480980E+03  0.00000000000E+00 0.  1.
</event>
<event>
 7    1  0.5736319E-006  0.1000176E+03  0.7818608E-02  0.1373683E+00
          2   -1    0    0  502    0  0.00000000000E+00  0.00000000000E+00  0.40918540596E+03  0.40918540596E+03  0.00000000000E+00 0. -1.
          1   -1    0    0  501    0 -0.00000000000E+00 -0.00000000000E+00 -0.43358893927E+03  0.43358893927E+03  0.00000000000E+00 0. -1.
         25    2    1    2    0    0  0.37298267282E+02  0.85585424534E+02 -0.10493434571E+03  0.18802169505E+03  0.12499966106E+03 0.  0.
          2    1    1    2  501    0  0.27881382333E+01 -0.10312517596E+03 -0.27646490074E+03  0.29508544013E+03  0.00000000000E+00 0. -1.
          1    1    1    2  502    0 -0.40086405515E+02  0.17539751425E+02  0.35699571315E+03  0.35966721006E+03  0.00000000000E+00 0. -1.
         22    1    3    3    0    0 -0.34250966844E+02  0.18686681619E+02  0.66106405463E+01  0.39572987859E+02  0.00000000000E+00 0.  1.
         22    1    3    3    0    0  0.71549234125E+02  0.66898742915E+02 -0.11154498625E+03  0.14844870719E+03  0.00000000000E+00 0.  1.
</event>
<event>
 7    1  0.5736319E-006  0.9773733E+02  0.7818608E-02  0.1327084E+00
          2   -1    0    0  502    0  0.00000000000E+00  0.00000000000E+00  0.24488498447E+03  0.24488498447E+03  0.00000000000E+00 0. -1.
          1   -1    0    0  501    0 -0.00000000000E+00 -0.00000000000E+00 -0.10372351570E+04  0.10372351570E+04  0.00000000000E+00 0. -1.
         25    2    1    2    0    0 -0.38410154777E+01 -0.40017753151E+02 -0.98459164265E+02  0.16411901571E+03  0.12499868128E+03 0.  0.
          2    1    1    2  501    0  0.27256287119E+02 -0.60798328501E+02 -0.89200017447E+03  0.89448513302E+03  0.00000000000E+00 0. -1.
          1    1    1    2  502    0 -0.23415271641E+02  0.10081608165E+03  0.19810916622E+03  0.22351599273E+03  0.00000000000E+00 0. -1.
         22    1    3    3    0    0  0.39819098403E+02  0.24843582506E+02 -0.62234685428E+02  0.77948189586E+02  0.00000000000E+00 0. -1.
         22    1    3    3    0    0 -0.43660113881E+02 -0.64861335657E+02 -0.36224478837E+02  0.86170826121E+02  0.00000000000E+00 0. -1.
</event>
<event>
 7    1  0.5736319E-006  0.9051135E+02  0.7818608E-02  0.1354550E+00
          2   -1    0    0  502    0  0.00000000000E+00  0.00000000000E+00  0.16241562481E+04  0.16241562481E+04  0.00000000000E+00 0. -1.
          1   -1    0    0  501    0 -0.00000000000E+00 -0.00000000000E+00 -0.12409883047E+03  0.12409883047E+03  0.00000000000E+00 0. -1.
         25    2    1    2    0    0 -0.10953520725E+03 -0.90644653185E+02  0.27485621826E+03  0.33374469289E+03  0.12500065816E+03 0.  0.
          2    1    1    2  501    0  0.73492110675E+02  0.46837524216E+02 -0.73844138612E+02  0.11422697060E+03  0.00000000000E+00 0. -1.
          1    1    1    2  502    0  0.36043096580E+02  0.43807128969E+02  0.12990453379E+04  0.13002834150E+04  0.00000000000E+00 0. -1.
         22    1    3    3    0    0 -0.22989735537E+02  0.61190064329E+01 -0.58270009206E+01  0.24493348475E+02  0.00000000000E+00 0. -1.
         22    1    3    3    0    0 -0.86545471718E+02 -0.96763659617E+02  0.28068321918E+03  0.30925134442E+03  0.00000000000E+00 0. -1.
</event>
<event>
 7    1  0.5736319E-006  0.6248403E+02  0.7818608E-02  0.1421534E+00
          2   -1    0    0  502    0  0.00000000000E+00  0.00000000000E+00  0.94668536949E+03  0.94668536949E+03  0.00000000000E+00 0. -1.
          1   -1    0    0  501    0 -0.00000000000E+00 -0.00000000000E+00 -0.68953609680E+03  0.68953609680E+03  0.00000000000E+00 0. -1.
         25    2    1    2    0    0 -0.47886051255E+02 -0.52962658660E+02  0.69644974178E+03  0.71117104804E+03  0.12499559845E+03 0.  0.
          2    1    1    2  501    0 -0.15347244066E+02  0.45355431172E+02 -0.67714015153E+03  0.67883093466E+03  0.00000000000E+00 0. -1.
          1    1    1    2  502    0  0.63233295321E+02  0.76072274885E+01  0.23783968245E+03  0.24621948358E+03  0.00000000000E+00 0. -1.
         22    1    3    3    0    0  0.21322889056E+02 -0.13529183752E+02  0.47775080689E+03  0.47841774412E+03  0.00000000000E+00 0.  1.
         22    1    3    3    0    0 -0.69208940310E+02 -0.39433474908E+02  0.21869893489E+03  0.23275330392E+03  0.00000000000E+00 0.  1.
</event>
<event>
 7    1  0.5736319E-006  0.5107053E+02  0.7818608E-02  0.1454859E+00
          2   -1    0    0  502    0  0.00000000000E+00  0.00000000000E+00  0.16013288151E+04  0.16013288151E+04  0.00000000000E+00 0. -1.
          1   -1    0    0  501    0 -0.00000000000E+00 -0.00000000000E+00 -0.61184603492E+03  0.61184603492E+03  0.00000000000E+00 0. -1.
         25    2    1    2    0    0  0.75876100444E+01 -0.14801072343E+02  0.19328596162E+02  0.12757197384E+03  0.12499748122E+03 0.  0.
          2    1    1    2  501    0 -0.36001734323E+02 -0.28047546330E+02 -0.55635722329E+03  0.55822589481E+03  0.00000000000E+00 0. -1.
          1    1    1    2  502    0  0.28414124279E+02  0.42848618673E+02  0.15265114074E+04  0.15273769814E+04  0.00000000000E+00 0. -1.
         22    1    3    3    0    0 -0.15863174532E+02 -0.28606843236E+01 -0.50467781462E+02  0.52979437395E+02  0.00000000000E+00 0.  1.
         22    1    3    3    0    0  0.23450784576E+02 -0.11940388019E+02  0.69796377624E+02  0.74592536441E+02  0.00000000000E+00 0.  1.
</event>
<event>
 7    1  0.5736319E-006  0.1310313E+03  0.7818608E-02  0.1318498E+00
          2   -1    0    0  502    0  0.00000000000E+00  0.00000000000E+00  0.11288171155E+04  0.11288171155E+04  0.00000000000E+00 0. -1.
          1   -1    0    0  501    0 -0.00000000000E+00 -0.00000000000E+00 -0.77421881291E+02  0.77421881291E+02  0.00000000000E+00 0. -1.
         25    2    1    2    0    0 -0.53143928972E+02 -0.13495032434E+03  0.21398207969E+03  0.28713962020E+03  0.12499985534E+03 0.  0.
          2    1    1    2  501    0 -0.35951104307E+02  0.39813273441E+02 -0.15852076662E+02  0.55936276042E+02  0.00000000000E+00 0. -1.
          1    1    1    2  502    0  0.89095033279E+02  0.95137050895E+02  0.85326523119E+03  0.86316310056E+03  0.00000000000E+00 0. -1.
         22    1    3    3    0    0 -0.36949978599E+02 -0.60611414641E+02  0.19670299364E+03  0.20911985130E+03  0.00000000000E+00 0.  1.
         22    1    3    3    0    0 -0.16193950373E+02 -0.74338909695E+02  0.17279086048E+02  0.78019768892E+02  0.00000000000E+00 0.  1.
</event>
<event>
 7    1  0.5736319E-006  0.8415726E+02  0.7818608E-02  0.1427158E+00
          2   -1    0    0  502    0  0.00000000000E+00  0.00000000000E+00  0.19019310675E+03  0.19019310675E+03  0.00000000000E+00 0. -1.
          1   -1    0    0  501    0 -0.00000000000E+00 -0.00000000000E+00 -0.70350379253E+03  0.70350379253E+03  0.00000000000E+00 0. -1.
         25    2    1    2    0    0 -0.42849568437E+02  0.75998871359E+02 -0.35780362823E+02  0.15657575684E+03  0.12499527713E+03 0.  0.
          2    1    1    2  501    0  0.33100136169E+02  0.80073742632E+01 -0.59300945102E+03  0.59398648643E+03  0.00000000000E+00 0. -1.
          1    1    1    2  502    0  0.97494322680E+01 -0.84006245622E+02  0.11547912806E+03  0.14313465601E+03  0.00000000000E+00 0. -1.
         22    1    3    3    0    0  0.11189768405E+02  0.43214781873E+02  0.38566533109E+02  0.58992421253E+02  0.00000000000E+00 0.  1.
         22    1    3    3    0    0 -0.54039336842E+02  0.32784089486E+02 -0.74346895932E+02  0.97583335588E+02  0.00000000000E+00 0.  1.
</event>
<event>
 7    1  0.5736319E-006  0.2638057E+03  0.7818608E-02  0.1271798E+00
          2   -1    0    0  502    0  0.00000000000E+00  0.00000000000E+00  0.24276047271E+04  0.24276047271E+04  0.00000000000E+00 0. -1.
          1   -1    0    0  501    0 -0.00000000000E+00 -0.00000000000E+00 -0.19760007611E+03  0.19760007611E+03  0.00000000000E+00 0. -1.
         25    2    1    2    0    0 -0.90081470588E+02  0.24282357414E+03  0.43010846019E+02  0.29077893472E+03  0.12499798597E+03 0.  0.
          2    1    1    2  501    0 -0.39229474816E+02 -0.12326476598E+02 -0.59561864089E+02  0.72377547440E+02  0.00000000000E+00 0. -1.
          1    1    1    2  502    0  0.12931094540E+03 -0.23049709754E+03  0.22465556690E+04  0.22620483210E+04  0.00000000000E+00 0. -1.
         22    1    3    3    0    0 -0.43012010415E+02  0.22470481505E+03  0.71549294606E+01  0.22889622094E+03  0.00000000000E+00 0. -1.
         22    1    3    3    0    0 -0.47069460173E+02  0.18118759096E+02  0.35855916559E+02  0.61882713777E+02  0.00000000000E+00 0. -1.
</event>
<event>
 7    1  0.5736319E-006  0.2800489E+02  0.7818608E-02  0.1645743E+00
          2   -1    0    0  502    0  0.00000000000E+00  0.00000000000E+00  0.34205208222E+02  0.34205208222E+02  0.00000000000E+00 0. -1.
          1   -1    0    0  501    0 -0.00000000000E+00 -0.00000000000E+00 -0.14408722300E+04  0.14408722300E+04  0.00000000000E+00 0. -1.
         25    2    1    2    0    0 -0.26627367133E+02 -0.11786127995E+02 -0.31150320375E+03  0.33690761633E+03  0.12499826601E+03 0.  0.
          2    1    1    2  501    0  0.25210677301E+02 -0.12489539434E+02 -0.11095562110E+04  0.11099128579E+04  0.00000000000E+00 0. -1.
          1    1    1    2  502    0  0.14166898322E+01  0.24275667429E+02  0.14392392937E+02  0.28256963985E+02  0.00000000000E+00 0. -1.
         22    1    3    3    0    0  0.25333716048E+02  0.44819913638E+02 -0.12191335220E+03  0.13233853283E+03  0.00000000000E+00 0. -1.
         22    1    3    3    0    0 -0.51961083182E+02 -0.56606041633E+02 -0.18958985154E+03  0.20456908350E+03  0.00000000000E+00 0. -1.
</event>
<event>
 7    1  0.5736319E-006  0.6349063E+02  0.7818608E-02  0.1441712E+00
          2   -1    0    0  502    0  0.00000000000E+00  0.00000000000E+00  0.15139898729E+04  0.15139898729E+04  0.00000000000E+00 0. -1.
          1   -1    0    0  501    0 -0.00000000000E+00 -0.00000000000E+00 -0.19134845703E+04  0.19134845703E+04  0.00000000000E+00 0. -1.
         25    2    1    2    0    0 -0.95662300502E+02 -0.26260783115E+02  0.43096477964E+02  0.16529316593E+03  0.12499447917E+03 0.  0.
          2    1    1    2  501    0  0.63287582973E+02  0.20052180881E+01 -0.18515547317E+04  0.18526371106E+04  0.00000000000E+00 0. -1.
          1    1    1    2  502    0  0.32374717529E+02  0.24255565027E+02  0.14089635563E+04  0.14095441667E+04  0.00000000000E+00 0. -1.
         22    1    3    3    0    0 -0.27439260722E+01  0.42978972513E+02  0.52239590504E+01  0.43382150209E+02  0.00000000000E+00 0.  1.
         22    1    3    3    0    0 -0.92918374430E+02 -0.69239755628E+02  0.37872518913E+02  0.12191101572E+03  0.00000000000E+00 0.  1.
</event>
<event>
 7    1  0.5736319E-006  0.1408816E+03  0.7818608E-02  0.1271316E+00
          2   -1    0    0  502    0  0.00000000000E+00  0.00000000000E+00  0.12722947946E+03  0.12722947946E+03  0.00000000000E+00 0. -1.
          1   -1    0    0  501    0 -0.00000000000E+00 -0.00000000000E+00 -0.88703262308E+03  0.88703262308E+03  0.00000000000E+00 0. -1.
         25    2    1    2    0    0 -0.13691884942E+03 -0.77252171942E+02 -0.70235800238E+01  0.20096952674E+03  0.12499900241E+03 0.  0.
          2    1    1    2  501    0  0.72942075726E+02  0.12074088015E+03 -0.71200867842E+03  0.72584796253E+03  0.00000000000E+00 0. -1.
          1    1    1    2  502    0  0.63976773695E+02 -0.43488708209E+02 -0.40770885169E+02  0.87444613279E+02  0.00000000000E+00 0. -1.
         22    1    3    3    0    0 -0.15096687433E+03 -0.82207834338E+02 -0.29092999683E+02  0.17434313236E+03  0.00000000000E+00 0.  1.
         22    1    3    3    0    0  0.14048024905E+02  0.49556623954E+01  0.22069419659E+02  0.26626394379E+02  0.00000000000E+00 0.  1.
</event>
<event>
 7    1  0.5736319E-006  0.1284554E+03  0.7818608E-02  0.1421821E+00
          2   -1    0    0  502    0  0.00000000000E+00  0.00000000000E+00  0.51825903321E+03  0.51825903321E+03  0.00000000000E+00 0. -1.
          1   -1    0    0  501    0 -0.00000000000E+00 -0.00000000000E+00 -0.87368837885E+03  0.87368837885E+03  0.00000000000E+00 0. -1.
         25    2    1    2    0    0  0.77641994072E+02 -0.80769295663E+02 -0.26824847628E+03  0.31643884451E+03  0.12499735568E+03 0.  0.
          2    1    1    2  501    0  0.23235555750E+02  0.43667479287E+00 -0.57269203273E+03  0.57316336771E+03  0.00000000000E+00 0. -1.
          1    1    1    2  502    0 -0.10087754982E+03  0.80332620870E+02  0.48551116337E+03  0.50234519983E+03  0.00000000000E+00 0. -1.
         22    1    3    3    0    0  0.93534004847E+02 -0.63818446397E+02 -0.27035350793E+03  0.29310821110E+03  0.00000000000E+00 0. -1.
         22    1    3    3    0    0 -0.15892010775E+02 -0.16950849266E+02  0.21050316523E+01  0.23330633416E+02  0.00000000000E+00 0. -1.
</event>
<event>
 7    1  0.5736319E-006  0.7502394E+02  0.7818608E-02  0.1352569E+00
          2   -1    0    0  502    0  0.00000000000E+00  0.00000000000E+00  0.11353216513E+04  0.11353216513E+04  0.00000000000E+00 0. -1.
          1   -1    0    0  501    0 -0.00000000000E+00 -0.00000000000E+00 -0.26902316579E+03  0.26902316579E+03  0.00000000000E+00 0. -1.
         25    2    1    2    0    0  0.51624372458E+02  0.34530684951E+02  0.14404319810E+03  0.20057666012E+03  0.12500043853E+03 0.  0.
          2    1    1    2  501    0  0.39489824034E+01 -0.76432004099E+02 -0.23337637781E+03  0.24560533266E+03  0.00000000000E+00 0. -1.
          1    1    1    2  502    0 -0.55573354861E+02  0.41901319149E+02  0.95563166525E+03  0.95816282433E+03  0.00000000000E+00 0. -1.
         22    1    3    3    0    0 -0.17184299520E+02 -0.59046440669E+01  0.11377952883E+03  0.11522129210E+03  0.00000000000E+00 0.  1.
         22    1    3    3    0    0  0.68808671978E+02  0.40435329017E+02  0.30263669260E+02  0.85355368016E+02  0.00000000000E+00 0.  1.
</event>
<event>
 7    1  0.5736319E-006  0.2473565E+03  0.7818608E-02  0.1165757E+00
          2   -1    0    0  502    0  0.00000000000E+00  0.00000000000E+00  0.64635177600E+03  0.64635177600E+03  0.00000000000E+00 0. -1.
          1   -1    0    0  501    0 -0.00000000000E+00 -0.00000000000E+00 -0.58176865999E+03  0.58176865999E+03  0.00000000000E+00 0. -1.
         25    2    1    2    0    0  0.13546861569E+03 -0.12033099768E+03 -0.70246535495E+02  0.23106514981E+03  0.12500093148E+03 0.  0.
          2    1    1    2  501    0  0.12174738188E+03  0.56225202067E+02 -0.38818645675E+03  0.41069748422E+03  0.00000000000E+00 0. -1.
          1    1    1    2  502    0 -0.25721599757E+03  0.64105795609E+02  0.52301610825E+03  0.58635780196E+03  0.00000000000E+00 0. -1.
         22    1    3    3    0    0  0.40639129250E+02 -0.32239702853E+02 -0.86249375650E+02  0.10064736493E+03  0.00000000000E+00 0. -1.
         22    1    3    3    0    0  0.94829486435E+02 -0.88091294822E+02  0.16002840155E+02  0.13041778488E+03  0.00000000000E+00 0. -1.
</event>
<event>
 7    1  0.5736319E-006  0.6979308E+02  0.7818608E-02  0.1429345E+00
          2   -1    0    0  502    0  0.00000000000E+00  0.00000000000E+00  0.29282794598E+04  0.29282794598E+04  0.00000000000E+00 0. -1.
          1   -1    0    0  501    0 -0.00000000000E+00 -0.00000000000E+00 -0.10922701587E+03  0.10922701587E+03  0.00000000000E+00 0. -1.
         25    2    1    2    0    0 -0.82066780080E+02 -0.25213602981E+02  0.89583693835E+03  0.90858071437E+03  0.12499764901E+03 0.  0.
          2    1    1    2  501    0  0.49493273608E+02  0.49089927728E+02 -0.90818100517E+02  0.11448725920E+03  0.00000000000E+00 0. -1.
          1    1    1    2  502    0  0.32573506473E+02 -0.23876324746E+02  0.20140336061E+04  0.20144385020E+04  0.00000000000E+00 0. -1.
         22    1    3    3    0    0 -0.84375334969E+02 -0.81402053056E+00  0.86539537047E+03  0.86949928522E+03  0.00000000000E+00 0.  1.
         22    1    3    3    0    0  0.23085548891E+01 -0.24399582451E+02  0.30441567881E+02  0.39081429152E+02  0.00000000000E+00 0.  1.
</event>
<event>
 7    1  0.5736319E-006  0.7375968E+02  0.7818608E-02  0.1504140E+00
          2   -1    0    0  502    0  0.00000000000E+00  0.00000000000E+00  0.29769182651E+03  0.29769182651E+03  0.00000000000E+00 0. -1.
          1   -1    0    0  501    0 -0.00000000000E+00 -0.00000000000E+00 -0.12049190572E+04  0.12049190572E+04  0.00000000000E+00 0. -1.
         25    2    1    2    0    0  0.59317631477E+02 -0.40535639441E+02  0.10414505216E+02  0.14454987031E+03  0.12499793446E+03 0.  0.
          2    1    1    2  501    0  0.11706441493E+02  0.18982781429E+02 -0.11314841612E+04  0.11317039338E+04  0.00000000000E+00 0. -1.
          1    1    1    2  502    0 -0.71024072970E+02  0.21552858012E+02  0.21384242529E+03  0.22635707959E+03  0.00000000000E+00 0. -1.
         22    1    3    3    0    0  0.16826360690E+02 -0.55129658939E+01  0.64787995301E+02  0.67164004810E+02  0.00000000000E+00 0.  1.
         22    1    3    3    0    0  0.42491270787E+02 -0.35022673547E+02 -0.54373490086E+02  0.77385865502E+02  0.00000000000E+00 0.  1.
</event>
<event>
 7    1  0.5736319E-006  0.3450164E+02  0.7818608E-02  0.1626477E+00
          2   -1    0    0  502    0  0.00000000000E+00  0.00000000000E+00  0.13970017415E+02  0.13970017415E+02  0.00000000000E+00 0. -1.
          1   -1    0    0  501    0 -0.00000000000E+00 -0.00000000000E+00 -0.28558782265E+04  0.28558782265E+04  0.00000000000E+00 0. -1.
         25    2    1    2    0    0 -0.11655277972E+02  0.19443083206E+02 -0.19011642029E+04  0.19054040566E+04  0.12500165426E+03 0.  0.
          2    1    1    2  501    0  0.16169447406E+02  0.14989649831E+02 -0.92673564145E+03  0.92699789091E+03  0.00000000000E+00 0. -1.
          1    1    1    2  502    0 -0.45141694343E+01 -0.34432733038E+02 -0.14008364724E+02  0.37446296377E+02  0.00000000000E+00 0. -1.
         22    1    3    3    0    0 -0.44148081249E+02  0.33294777444E+01 -0.17238549590E+04  0.17244233988E+04  0.00000000000E+00 0. -1.
         22    1    3    3    0    0  0.32492803276E+02  0.16113605462E+02 -0.17730924390E+03  0.18098065786E+03  0.00000000000E+00 0. -1.
</event>
<event>
 7    1  0.5736319E-006  0.8929360E+02  0.7818608E-02  0.1366925E+00
          2   -1    0    0  502    0  0.00000000000E+00  0.00000000000E+00  0.16905549792E+04  0.16905549792E+04  0.00000000000E+00 0. -1.
          1   -1    0    0  501    0 -0.00000000000E+00 -0.00000000000E+00 -0.49332609569E+03  0.49332609569E+03  0.00000000000E+00 0. -1.
         25    2    1    2    0    0 -0.35188891589E+02  0.11902519697E+03  0.27461107199E+01  0.17617524456E+03  0.12499968027E+03 0.  0.
          2    1    1    2  501    0 -0.60438053272E+01 -0.87622872096E+02 -0.40144289289E+03  0.41093879295E+03  0.00000000000E+00 0. -1.
          1    1    1    2  502    0  0.41232696916E+02 -0.31402324874E+02  0.15959256657E+04  0.15967670374E+04  0.00000000000E+00 0. -1.
         22    1    3    3    0    0  0.23356377624E+02  0.94854707521E+00 -0.32234421003E+02  0.39818061413E+02  0.00000000000E+00 0. -1.
         22    1    3    3    0    0 -0.58545269212E+02  0.11807664990E+03  0.34980531723E+02  0.13635718315E+03  0.00000000000E+00 0. -1.
</event>
<event>
 7    1  0.5736319E-006  0.1341194E+03  0.7818608E-02  0.1279027E+00
          2   -1    0    0  502    0  0.00000000000E+00  0.00000000000E+00  0.22385297298E+04  0.22385297298E+04  0.00000000000E+00 0. -1.
          1   -1    0    0  501    0 -0.00000000000E+00 -0.00000000000E+00 -0.86449931390E+02  0.86449931390E+02  0.00000000000E+00 0. -1.
         25    2    1    2    0    0  0.11216348334E+02  0.77988449957E+02  0.21118642978E+03  0.25774684204E+03  0.12500288661E+03 0.  0.
          2    1    1    2  501    0  0.62961219481E+02  0.41606537460E+02 -0.37201717469E+02  0.84137904066E+02  0.00000000000E+00 0. -1.
          1    1    1    2  502    0 -0.74177567816E+02 -0.11959498742E+03  0.19780950861E+04  0.19830949151E+04  0.00000000000E+00 0. -1.
         22    1    3    3    0    0  0.45042465513E+02 -0.13984339314E+02  0.92521015340E+02  0.10384856150E+03  0.00000000000E+00 0. -1.
         22    1    3    3    0    0 -0.33826117179E+02  0.91972789271E+02  0.11866541444E+03  0.15389828054E+03  0.00000000000E+00 0. -1.
</event>
<event>
 7    1  0.5736319E-006  0.1332584E+03  0.7818608E-02  0.1304379E+00
          2   -1    0    0  502    0  0.00000000000E+00  0.00000000000E+00  0.35001304700E+03  0.35001304700E+03  0.00000000000E+00 0. -1.
          1   -1    0    0  501    0 -0.00000000000E+00 -0.00000000000E+00 -0.10722753876E+04  0.10722753876E+04  0.00000000000E+00 0. -1.
         25    2    1    2    0    0 -0.81704584899E+02 -0.20532316158E+02  0.12016114215E+03  0.19278341504E+03  0.12501811802E+03 0.  0.
          2    1    1    2  501    0  0.13451742040E+03 -0.78138995785E+01 -0.10268138943E+04  0.10356170947E+04  0.00000000000E+00 0. -1.
          1    1    1    2  502    0 -0.52812835504E+02  0.28346215736E+02  0.18439041151E+03  0.19388792484E+03  0.00000000000E+00 0. -1.
         22    1    3    3    0    0  0.75041335154E+01  0.33210373692E+02  0.36990633721E+00  0.34049636875E+02  0.00000000000E+00 0. -1.
         22    1    3    3    0    0 -0.89208718415E+02 -0.53742689850E+02  0.11979123582E+03  0.15873377817E+03  0.00000000000E+00 0. -1.
</event>
<event>
 7    1  0.5736319E-006  0.1123070E+03  0.7818608E-02  0.1285740E+00
          2   -1    0    0  502    0  0.00000000000E+00  0.00000000000E+00  0.25429059493E+04  0.25429059493E+04  0.00000000000E+00 0. -1.
          1   -1    0    0  501    0 -0.00000000000E+00 -0.00000000000E+00 -0.16805260819E+03  0.16805260819E+03  0.00000000000E+00 0. -1.
         25    2    1    2    0    0  0.16259266823E+03  0.90966396844E+02 -0.99047719406E+01  0.22458091114E+03  0.12500887978E+03 0.  0.
          2    1    1    2  501    0 -0.83699920987E+02 -0.12082868469E+02 -0.13402830078E+02  0.85623059614E+02  0.00000000000E+00 0. -1.
          1    1    1    2  502    0 -0.78892747242E+02 -0.78883528375E+02  0.23981609431E+04  0.24007545867E+04  0.00000000000E+00 0. -1.
         22    1    3    3    0    0  0.14986401188E+03  0.84707766321E+02  0.36571039921E+02  0.17598883116E+03  0.00000000000E+00 0.  1.
         22    1    3    3    0    0  0.12728656350E+02  0.62586305238E+01 -0.46475811861E+02  0.48592079979E+02  0.00000000000E+00 0.  1.
</event>
<event>
 7    1  0.5736319E-006  0.8977070E+02  0.7818608E-02  0.1361571E+00
          2   -1    0    0  502    0  0.00000000000E+00  0.00000000000E+00  0.10040021966E+04  0.10040021966E+04  0.00000000000E+00 0. -1.
          1   -1    0    0  501    0 -0.00000000000E+00 -0.00000000000E+00 -0.84802252664E+03  0.84802252664E+03  0.00000000000E+00 0. -1.
         25    2    1    2    0    0 -0.64668283168E+02 -0.89739994687E+01  0.49936954910E+03  0.51890066242E+03  0.12500172548E+03 0.  0.
          2    1    1    2  501    0 -0.37843572076E+02  0.38395276370E+02 -0.83162791112E+03  0.83337345515E+03  0.00000000000E+00 0. -1.
          1    1    1    2  502    0  0.10251185524E+03 -0.29421276901E+02  0.48823803198E+03  0.49975060567E+03  0.00000000000E+00 0. -1.
         22    1    3    3    0    0 -0.49651242122E+02 -0.35807605032E+02  0.92814336283E+02  0.11118422299E+03  0.00000000000E+00 0. -1.
         22    1    3    3    0    0 -0.15017041046E+02  0.26833605563E+02  0.40655521282E+03  0.40771643943E+03  0.00000000000E+00 0. -1.
</event>
<event>
 7    1  0.5736319E-006  0.8746854E+02  0.7818608E-02  0.1378828E+00
          2   -1    0    0  502    0  0.00000000000E+00  0.00000000000E+00  0.24148396979E+03  0.24148396979E+03  0.00000000000E+00 0. -1.
          1   -1    0    0  501    0 -0.00000000000E+00 -0.00000000000E+00 -0.26073063109E+03  0.26073063109E+03  0.00000000000E+00 0. -1.
         25    2    1    2    0    0 -0.26533339571E+02  0.11029521412E+03 -0.33052910028E+02  0.17200876266E+03  0.12500186880E+03 0.  0.
          2    1    1    2  501    0 -0.13125171908E+02 -0.83314892809E+02 -0.14311408580E+03  0.16611828032E+03  0.00000000000E+00 0. -1.
          1    1    1    2  502    0  0.39658511479E+02 -0.26980321308E+02  0.15692033453E+03  0.16408755790E+03  0.00000000000E+00 0. -1.
         22    1    3    3    0    0 -0.25091665022E+02  0.83755786101E+02 -0.79708649285E+02  0.11831353316E+03  0.00000000000E+00 0.  1.
         22    1    3    3    0    0 -0.14416745488E+01  0.26539428016E+02  0.46655739257E+02  0.53695229495E+02  0.00000000000E+00 0.  1.
</event>
<event>
 7    1  0.5736319E-006  0.7656871E+02  0.7818608E-02  0.1460302E+00
          2   -1    0    0  502    0  0.00000000000E+00  0.00000000000E+00  0.82152178646E+02  0.82152178646E+02  0.00000000000E+00 0. -1.
          1   -1    0    0  501    0 -0.00000000000E+00 -0.00000000000E+00 -0.12301738208E+04  0.12301738208E+04  0.00000000000E+00 0. -1.
         25    2    1    2    0    0  0.90858316566E+02 -0.34614910313E+02 -0.62655707728E+03  0.64626017523E+03  0.12500006917E+03 0.  0.
          2    1    1    2  501    0 -0.71013265993E+02  0.13119033024E+02 -0.58850541559E+03  0.59291957056E+03  0.00000000000E+00 0. -1.
          1    1    1    2  502    0 -0.19845050574E+02  0.21495877288E+02  0.67040850668E+02  0.73146253704E+02  0.00000000000E+00 0. -1.
         22    1    3    3    0    0 -0.43701339358E+01  0.26082783620E+01  0.46090348955E+01  0.68661771968E+01  0.00000000000E+00 0.  1.
         22    1    3    3    0    0  0.95228450502E+02 -0.37223188675E+02 -0.63116611217E+03  0.63939399803E+03  0.00000000000E+00 0.  1.
</event>
<event>
 7    1  0.5736319E-006  0.4381944E+02  0.7818608E-02  0.1536284E+00
          2   -1    0    0  502    0  0.00000000000E+00  0.00000000000E+00  0.91994001438E+03  0.91994001438E+03  0.00000000000E+00 0. -1.
          1   -1    0    0  501    0 -0.00000000000E+00 -0.00000000000E+00 -0.14034856482E+04  0.14034856482E+04  0.00000000000E+00 0. -1.
         25    2    1    2    0    0 -0.15934466860E+02 -0.72315346826E+02  0.18416685305E+03  0.23457794282E+03  0.12500385943E+03 0.  0.
          2    1    1    2  501    0  0.93117378142E+01  0.42767265114E+02 -0.13776097636E+04  0.13783049039E+04  0.00000000000E+00 0. -1.
          1    1    1    2  502    0  0.66227290454E+01  0.29548081711E+02  0.70989727671E+03  0.71054281585E+03  0.00000000000E+00 0. -1.
         22    1    3    3    0    0 -0.63900526183E+02 -0.15339432416E+02  0.55987785832E+02  0.86331961611E+02  0.00000000000E+00 0.  1.
         22    1    3    3    0    0  0.47966059324E+02 -0.56975914410E+02  0.12817906722E+03  0.14824598121E+03  0.00000000000E+00 0.  1.
</event>
<event>
 7    1  0.5736319E-006  0.2958235E+02  0.7818608E-02  0.1625460E+00
          2   -1    0    0  502    0  0.00000000000E+00  0.00000000000E+00  0.21503371290E+03  0.21503371290E+03  0.00000000000E+00 0. -1.
          1   -1    0    0  501    0 -0.00000000000E+00 -0.00000000000E+00 -0.59576618794E+03  0.59576618794E+03  0.00000000000E+00 0. -1.
         25    2    1    2    0    0 -0.34961784201E+02  0.16460741683E+02  0.11350297570E+03  0.17320717426E+03  0.12499806938E+03 0.  0.
          2    1    1    2  501    0  0.66579653549E+01 -0.24996285824E+02 -0.56255599240E+03  0.56315041276E+03  0.00000000000E+00 0. -1.
          1    1    1    2  502    0  0.28303818846E+02  0.85355441413E+01  0.68320541657E+02  0.74442313823E+02  0.00000000000E+00 0. -1.
         22    1    3    3    0    0  0.38830878396E+02 -0.24600166166E+02  0.46742669113E+02  0.65558236769E+02  0.00000000000E+00 0. -1.
         22    1    3    3    0    0 -0.73792662597E+02  0.41060907848E+02  0.66760306588E+02  0.10764893749E+03  0.00000000000E+00 0. -1.
</event>
<event>
 7    1  0.5736319E-006  0.7278559E+02  0.7818608E-02  0.1431047E+00
          2   -1    0    0  502    0  0.00000000000E+00  0.00000000000E+00  0.19041213029E+04  0.19041213029E+04  0.00000000000E+00 0. -1.
          1   -1    0    0  501    0 -0.00000000000E+00 -0.00000000000E+00 -0.16276383038E+03  0.16276383038E+03  0.00000000000E+00 0. -1.
         25    2    1    2    0    0 -0.15484561497E+02 -0.10275212139E+03  0.38634942321E+03  0.41915048581E+03  0.12499393124E+03 0.  0.
          2    1    1    2  501    0 -0.11101203425E+02  0.36582883578E+02 -0.14300414309E+03  0.14802610928E+03  0.00000000000E+00 0. -1.
          1    1    1    2  502    0  0.26585764922E+02  0.66169237816E+02  0.14980121924E+04  0.14997085382E+04  0.00000000000E+00 0. -1.
         22    1    3    3    0    0  0.47513532220E+02 -0.78705891011E+02  0.18095084097E+03  0.20296640085E+03  0.00000000000E+00 0. -1.
         22    1    3    3    0    0 -0.62998093716E+02 -0.24046230383E+02  0.20539858223E+03  0.21618408496E+03  0.00000000000E+00 0. -1.
</event>
<event>
 7    1  0.5736319E-006  0.5753367E+02  0.7818608E-02  0.1537659E+00
          2   -1    0    0  502    0  0.00000000000E+00  0.00000000000E+00  0.17169777384E+04  0.17169777384E+04  0.00000000000E+00 0. -1.
          1   -1    0    0  501    0 -0.00000000000E+00 -0.00000000000E+00 -0.33998700514E+02  0.33998700514E+02  0.00000000000E+00 0. -1.
         25    2    1    2    0    0  0.30335410847E+02 -0.23867883160E+02  0.45970150944E+03  0.47795578172E+03  0.12500535387E+03 0.  0.
          2    1    1    2  501    0 -0.53116788278E+02  0.25723508152E+02  0.10399126464E+02  0.59926904641E+02  0.00000000000E+00 0. -1.
          1    1    1    2  502    0  0.22781377432E+02 -0.18556249912E+01  0.12128784019E+04  0.12130937525E+04  0.00000000000E+00 0. -1.
         22    1    3    3    0    0  0.34602208558E+01 -0.16326866832E+02  0.44696103889E+03  0.44727252319E+03  0.00000000000E+00 0. -1.
         22    1    3    3    0    0  0.26875189991E+02 -0.75410163279E+01  0.12740470550E+02  0.30683258532E+02  0.00000000000E+00 0. -1.
</event>
<event>
 7    1  0.5736319E-006  0.1538120E+03  0.7818608E-02  0.1284278E+00
          2   -1    0    0  502    0  0.00000000000E+00  0.00000000000E+00  0.32589868579E+04  0.32589868579E+04  0.00000000000E+00 0. -1.
          1   -1    0    0  501    0 -0.00000000000E+00 -0.00000000000E+00 -0.12118894575E+03  0.12118894575E+03  0.00000000000E+00 0. -1.
         25    2    1    2    0    0 -0.92272545121E+02  0.61391824094E+02  0.26454617849E+03  0.31287732177E+03  0.12499743708E+03 0.  0.
          2    1    1    2  501    0  0.11240363087E+03 -0.12067256034E+03 -0.26363543784E+02  0.16700742347E+03  0.00000000000E+00 0. -1.
          1    1    1    2  502    0 -0.20131085753E+02  0.59280736244E+02  0.28996152774E+04  0.29002910584E+04  0.00000000000E+00 0. -1.
         22    1    3    3    0    0 -0.52180755014E+00  0.20352234350E+02 -0.83918400718E+01  0.22020642723E+02  0.00000000000E+00 0.  1.
         22    1    3    3    0    0 -0.91750737571E+02  0.41039589744E+02  0.27293801856E+03  0.29085667905E+03  0.00000000000E+00 0.  1.
</event>
<event>
 7    1  0.5736319E-006  0.1853089E+03  0.7818608E-02  0.1233259E+00
          2   -1    0    0  502    0  0.00000000000E+00  0.00000000000E+00  0.87686926459E+03  0.87686926459E+03  0.00000000000E+00 0. -1.
          1   -1    0    0  501    0 -0.00000000000E+00 -0.00000000000E+00 -0.78990588771E+03  0.78990588771E+03  0.00000000000E+00 0. -1.
         25    2    1    2    0    0  0.21403211975E+03  0.12215606766E+03  0.32889096565E+03  0.42956510854E+03  0.12500024814E+03 0.  0.
          2    1    1    2  501    0 -0.12861229874E+03 -0.13121208799E+03 -0.72430446296E+03  0.74724473266E+03  0.00000000000E+00 0. -1.
          1    1    1    2  502    0 -0.85419821011E+02  0.90560203297E+01  0.48237687419E+03  0.48996531109E+03  0.00000000000E+00 0. -1.
         22    1    3    3    0    0  0.18697009295E+03  0.11074743952E+03  0.33524723769E+03  0.39951660966E+03  0.00000000000E+00 0.  1.
         22    1    3    3    0    0  0.27062026802E+02  0.11408628141E+02 -0.63562720335E+01  0.30048498879E+02  0.00000000000E+00 0.  1.
</event>
<event>
 7    1  0.5736319E-006  0.1501605E+03  0.7818608E-02  0.1352068E+00
          2   -1    0    0  502    0  0.00000000000E+00  0.00000000000E+00  0.70892930217E+03  0.70892930217E+03  0.00000000000E+00 0. -1.
          1   -1    0    0  501    0 -0.00000000000E+00 -0.00000000000E+00 -0.61581355328E+03  0.61581355328E+03  0.00000000000E+00 0. -1.
         25    2    1    2    0    0 -0.28648937222E+01 -0.17945981843E+03 -0.13783055756E+03  0.25852818878E+03  0.12500211099E+03 0.  0.
          2    1    1    2  501    0  0.15891339376E+02  0.31097132229E+02 -0.40832913018E+03  0.40981977119E+03  0.00000000000E+00 0. -1.
          1    1    1    2  502    0 -0.13026445654E+02  0.14836268620E+03  0.63927543663E+03  0.65639489549E+03  0.00000000000E+00 0. -1.
         22    1    3    3    0    0 -0.47533335673E+02 -0.26189386741E+02 -0.60055640509E+02  0.80944313790E+02  0.00000000000E+00 0.  1.
         22    1    3    3    0    0  0.44668441951E+02 -0.15327043168E+03 -0.77774917050E+02  0.17758387499E+03  0.00000000000E+00 0.  1.
</event>
<event>
 7    1  0.5736319E-006  0.1095056E+03  0.7818608E-02  0.1322219E+00
          2   -1    0    0  502    0  0.00000000000E+00  0.00000000000E+00  0.15131782784E+04  0.15131782784E+04  0.00000000000E+00 0. -1.
          1   -1    0    0  501    0 -0.00000000000E+00 -0.00000000000E+00 -0.72155766106E+03  0.72155766106E+03  0.00000000000E+00 0. -1.
         25    2    1    2    0    0  0.50169004841E+02  0.43081752008E+02  0.94793732613E+00  0.14142165710E+03  0.12500488034E+03 0.  0.
          2    1    1    2  501    0 -0.11447240555E+02  0.61025878493E+02 -0.64769494116E+03  0.65066422521E+03  0.00000000000E+00 0. -1.
          1    1    1    2  502    0 -0.38721764286E+02 -0.10410763050E+03  0.14383676212E+04  0.14426500572E+04  0.00000000000E+00 0. -1.
         22    1    3    3    0    0  0.83444743481E+02  0.61024333353E+02 -0.29218709408E+01  0.10341920424E+03  0.00000000000E+00 0.  1.
         22    1    3    3    0    0 -0.33275738639E+02 -0.17942581345E+02  0.38698082670E+01  0.38002452859E+02  0.00000000000E+00 0.  1.
</event>
<event>
 7    1  0.5736319E-006  0.7617646E+02  0.7818608E-02  0.1344682E+00
          2   -1    0    0  502    0  0.00000000000E+00  0.00000000000E+00  0.97768278138E+03  0.97768278138E+03  0.00000000000E+00 0. -1.
          1   -1    0    0  501    0 -0.00000000000E+00 -0.00000000000E+00 -0.17963429291E+03  0.17963429291E+03  0.00000000000E+00 0. -1.
         25    2    1    2    0    0  0.53415511404E+01 -0.22112227610E+02  0.69423044585E+02  0.14478243872E+03  0.12499965066E+03 0.  0.
          2    1    1    2  501    0  0.70906058407E+02  0.27842128172E+02 -0.12991212892E+03  0.15059885279E+03  0.00000000000E+00 0. -1.
          1    1    1    2  502    0 -0.76247609547E+02 -0.57299005617E+01  0.85853757280E+03  0.86193578278E+03  0.00000000000E+00 0. -1.
         22    1    3    3    0    0 -0.59032210604E+02 -0.19673752545E+02  0.28313810245E+02  0.68363223143E+02  0.00000000000E+00 0. -1.
         22    1    3    3    0    0  0.64373761744E+02 -0.24384750655E+01  0.41109234340E+02  0.76419215579E+02  0.00000000000E+00 0. -1.
</event>
<event>
 7    1  0.5736319E-006  0.1802553E+03  0.7818608E-02  0.1224325E+00
          2   -1    0    0  502    0  0.00000000000E+00  0.00000000000E+00  0.15359943568E+03  0.15359943568E+03  0.00000000000E+00 0. -1.
          1   -1    0    0  501    0 -0.00000000000E+00 -0.00000000000E+00 -0.51465679094E+03  0.51465679094E+03  0.00000000000E+00 0. -1.
         25    2    1    2    0    0  0.36961960512E+02  0.19684306587E+03 -0.17396201914E+03  0.29325866612E+03  0.12499792816E+03 0.  0.
          2    1    1    2  501    0  0.55780746675E+02 -0.16891361520E+03 -0.21025561125E+03  0.27541009996E+03  0.00000000000E+00 0. -1.
          1    1    1    2  502    0 -0.92742707187E+02 -0.27929450668E+02  0.23160275127E+02  0.99587460530E+02  0.00000000000E+00 0. -1.
         22    1    3    3    0    0  0.34886022091E+02  0.13533262911E+03 -0.18383434535E+03  0.23092644190E+03  0.00000000000E+00 0.  1.
         22    1    3    3    0    0  0.20759384208E+01  0.61510436764E+02  0.98723262112E+01  0.62332224219E+02  0.00000000000E+00 0.  1.
</event>
<event>
 7    1  0.5736319E-006  0.1443983E+03  0.7818608E-02  0.1211576E+00
          2   -1    0    0  502    0  0.00000000000E+00  0.00000000000E+00  0.13026945051E+04  0.13026945051E+04  0.00000000000E+00 0. -1.
          1   -1    0    0  501    0 -0.00000000000E+00 -0.00000000000E+00 -0.29941860154E+03  0.29941860154E+03  0.00000000000E+00 0. -1.
         25    2    1    2    0    0 -0.73055516433E+02  0.52919238165E+02  0.28724599812E+03  0.32599607523E+03  0.12500249349E+03 0.  0.
          2    1    1    2  501    0 -0.26274882494E+02 -0.14913516153E+03 -0.25430488397E+03  0.29597743135E+03  0.00000000000E+00 0. -1.
          1    1    1    2  502    0  0.99330398926E+02  0.96215923363E+02  0.97033478941E+03  0.98013960006E+03  0.00000000000E+00 0. -1.
         22    1    3    3    0    0  0.11008466267E+02  0.63420911502E+02  0.84205224253E+02  0.10599017944E+03  0.00000000000E+00 0. -1.
         22    1    3    3    0    0 -0.84063982700E+02 -0.10501673337E+02  0.20304077387E+03  0.22000589579E+03  0.00000000000E+00 0. -1.
</event>
<event>
 7    1  0.5736319E-006  0.3224902E+02  0.7818608E-02  0.1606272E+00
          2   -1    0    0  502    0  0.00000000000E+00  0.00000000000E+00  0.23157868211E+03  0.23157868211E+03  0.00000000000E+00 0. -1.
          1   -1    0    0  501    0 -0.00000000000E+00 -0.00000000000E+00 -0.11773752365E+03  0.11773752365E+03  0.00000000000E+00 0. -1.
         25    2    1    2    0    0  0.78649611604E+01 -0.30196089873E+02  0.16165511799E+03  0.20671410186E+03  0.12499872511E+03 0.  0.
          2    1    1    2  501    0  0.22867447570E+02  0.13530830995E+02 -0.86482809640E+02  0.90472536767E+02  0.00000000000E+00 0. -1.
          1    1    1    2  502    0 -0.30732408731E+02  0.16665258878E+02  0.38668850116E+02  0.52129567130E+02  0.00000000000E+00 0. -1.
         22    1    3    3    0    0 -0.51321568010E+02 -0.14835350650E+02  0.12370441616E+03  0.13474707251E+03  0.00000000000E+00 0.  1.
         22    1    3    3    0    0  0.59186529170E+02 -0.15360739223E+02  0.37950701829E+02  0.71967029354E+02  0.00000000000E+00 0.  1.
</event>
<event>
 7    1  0.5736319E-006  0.1587914E+03  0.7818608E-02  0.1243193E+00
          2   -1    0    0  502    0  0.00000000000E+00  0.00000000000E+00  0.11133501338E+04  0.11133501338E+04  0.00000000000E+00 0. -1.
          1   -1    0    0  501    0 -0.00000000000E+00 -0.00000000000E+00 -0.43594318579E+03  0.43594318579E+03  0.00000000000E+00 0. -1.
         25    2    1    2    0    0 -0.90326028593E+02 -0.10698371837E+02 -0.13260432336E+00  0.15458972498E+03  0.12499887553E+03 0.  0.
          2    1    1    2  501    0  0.17131295778E+03  0.51306698454E+02 -0.33413468137E+03  0.37898085981E+03  0.00000000000E+00 0. -1.
          1    1    1    2  502    0 -0.80986929183E+02 -0.40608326616E+02  0.10116742337E+04  0.10157227349E+04  0.00000000000E+00 0. -1.
         22    1    3    3    0    0  0.26617962941E+02  0.30597035152E+00 -0.22695923760E+02  0.34981631241E+02  0.00000000000E+00 0. -1.
         22    1    3    3    0    0 -0.11694399153E+03 -0.11004342189E+02  0.22563319436E+02  0.11960809373E+03  0.00000000000E+00 0. -1.
</event>
<event>
 7    1  0.5736319E-006  0.1952104E+03  0.7818608E-02  0.1164120E+00
          2   -1    0    0  502    0  0.00000000000E+00  0.00000000000E+00  0.23510911533E+04  0.23510911533E+04  0.00000000000E+00 0. -1.
          1   -1    0    0  501    0 -0.00000000000E+00 -0.00000000000E+00 -0.93124053075E+02  0.93124053075E+02  0.00000000000E+00 0. -1.
         25    2    1    2    0    0 -0.10121171829E+03 -0.72409029593E+02  0.49340259383E+03  0.52398247007E+03  0.12499851943E+03 0.  0.
          2    1    1    2  501    0  0.17672127103E+03 -0.10760601612E+03  0.75998916272E+02  0.22042072864E+03  0.00000000000E+00 0. -1.
          1    1    1    2  502    0 -0.75509552744E+02  0.18001504571E+03  0.16885655902E+04  0.16998120077E+04  0.00000000000E+00 0. -1.
         22    1    3    3    0    0 -0.46119503251E+02 -0.11406608467E+02  0.36946419172E+02  0.60184359982E+02  0.00000000000E+00 0.  1.
         22    1    3    3    0    0 -0.55092215038E+02 -0.61002421125E+02  0.45645617465E+03  0.46379811009E+03  0.00000000000E+00 0.  1.
</event>
<event>
 7    1  0.5736319E-006  0.9434676E+02  0.7818608E-02  0.1434874E+00
          2   -1    0    0  502    0  0.00000000000E+00  0.00000000000E+00  0.11420320181E+04  0.11420320181E+04  0.00000000000E+00 0. -1.
          1   -1    0    0  501    0 -0.00000000000E+00 -0.00000000000E+00 -0.56144389707E+02  0.56144389707E+02  0.00000000000E+00 0. -1.
         25    2    1    2    0    0 -0.88526450960E+02 -0.63558931726E+01  0.57688920191E+03  0.59691251937E+03  0.12500429834E+03 0.  0.
          2    1    1    2  501    0  0.88463806475E+02  0.35009315611E+02  0.37600241165E+01  0.95213628315E+02  0.00000000000E+00 0. -1.
          1    1    1    2  502    0  0.62644485161E-01 -0.28653422438E+02  0.50523840239E+03  0.50605026014E+03  0.00000000000E+00 0. -1.
         22    1    3    3    0    0 -0.96028249412E+02  0.33079595701E+02  0.29092489357E+03  0.30814441100E+03  0.00000000000E+00 0. -1.
         22    1    3    3    0    0  0.75017984511E+01 -0.39435488874E+02  0.28596430834E+03  0.28876810836E+03  0.00000000000E+00 0. -1.
</event>
<event>
 7    1  0.5736319E-006  0.9683337E+02  0.7818608E-02  0.1311127E+00
          2   -1    0    0  502    0  0.00000000000E+00  0.00000000000E+00  0.88563568125E+03  0.88563568125E+03  0.00000000000E+00 0. -1.
          1   -1    0    0  501    0 -0.00000000000E+00 -0.00000000000E+00 -0.26068595345E+03  0.26068595345E+03  0.00000000000E+00 0. -1.
         25    2    1    2    0    0 -0.43942939412E+02 -0.15124826532E+03  0.24436819664E+03  0.31646199009E+03  0.12500142383E+03 0.  0.
          2    1    1    2  501    0  0.58309285895E+02  0.75019951503E+02 -0.21194955102E+03  0.23227263749E+03  0.00000000000E+00 0. -1.
          1    1    1    2  502    0 -0.14366346483E+02  0.76228313813E+02  0.59253108218E+03  0.59758700713E+03  0.00000000000E+00 0. -1.
         22    1    3    3    0    0 -0.66675764727E+01 -0.15504954466E+03  0.15399986277E+03  0.21863388486E+03  0.00000000000E+00 0.  1.
         22    1    3    3    0    0 -0.37275362940E+02  0.38012793451E+01  0.90368333867E+02  0.97828105230E+02  0.00000000000E+00 0.  1.
</event>
<event>
 7    1  0.5736319E-006  0.6509690E+02  0.7818608E-02  0.1505287E+00
          2   -1    0    0  502    0  0.00000000000E+00  0.00000000000E+00  0.39124255981E+02  0.39124255981E+02  0.00000000000E+00 0. -1.
          1   -1    0    0  501    0 -0.00000000000E+00 -0.00000000000E+00 -0.43200740538E+03  0.43200740538E+03  0.00000000000E+00 0. -1.
         25    2    1    2    0    0  0.41352521343E+02 -0.69159145379E+02 -0.26634413504E+03  0.30505254267E+03  0.12499934843E+03 0.  0.
          2    1    1    2  501    0 -0.40882139050E+02  0.44090467754E+02 -0.12752233567E+03  0.14098675375E+03  0.00000000000E+00 0. -1.
          1    1    1    2  502    0 -0.47038229349E+00  0.25068677625E+02  0.98332130753E+00  0.25092364937E+02  0.00000000000E+00 0. -1.
         22    1    3    3    0    0  0.86106125218E+02 -0.51663734025E+02 -0.18830192750E+03  0.21340342573E+03  0.00000000000E+00 0. -1.
         22    1    3    3    0    0 -0.44753603875E+02 -0.17495411354E+02 -0.78042207545E+02  0.91649116944E+02  0.00000000000E+00 0. -1.
</event>
<event>
 7    1  0.5736319E-006  0.3161813E+03  0.7818608E-02  0.1275555E+00
          2   -1    0    0  502    0  0.00000000000E+00  0.00000000000E+00  0.14761043662E+04  0.14761043662E+04  0.00000000000E+00 0. -1.
          1   -1    0    0  501    0 -0.00000000000E+00 -0.00000000000E+00 -0.18387364001E+03  0.18387364001E+03  0.00000000000E+00 0. -1.
         25    2    1    2    0    0 -0.12046868199E+03  0.29170269225E+03  0.72526180656E+03  0.80077043443E+03  0.12500174635E+03 0.  0.
          2    1    1    2  501    0  0.30495908652E+02  0.12848296075E+02 -0.10816629841E+03  0.11311510628E+03  0.00000000000E+00 0. -1.
          1    1    1    2  502    0  0.89972773341E+02 -0.30455098833E+03  0.67513521799E+03  0.74609246546E+03  0.00000000000E+00 0. -1.
         22    1    3    3    0    0 -0.72717058938E+02  0.87770495873E+02  0.38211957283E+03  0.39875656552E+03  0.00000000000E+00 0.  1.
         22    1    3    3    0    0 -0.47751623056E+02  0.20393219638E+03  0.34314223374E+03  0.40201386892E+03  0.00000000000E+00 0.  1.
</event>
<event>
 7    1  0.5736319E-006  0.1239575E+03  0.7818608E-02  0.1342290E+00
          2   -1    0    0  502    0  0.00000000000E+00  0.00000000000E+00  0.99181859298E+03  0.99181859298E+03  0.00000000000E+00 0. -1.
          1   -1    0    0  501    0 -0.00000000000E+00 -0.00000000000E+00 -0.95683125426E+02  0.95683125426E+02  0.00000000000E+00 0. -1.
         25    2    1    2    0    0 -0.11902867266E+03  0.11551061413E+03  0.52627158017E+03  0.56577015392E+03  0.12499425618E+03 0.  0.
          2    1    1    2  501    0  0.82680951320E+02 -0.87315418708E+02 -0.26145116921E+02  0.12305969768E+03  0.00000000000E+00 0. -1.
          1    1    1    2  502    0  0.36347721337E+02 -0.28195195420E+02  0.39600900430E+03  0.39867186680E+03  0.00000000000E+00 0. -1.
         22    1    3    3    0    0 -0.52321979765E+02  0.10646473014E+03  0.44344303052E+03  0.45903600038E+03  0.00000000000E+00 0. -1.
         22    1    3    3    0    0 -0.66706692893E+02  0.90458839922E+01  0.82828549650E+02  0.10673415354E+03  0.00000000000E+00 0. -1.
</event>
<event>
 7    1  0.5736319E-006  0.1129299E+03  0.7818608E-02  0.1256454E+00
          2   -1    0    0  502    0  0.00000000000E+00  0.00000000000E+00  0.57001384605E+03  0.57001384605E+03  0.00000000000E+00 0. -1.
          1   -1    0    0  501    0 -0.00000000000E+00 -0.00000000000E+00 -0.23408798714E+03  0.23408798714E+03  0.00000000000E+00 0. -1.
         25    2    1    2    0    0 -0.12740936167E+01  0.79845043142E+01  0.32985405303E+03  0.35283735319E+03  0.12500050351E+03 0.  0.
          2    1    1    2  501    0  0.81328174912E+02 -0.85711566003E+02 -0.19111899334E+03  0.22469360070E+03  0.00000000000E+00 0. -1.
          1    1    1    2  502    0 -0.80054081295E+02  0.77727061688E+02  0.19719079921E+03  0.22657087930E+03  0.00000000000E+00 0. -1.
         22    1    3    3    0    0 -0.10682631324E+02  0.65683336256E+02  0.18676733928E+03  0.19826865182E+03  0.00000000000E+00 0.  1.
         22    1    3    3    0    0  0.94085377076E+01 -0.57698831942E+02  0.14308671376E+03  0.15456870137E+03  0.00000000000E+00 0.  1.
</event>
<event>
 7    1  0.5736319E-006  0.4443151E+02  0.7818608E-02  0.1564205E+00
          2   -1    0    0  502    0  0.00000000000E+00  0.00000000000E+00  0.18511513063E+04  0.18511513063E+04  0.00000000000E+00 0. -1.
          1   -1    0    0  501    0 -0.00000000000E+00 -0.00000000000E+00 -0.22294726937E+04  0.22294726937E+04  0.00000000000E+00 0. -1.
         25    2    1    2    0    0 -0.23056140116E+02  0.11925141014E+02 -0.34138123528E+02  0.13214969174E+03  0.12499733983E+03 0.  0.
          2    1    1    2  501    0  0.44525918025E+02  0.80932235552E+00 -0.21460113240E+04  0.21464733437E+04  0.00000000000E+00 0. -1.
          1    1    1    2  502    0 -0.21469777909E+02 -0.12734463370E+02  0.18018280601E+04  0.18020009645E+04  0.00000000000E+00 0. -1.
         22    1    3    3    0    0 -0.71641524921E+02  0.27351597417E+02 -0.20040548648E+02  0.79260592759E+02  0.00000000000E+00 0. -1.
         22    1    3    3    0    0  0.48585384805E+02 -0.15426456403E+02 -0.14097574880E+02  0.52889098984E+02  0.00000000000E+00 0. -1.
</event>
<event>
 7    1  0.5736319E-006  0.1456777E+03  0.7818608E-02  0.1209070E+00
          2   -1    0    0  502    0  0.00000000000E+00  0.00000000000E+00  0.13306098325E+04  0.13306098325E+04  0.00000000000E+00 0. -1.
          1   -1    0    0  501    0 -0.00000000000E+00 -0.00000000000E+00 -0.90515349191E+02  0.90515349191E+02  0.00000000000E+00 0. -1.
         25    2    1    2    0    0  0.44937419531E+01 -0.36983410568E+02  0.90078125907E+02  0.15851772537E+03  0.12500333642E+03 0.  0.
          2    1    1    2  501    0 -0.13090863806E+03 -0.63913308683E+02  0.55006758910E+02  0.15571681371E+03  0.00000000000E+00 0. -1.
          1    1    1    2  502    0  0.12641489611E+03  0.10089671925E+03  0.10950095985E+04  0.11068906426E+04  0.00000000000E+00 0. -1.
         22    1    3    3    0    0  0.64266148022E+02 -0.22553552110E+02  0.56271962896E+02  0.88347803043E+02  0.00000000000E+00 0.  1.
         22    1    3    3    0    0 -0.59772406069E+02 -0.14429858458E+02  0.33806163010E+02  0.70169922330E+02  0.00000000000E+00 0.  1.
</event>
<event>
 7    1  0.5736319E-006  0.6934977E+02  0.7818608E-02  0.1394733E+00
          2   -1    0    0  502    0  0.00000000000E+00  0.00000000000E+00  0.33823005218E+04  0.33823005218E+04  0.00000000000E+00 0. -1.
          1   -1    0    0  501    0 -0.00000000000E+00 -0.00000000000E+00 -0.21707018337E+04  0.21707018337E+04  0.00000000000E+00 0. -1.
         25    2    1    2    0    0  0.43279246947E+02  0.13292109747E+02  0.92602033495E+02  0.16202118829E+03  0.12500382174E+03 0.  0.
          2    1    1    2  501    0 -0.58407409032E+02  0.37719458236E+02 -0.21352089216E+04  0.21363406381E+04  0.00000000000E+00 0. -1.
          1    1    1    2  502    0  0.15128162084E+02 -0.51011567983E+02  0.32542055763E+04  0.32546405291E+04  0.00000000000E+00 0. -1.
         22    1    3    3    0    0  0.48089374618E+02  0.52887539588E+02  0.12539988013E+02  0.72573625334E+02  0.00000000000E+00 0. -1.
         22    1    3    3    0    0 -0.48101276702E+01 -0.39595429840E+02  0.80062045482E+02  0.89447562958E+02  0.00000000000E+00 0. -1.
</event>
<event>
 7    1  0.5736319E-006  0.1390764E+03  0.7818608E-02  0.1256621E+00
          2   -1    0    0  502    0  0.00000000000E+00  0.00000000000E+00  0.29089590848E+04  0.29089590848E+04  0.00000000000E+00 0. -1.
          1   -1    0    0  501    0 -0.00000000000E+00 -0.00000000000E+00 -0.46551247297E+03  0.46551247297E+03  0.00000000000E+00 0. -1.
         25    2    1    2    0    0  0.12521125260E+03 -0.10858196477E+02  0.23021184051E+04  0.23089321253E+04  0.12499060023E+03 0.  0.
          2    1    1    2  501    0  0.90366570289E+02  0.39655657234E+01 -0.43806272298E+03  0.44730391459E+03  0.00000000000E+00 0. -1.
          1    1    1    2  502    0 -0.21557782288E+03  0.68926307536E+01  0.57939092976E+03  0.61823551788E+03  0.00000000000E+00 0. -1.
         22    1    3    3    0    0  0.18707844745E+02  0.49743993356E+02  0.56339919225E+03  0.56590025460E+03  0.00000000000E+00 0.  1.
         22    1    3    3    0    0  0.10650340785E+03 -0.60602189833E+02  0.17387192128E+04  0.17430318707E+04  0.00000000000E+00 0.  1.
</event>
<event>
 7    1  0.5736319E-006  0.7377503E+02  0.7818608E-02  0.1453337E+00
          2   -1    0    0  502    0  0.00000000000E+00  0.00000000000E+00  0.10748506506E+04  0.10748506506E+04  0.00000000000E+00 0. -1.
          1   -1    0    0  501    0 -0.00000000000E+00 -0.00000000000E+00 -0.32519218698E+03  0.32519218698E+03  0.00000000000E+00 0. -1.
         25    2    1    2    0    0 -0.47618275105E+02  0.48918145184E+02  0.32767695228E+03  0.35729218091E+03  0.12500012972E+03 0.  0.
          2    1    1    2  501    0 -0.22799047830E+02 -0.22378314416E+02 -0.30762209113E+03  0.30927647258E+03  0.00000000000E+00 0. -1.
          1    1    1    2  502    0  0.70417322935E+02 -0.26539830768E+02  0.72960360249E+03  0.73347418410E+03  0.00000000000E+00 0. -1.
         22    1    3    3    0    0 -0.29991531956E+02  0.91048251922E+02  0.20247133685E+03  0.22401767433E+03  0.00000000000E+00 0.  1.
         22    1    3    3    0    0 -0.17626743149E+02 -0.42130106739E+02  0.12520561543E+03  0.13327450657E+03  0.00000000000E+00 0.  1.
</event>
<event>
 7    1  0.5736319E-006  0.4564023E+02  0.7818608E-02  0.1473749E+00
          2   -1    0    0  502    0  0.00000000000E+00  0.00000000000E+00  0.56218868128E+02  0.56218868128E+02  0.00000000000E+00 0. -1.
          1   -1    0    0  501    0 -0.00000000000E+00 -0.00000000000E+00 -0.36762883984E+03  0.36762883984E+03  0.00000000000E+00 0. -1.
         25    2    1    2    0    0 -0.23129816302E+02  0.21853501523E+02 -0.17158060200E+03  0.21465598250E+03  0.12499889563E+03 0.  0.
          2    1    1    2  501    0 -0.14480371861E+02 -0.47708960286E+02 -0.15362419922E+03  0.16151229256E+03  0.00000000000E+00 0. -1.
          1    1    1    2  502    0  0.37610188164E+02  0.25855458763E+02  0.13794829511E+02  0.47679432912E+02  0.00000000000E+00 0. -1.
         22    1    3    3    0    0 -0.63031658370E+02  0.49678818551E+02 -0.11056035051E+03  0.13661832261E+03  0.00000000000E+00 0. -1.
         22    1    3    3    0    0  0.39901842068E+02 -0.27825317028E+02 -0.61020251498E+02  0.78037659889E+02  0.00000000000E+00 0. -1.
</event>
<event>
 7    1  0.5736319E-006  0.4637844E+02  0.7818608E-02  0.1510881E+00
          2   -1    0    0  502    0  0.00000000000E+00  0.00000000000E+00  0.37573265501E+03  0.37573265501E+03  0.00000000000E+00 0. -1.
          1   -1    0    0  501    0 -0.00000000000E+00 -0.00000000000E+00 -0.65090345668E+02  0.65090345668E+02  0.00000000000E+00 0. -1.
         25    2    1    2    0    0  0.41685948341E+02  0.23471832879E+02  0.83657830935E+02  0.15782803543E+03  0.12498964302E+03 0.  0.
          2    1    1    2  501    0 -0.46900918814E+02  0.10004111469E+02 -0.53043188214E+01  0.48248463499E+02  0.00000000000E+00 0. -1.
          1    1    1    2  502    0  0.52149704723E+01 -0.33475944349E+02  0.23228879723E+03  0.23474650175E+03  0.00000000000E+00 0. -1.
         22    1    3    3    0    0  0.17836504247E+01  0.40662466715E+02 -0.20060853262E+02  0.45376816127E+02  0.00000000000E+00 0. -1.
         22    1    3    3    0    0  0.39902297917E+02 -0.17190633836E+02  0.10371868420E+03  0.11245121930E+03  0.00000000000E+00 0. -1.
</event>
<event>
 7    1  0.5736319E-006  0.3369514E+02  0.7818608E-02  0.1619718E+00
          2   -1    0    0  502    0  0.00000000000E+00  0.00000000000E+00  0.23358260484E+03  0.23358260484E+03  0.00000000000E+00 0. -1.
          1   -1    0    0  501    0 -0.00000000000E+00 -0.00000000000E+00 -0.59759934667E+03  0.59759934667E+03  0.00000000000E+00 0. -1.
         25    2    1    2    0    0 -0.32984255348E+02 -0.27318940732E+02 -0.30085945705E+03  0.32859946592E+03  0.12500764171E+03 0.  0.
          2    1    1    2  501    0  0.22979920677E+02 -0.48471954301E+01 -0.28108610993E+03  0.28206554779E+03  0.00000000000E+00 0. -1.
          1    1    1    2  502    0  0.10004334671E+02  0.32166136162E+02  0.21792882514E+03  0.22051693780E+03  0.00000000000E+00 0. -1.
         22    1    3    3    0    0 -0.38366610753E+02  0.32764746741E+02 -0.51689049447E+02  0.72230764100E+02  0.00000000000E+00 0. -1.
         22    1    3    3    0    0  0.53823554046E+01 -0.60083687473E+02 -0.24917040760E+03  0.25636870182E+03  0.00000000000E+00 0. -1.
</event>
<event>
 7    1  0.5736319E-006  0.9710046E+02  0.7818608E-02  0.1450583E+00
          2   -1    0    0  502    0  0.00000000000E+00  0.00000000000E+00  0.75225070911E+03  0.75225070911E+03  0.00000000000E+00 0. -1.
          1   -1    0    0  501    0 -0.00000000000E+00 -0.00000000000E+00 -0.15788666798E+03  0.15788666798E+03  0.00000000000E+00 0. -1.
         25    2    1    2    0    0 -0.52235232287E+02 -0.63975475651E+02  0.20723458173E+03  0.25572153476E+03  0.12500380194E+03 0.  0.
          2    1    1    2  501    0 -0.24767560969E+02 -0.22060368831E+00 -0.12761660566E+03  0.12999799531E+03  0.00000000000E+00 0. -1.
          1    1    1    2  502    0  0.77002793256E+02  0.64196079340E+02  0.51474606507E+03  0.52441784702E+03  0.00000000000E+00 0. -1.
         22    1    3    3    0    0  0.38726036351E+02 -0.13393268679E+02  0.32340860072E+02  0.52201693148E+02  0.00000000000E+00 0.  1.
         22    1    3    3    0    0 -0.90961268638E+02 -0.50582206973E+02  0.17489372166E+03  0.20351984162E+03  0.00000000000E+00 0.  1.
</event>
<event>
 7    1  0.5736319E-006  0.4518519E+02  0.7818608E-02  0.1531505E+00
          2   -1    0    0  502    0  0.00000000000E+00  0.00000000000E+00  0.12317992988E+03  0.12317992988E+03  0.00000000000E+00 0. -1.
          1   -1    0    0  501    0 -0.00000000000E+00 -0.00000000000E+00 -0.38714773681E+03  0.38714773681E+03  0.00000000000E+00 0. -1.
         25    2    1    2    0    0 -0.41628764231E+02 -0.50012065482E+02 -0.16918878725E+03  0.22019310078E+03  0.12500398072E+03 0.  0.
          2    1    1    2  501    0  0.29509518609E+02  0.68827427228E+01 -0.18602883247E+03  0.18848053042E+03  0.00000000000E+00 0. -1.
          1    1    1    2  502    0  0.12119245621E+02  0.43129322759E+02  0.91249812789E+02  0.10165403548E+03  0.00000000000E+00 0. -1.
         22    1    3    3    0    0  0.16900381097E+02 -0.74275717087E+02 -0.10758694091E+03  0.13182357484E+03  0.00000000000E+00 0.  1.
         22    1    3    3    0    0 -0.58529145328E+02  0.24263651605E+02 -0.61601846338E+02  0.88369525936E+02  0.00000000000E+00 0.  1.
</event>
<event>
 7    1  0.5736319E-006  0.2933737E+03  0.7818608E-02  0.1126763E+00
          2   -1    0    0  502    0  0.00000000000E+00  0.00000000000E+00  0.28116430667E+03  0.28116430667E+03  0.00000000000E+00 0. -1.
          1   -1    0    0  501    0 -0.00000000000E+00 -0.00000000000E+00 -0.19998940410E+04  0.19998940410E+04  0.00000000000E+00 0. -1.
         25    2    1    2    0    0  0.27217723008E+03  0.62880230380E+02 -0.27433835776E+03  0.41099865906E+03  0.12499598100E+03 0.  0.
          2    1    1    2  501    0 -0.20254543199E+03 -0.22891195321E+03 -0.16019268352E+04  0.16308264530E+04  0.00000000000E+00 0. -1.
          1    1    1    2  502    0 -0.69631798083E+02  0.16603172283E+03  0.15753545866E+03  0.23923323562E+03  0.00000000000E+00 0. -1.
         22    1    3    3    0    0  0.10957266792E+03  0.76505992152E+02 -0.74492960060E+02  0.15299848852E+03  0.00000000000E+00 0.  1.
         22    1    3    3    0    0  0.16260456216E+03 -0.13625761772E+02 -0.19984539770E+03  0.25800017054E+03  0.00000000000E+00 0.  1.
</event>
<event>
 7    1  0.5736319E-006  0.7673943E+02  0.7818608E-02  0.1383443E+00
          2   -1    0    0  502    0  0.00000000000E+00  0.00000000000E+00  0.24362942640E+04  0.24362942640E+04  0.00000000000E+00 0. -1.
          1   -1    0    0  501    0 -0.00000000000E+00 -0.00000000000E+00 -0.32350904596E+03  0.32350904596E+03  0.00000000000E+00 0. -1.
         25    2    1    2    0    0  0.23862356797E+02 -0.85034829824E+01 -0.13283405380E+03  0.18415306193E+03  0.12500297226E+03 0.  0.
          2    1    1    2  501    0  0.52654671136E+02  0.43110611954E+00 -0.16018408283E+03  0.16861684565E+03  0.00000000000E+00 0. -1.
          1    1    1    2  502    0 -0.76517027933E+02  0.80723768629E+01  0.24058033547E+04  0.24070334024E+04  0.00000000000E+00 0. -1.
         22    1    3    3    0    0  0.41500255576E+02  0.50700140495E+02 -0.74117886931E+02  0.98925409386E+02  0.00000000000E+00 0.  1.
         22    1    3    3    0    0 -0.17637898779E+02 -0.59203623477E+02 -0.58716166865E+02  0.85227652540E+02  0.00000000000E+00 0.  1.
</event>
<event>
 7    1  0.5736319E-006  0.7744099E+02  0.7818608E-02  0.1381452E+00
          2   -1    0    0  502    0  0.00000000000E+00  0.00000000000E+00  0.34848715081E+04  0.34848715081E+04  0.00000000000E+00 0. -1.
          1   -1    0    0  501    0 -0.00000000000E+00 -0.00000000000E+00 -0.26273922366E+03  0.26273922366E+03  0.00000000000E+00 0. -1.
         25    2    1    2    0    0 -0.22966797260E+02 -0.12994334541E+02  0.15998139654E+03  0.20473010717E+03  0.12499617209E+03 0.  0.
          2    1    1    2  501    0  0.72060555077E+02  0.33044826566E+02 -0.23360914672E+03  0.24669397558E+03  0.00000000000E+00 0. -1.
          1    1    1    2  502    0 -0.49093757817E+02 -0.20050492025E+02  0.32957600347E+04  0.32961866490E+04  0.00000000000E+00 0. -1.
         22    1    3    3    0    0 -0.21939245090E+02  0.38091990029E+02  0.83807762494E+01  0.44750056872E+02  0.00000000000E+00 0.  1.
         22    1    3    3    0    0 -0.10275521699E+01 -0.51086324570E+02  0.15160062029E+03  0.15998005030E+03  0.00000000000E+00 0.  1.
</event>
<event>
 7    1  0.5736319E-006  0.6446326E+02  0.7818608E-02  0.1480981E+00
          2   -1    0    0  502    0  0.00000000000E+00  0.00000000000E+00  0.10083993370E+04  0.10083993370E+04  0.00000000000E+00 0. -1.
          1   -1    0    0  501    0 -0.00000000000E+00 -0.00000000000E+00 -0.14954927555E+04  0.14954927555E+04  0.00000000000E+00 0. -1.
         25    2    1    2    0    0  0.38289268112E+02  0.83487150408E+02 -0.25322529411E+00  0.15512562124E+03  0.12501088715E+03 0.  0.
          2    1    1    2  501    0 -0.35256719924E+02 -0.53671497795E+02 -0.14168347039E+04  0.14182891962E+04  0.00000000000E+00 0. -1.
          1    1    1    2  502    0 -0.30325481886E+01 -0.29815652613E+02  0.92999451066E+03  0.93047727503E+03  0.00000000000E+00 0. -1.
         22    1    3    3    0    0 -0.21314274615E+02  0.92215603461E+02 -0.43544836196E+01  0.94746912096E+02  0.00000000000E+00 0.  1.
         22    1    3    3    0    0  0.59603542728E+02 -0.87284530526E+01  0.41012583255E+01  0.60378709147E+02  0.00000000000E+00 0.  1.
</event>
<event>
 7    1  0.5736319E-006  0.1136805E+03  0.7818608E-02  0.1354343E+00
          2   -1    0    0  502    0  0.00000000000E+00  0.00000000000E+00  0.21571472970E+04  0.21571472970E+04  0.00000000000E+00 0. -1.
          1   -1    0    0  501    0 -0.00000000000E+00 -0.00000000000E+00 -0.21947203788E+03  0.21947203788E+03  0.00000000000E+00 0. -1.
         25    2    1    2    0    0  0.83868109599E+02  0.83702353605E+02  0.38352333407E+02  0.17645404347E+03  0.12500073669E+03 0.  0.
          2    1    1    2  501    0  0.21168347723E+02 -0.39988908991E+02 -0.14540123968E+03  0.15227846955E+03  0.00000000000E+00 0. -1.
          1    1    1    2  502    0 -0.10503645732E+03 -0.43713444614E+02  0.20447241654E+04  0.20478868218E+04  0.00000000000E+00 0. -1.
         22    1    3    3    0    0  0.11109195384E+03  0.68712195952E+02  0.54373537655E+02  0.14148946844E+03  0.00000000000E+00 0.  1.
         22    1    3    3    0    0 -0.27223844243E+02  0.14990157653E+02 -0.16021204248E+02  0.34964575035E+02  0.00000000000E+00 0.  1.
</event>
<event>
 7    1  0.5736319E-006  0.1219300E+03  0.7818608E-02  0.1349538E+00
          2   -1    0    0  502    0  0.00000000000E+00  0.00000000000E+00  0.15436818824E+04  0.15436818824E+04  0.00000000000E+00 0. -1.
          1   -1    0    0  501    0 -0.00000000000E+00 -0.00000000000E+00 -0.58146561336E+03  0.58146561336E+03  0.00000000000E+00 0. -1.
         25    2    1    2    0    0 -0.21682278216E+02  0.11361611588E+03 -0.12934676013E+02  0.17079443504E+03  0.12499876088E+03 0.  0.
          2    1    1    2  501    0  0.43423474928E+02  0.67495670216E+01 -0.48605463771E+03  0.48803715604E+03  0.00000000000E+00 0. -1.
          1    1    1    2  502    0 -0.21741196712E+02 -0.12036568290E+03  0.14612055828E+04  0.14663159047E+04  0.00000000000E+00 0. -1.
         22    1    3    3    0    0 -0.40988030016E+02  0.93801097399E+02 -0.58193258301E+02  0.11775024327E+03  0.00000000000E+00 0.  1.
         22    1    3    3    0    0  0.19305751799E+02  0.19815018476E+02  0.45258582288E+02  0.53044191769E+02  0.00000000000E+00 0.  1.
</event>
<event>
 7    1  0.5736319E-006  0.1928715E+03  0.7818608E-02  0.1202447E+00
          2   -1    0    0  502    0  0.00000000000E+00  0.00000000000E+00  0.21247671778E+04  0.21247671778E+04  0.00000000000E+00 0. -1.
          1   -1    0    0  501    0 -0.00000000000E+00 -0.00000000000E+00 -0.15133227140E+04  0.15133227140E+04  0.00000000000E+00 0. -1.
         25    2    1    2    0    0 -0.56079051368E+02  0.15374887599E+03  0.13109941061E+03  0.24412022467E+03  0.12499620697E+03 0.  0.
          2    1    1    2  501    0 -0.10661625435E+03 -0.40894850487E+02 -0.14495012584E+04  0.14539921982E+04  0.00000000000E+00 0. -1.
          1    1    1    2  502    0  0.16269530572E+03 -0.11285402550E+03  0.19298463115E+04  0.19399774689E+04  0.00000000000E+00 0. -1.
         22    1    3    3    0    0 -0.46670188372E+02  0.26643427692E+02 -0.92560974040E+01  0.54531220975E+02  0.00000000000E+00 0. -1.
         22    1    3    3    0    0 -0.94088629952E+01  0.12710544830E+03  0.14035550802E+03  0.18958900369E+03  0.00000000000E+00 0. -1.
</event>
<event>
 7    1  0.5736319E-006  0.9509216E+02  0.7818608E-02  0.1338352E+00
          2   -1    0    0  502    0  0.00000000000E+00  0.00000000000E+00  0.41121937317E+03  0.41121937317E+03  0.00000000000E+00 0. -1.
          1   -1    0    0  501    0 -0.00000000000E+00 -0.00000000000E+00 -0.22699199120E+04  0.22699199120E+04  0.00000000000E+00 0. -1.
         25    2    1    2    0    0 -0.10853278048E+03 -0.10275293621E+03 -0.46147584375E+03  0.50092083364E+03  0.12499678746E+03 0.  0.
          2    1    1    2  501    0  0.57548714057E+02  0.23188365496E+02 -0.17824715403E+04  0.17835510497E+04  0.00000000000E+00 0. -1.
          1    1    1    2  502    0  0.50984066428E+02  0.79564570711E+02  0.38524684522E+03  0.39666740185E+03  0.00000000000E+00 0. -1.
         22    1    3    3    0    0 -0.12028838455E+03 -0.36612354165E+02 -0.26591808080E+03  0.29414653768E+03  0.00000000000E+00 0. -1.
         22    1    3    3    0    0  0.11755604065E+02 -0.66140582042E+02 -0.19555776295E+03  0.20677429596E+03  0.00000000000E+00 0. -1.
</event>
<event>
 7    1  0.5736319E-006  0.2286690E+03  0.7818608E-02  0.1317724E+00
          2   -1    0    0  502    0  0.00000000000E+00  0.00000000000E+00  0.14700473312E+04  0.14700473312E+04  0.00000000000E+00 0. -1.
          1   -1    0    0  501    0 -0.00000000000E+00 -0.00000000000E+00 -0.17046230627E+03  0.17046230627E+03  0.00000000000E+00 0. -1.
         25    2    1    2    0    0 -0.22756418171E+02 -0.21578976659E+03  0.36909405300E+03  0.44602511257E+03  0.12499961261E+03 0.  0.
          2    1    1    2  501    0 -0.36808416355E+01  0.23188705046E+03 -0.29686263251E+02  0.23380852634E+03  0.00000000000E+00 0. -1.
          1    1    1    2  502    0  0.26437259806E+02 -0.16097283871E+02  0.96017723513E+03  0.96067599851E+03  0.00000000000E+00 0. -1.
         22    1    3    3    0    0  0.46599677739E+02 -0.14059428044E+03  0.21722691140E+03  0.26291788203E+03  0.00000000000E+00 0. -1.
         22    1    3    3    0    0 -0.69356095910E+02 -0.75195486149E+02  0.15186714160E+03  0.18310723054E+03  0.00000000000E+00 0. -1.
</event>
<event>
 7    1  0.5736319E-006  0.5371975E+02  0.7818608E-02  0.1472602E+00
          2   -1    0    0  502    0  0.00000000000E+00  0.00000000000E+00  0.81394215596E+03  0.81394215596E+03  0.00000000000E+00 0. -1.
          1   -1    0    0  501    0 -0.00000000000E+00 -0.00000000000E+00 -0.33795752903E+02  0.33795752903E+02  0.00000000000E+00 0. -1.
         25    2    1    2    0    0 -0.81428358801E+02  0.18646319814E+01  0.28875052161E+03  0.32501743128E+03  0.12500164974E+03 0.  0.
          2    1    1    2  501    0  0.47769740596E+02  0.16128368531E+02  0.27837118532E+02  0.57593207554E+02  0.00000000000E+00 0. -1.
          1    1    1    2  502    0  0.33658618204E+02 -0.17993000513E+02  0.46355876292E+03  0.46512727004E+03  0.00000000000E+00 0. -1.
         22    1    3    3    0    0 -0.59604328462E+02  0.10621053582E+02  0.34502597543E+02  0.69684374058E+02  0.00000000000E+00 0. -1.
         22    1    3    3    0    0 -0.21824030338E+02 -0.87564216003E+01  0.25424792406E+03  0.25533305722E+03  0.00000000000E+00 0. -1.
</event>
<event>
 7    1  0.5736319E-006  0.1452083E+03  0.7818608E-02  0.1328298E+00
          2   -1    0    0  502    0  0.00000000000E+00  0.00000000000E+00  0.55719277942E+03  0.55719277942E+03  0.00000000000E+00 0. -1.
          1   -1    0    0  501    0 -0.00000000000E+00 -0.00000000000E+00 -0.43159399336E+03  0.43159399336E+03  0.00000000000E+00 0. -1.
         25    2    1    2    0    0  0.12924600411E+03  0.11120722619E+03  0.38343081785E+02  0.21486587375E+03  0.12500230016E+03 0.  0.
          2    1    1    2  501    0 -0.36994314213E+01 -0.44213787709E+02 -0.33005030012E+03  0.33301913672E+03  0.00000000000E+00 0. -1.
          1    1    1    2  502    0 -0.12554657269E+03 -0.66993438480E+02  0.41730600439E+03  0.44090176231E+03  0.00000000000E+00 0. -1.
         22    1    3    3    0    0  0.12762274986E+03  0.10346429251E+03 -0.11219026993E+02  0.16467632700E+03  0.00000000000E+00 0.  1.
         22    1    3    3    0    0  0.16232542495E+01  0.77429336771E+01  0.49562108778E+02  0.50189546748E+02  0.00000000000E+00 0.  1.
</event>
<event>
 7    1  0.5736319E-006  0.8195938E+02  0.7818608E-02  0.1385866E+00
          2   -1    0    0  502    0  0.00000000000E+00  0.00000000000E+00  0.16449577569E+04  0.16449577569E+04  0.00000000000E+00 0. -1.
          1   -1    0    0  501    0 -0.00000000000E+00 -0.00000000000E+00 -0.22146640330E+03  0.22146640330E+03  0.00000000000E+00 0. -1.
         25    2    1    2    0    0  0.93360472586E+02  0.69236231157E+02  0.18094865014E+03  0.24874620843E+03  0.12498971428E+03 0.  0.
          2    1    1    2  501    0 -0.48307147425E+02 -0.19027003661E+01 -0.18328334888E+03  0.18955206867E+03  0.00000000000E+00 0. -1.
          1    1    1    2  502    0 -0.45053325161E+02 -0.67333530791E+02  0.14258260524E+04  0.14281258831E+04  0.00000000000E+00 0. -1.
         22    1    3    3    0    0 -0.10078928180E+02  0.22082469357E+02  0.11455343508E+03  0.11709700994E+03  0.00000000000E+00 0. -1.
         22    1    3    3    0    0  0.10343940077E+03  0.47153761800E+02  0.66395215058E+02  0.13164919850E+03  0.00000000000E+00 0. -1.
</event>
<event>
 7    1  0.5736319E-006  0.1103054E+03  0.7818608E-02  0.1264052E+00
          2   -1    0    0  502    0  0.00000000000E+00  0.00000000000E+00  0.63051033050E+03  0.63051033050E+03  0.00000000000E+00 0. -1.
          1   -1    0    0  501    0 -0.00000000000E+00 -0.00000000000E+00 -0.84674059337E+03  0.84674059337E+03  0.00000000000E+00 0. -1.
         25    2    1    2    0    0 -0.28460479877E+02 -0.16761052528E+02  0.17668698101E+03  0.21896251465E+03  0.12504144019E+03 0.  0.
          2    1    1    2  501    0 -0.21830301197E+02  0.11009222624E+03 -0.81520539202E+03  0.82289531017E+03  0.00000000000E+00 0. -1.
          1    1    1    2  502    0  0.50290781074E+02 -0.93331173709E+02  0.42228814813E+03  0.43539309905E+03  0.00000000000E+00 0. -1.
         22    1    3    3    0    0  0.36488839695E+02  0.31625968573E+02  0.63035945229E+02  0.79405086118E+02  0.00000000000E+00 0. -1.
         22    1    3    3    0    0 -0.64949319572E+02 -0.48387021101E+02  0.11365103578E+03  0.13955742853E+03  0.00000000000E+00 0. -1.
</event>
<event>
 7    1  0.5736319E-006  0.6787397E+02  0.7818608E-02  0.1489722E+00
          2   -1    0    0  502    0  0.00000000000E+00  0.00000000000E+00  0.24547105828E+03  0.24547105828E+03  0.00000000000E+00 0. -1.
          1   -1    0    0  501    0 -0.00000000000E+00 -0.00000000000E+00 -0.11403346409E+04  0.11403346409E+04  0.00000000000E+00 0. -1.
         25    2    1    2    0    0 -0.52132319277E+01  0.55528449912E+02 -0.12192051382E+03  0.18330318342E+03  0.12499943529E+03 0.  0.
          2    1    1    2  501    0 -0.19576235200E+02 -0.65637695853E+02 -0.98569543449E+03  0.98807237876E+03  0.00000000000E+00 0. -1.
          1    1    1    2  502    0  0.24789467127E+02  0.10109245941E+02  0.21275236570E+03  0.21443013698E+03  0.00000000000E+00 0. -1.
         22    1    3    3    0    0 -0.19301723115E+02  0.23525434537E+02  0.20474940384E+02  0.36677319546E+02  0.00000000000E+00 0. -1.
         22    1    3    3    0    0  0.14088491188E+02  0.32003015375E+02 -0.14239545421E+03  0.14662586387E+03  0.00000000000E+00 0. -1.
</event>
<event>
 7    1  0.5736319E-006  0.8524080E+02  0.7818608E-02  0.1458426E+00
          2   -1    0    0  502    0  0.00000000000E+00  0.00000000000E+00  0.50988927234E+03  0.50988927234E+03  0.00000000000E+00 0. -1.
          1   -1    0    0  501    0 -0.00000000000E+00 -0.00000000000E+00 -0.29308817420E+03  0.29308817420E+03  0.00000000000E+00 0. -1.
         25    2    1    2    0    0  0.36444378675E+02 -0.10385544259E+03  0.10990830840E+03  0.19955322911E+03  0.12501003679E+03 0.  0.
          2    1    1    2  501    0 -0.32728824923E+02  0.77475595329E+02 -0.24061818633E+03  0.25489361594E+03  0.00000000000E+00 0. -1.
          1    1    1    2  502    0 -0.37155537517E+01  0.26379847262E+02  0.34751097607E+03  0.34853060149E+03  0.00000000000E+00 0. -1.
         22    1    3    3    0    0 -0.41999090633E+02 -0.53453076353E+02  0.22116976524E+02  0.71486471700E+02  0.00000000000E+00 0.  1.
         22    1    3    3    0    0  0.78443469307E+02 -0.50402366239E+02  0.87791331880E+02  0.12806675741E+03  0.00000000000E+00 0.  1.
</event>
<event>
 7    1  0.5736319E-006  0.6392325E+02  0.7818608E-02  0.1512948E+00
          2   -1    0    0  502    0  0.00000000000E+00  0.00000000000E+00  0.67064454616E+03  0.67064454616E+03  0.00000000000E+00 0. -1.
          1   -1    0    0  501    0 -0.00000000000E+00 -0.00000000000E+00 -0.81541651120E+03  0.81541651120E+03  0.00000000000E+00 0. -1.
         25    2    1    2    0    0 -0.26042523148E+02 -0.77732211233E+02  0.51170788630E+02  0.15799969940E+03  0.12499978291E+03 0.  0.
          2    1    1    2  501    0 -0.65139291291E+01  0.23348220029E+02 -0.76003388148E+03  0.76042032565E+03  0.00000000000E+00 0. -1.
          1    1    1    2  502    0  0.32556452277E+02  0.54383991203E+02  0.56409112781E+03  0.56764103231E+03  0.00000000000E+00 0. -1.
         22    1    3    3    0    0 -0.55344238698E+02 -0.45983973201E+02 -0.20052892796E+02  0.74696914648E+02  0.00000000000E+00 0. -1.
         22    1    3    3    0    0  0.29301715550E+02 -0.31748238032E+02  0.71223681426E+02  0.83302784756E+02  0.00000000000E+00 0. -1.
</event>
<event>
 7    1  0.5736319E-006  0.6937353E+02  0.7818608E-02  0.1377291E+00
          2   -1    0    0  502    0  0.00000000000E+00  0.00000000000E+00  0.60720222295E+03  0.60720222295E+03  0.00000000000E+00 0. -1.
          1   -1    0    0  501    0 -0.00000000000E+00 -0.00000000000E+00 -0.44159761654E+02  0.44159761654E+02  0.00000000000E+00 0. -1.
         25    2    1    2    0    0 -0.43315861751E+02 -0.40560571975E+02  0.34414187389E+03  0.37091697898E+03  0.12499740820E+03 0.  0.
          2    1    1    2  501    0 -0.27149822168E+02  0.63840219808E+02  0.26559648578E+02  0.74283924516E+02  0.00000000000E+00 0. -1.
          1    1    1    2  502    0  0.70465683919E+02 -0.23279647833E+02  0.19234093883E+03  0.20616108111E+03  0.00000000000E+00 0. -1.
         22    1    3    3    0    0 -0.10098057410E+02 -0.73679561144E+02  0.28951641018E+03  0.29891537307E+03  0.00000000000E+00 0.  1.
         22    1    3    3    0    0 -0.33217804341E+02  0.33118989169E+02  0.54625463714E+02  0.72001605918E+02  0.00000000000E+00 0.  1.
</event>
<event>
 7    1  0.5736319E-006  0.1122557E+03  0.7818608E-02  0.1380430E+00
          2   -1    0    0  502    0  0.00000000000E+00  0.00000000000E+00  0.84485646934E+03  0.84485646934E+03  0.00000000000E+00 0. -1.
          1   -1    0    0  501    0 -0.00000000000E+00 -0.00000000000E+00 -0.41306478314E+03  0.41306478314E+03  0.00000000000E+00 0. -1.
         25    2    1    2    0    0  0.61466861843E+02  0.52273518073E+02  0.98558208265E+02  0.17846590589E+03  0.12500265338E+03 0.  0.
          2    1    1    2  501    0 -0.74335251206E+02 -0.86845523979E+02 -0.36385575439E+03  0.38139072433E+03  0.00000000000E+00 0. -1.
          1    1    1    2  502    0  0.12868389363E+02  0.34572005906E+02  0.69708923232E+03  0.69806462226E+03  0.00000000000E+00 0. -1.
         22    1    3    3    0    0  0.40234011558E+02 -0.24236604588E+02 -0.58090878875E+01  0.47327943015E+02  0.00000000000E+00 0.  1.
         22    1    3    3    0    0  0.21232850285E+02  0.76510122661E+02  0.10436729615E+03  0.13113796287E+03  0.00000000000E+00 0.  1.
</event>
<event>
 7    1  0.5736319E-006  0.3930257E+02  0.7818608E-02  0.1520281E+00
          2   -1    0    0  502    0  0.00000000000E+00  0.00000000000E+00  0.40729734729E+02  0.40729734729E+02  0.00000000000E+00 0. -1.
          1   -1    0    0  501    0 -0.00000000000E+00 -0.00000000000E+00 -0.24422441464E+04  0.24422441464E+04  0.00000000000E+00 0. -1.
         25    2    1    2    0    0 -0.38689808146E+02  0.95429184062E+01 -0.15280708496E+03  0.20140377295E+03  0.12500202397E+03 0.  0.
          2    1    1    2  501    0  0.74057481046E+01 -0.36791771930E+02 -0.22385407644E+04  0.22388553400E+04  0.00000000000E+00 0. -1.
          1    1    1    2  502    0  0.31284060041E+02  0.27248853524E+02 -0.10166562308E+02  0.42714768174E+02  0.00000000000E+00 0. -1.
         22    1    3    3    0    0 -0.38287968692E+02 -0.37173516368E+02 -0.14326114473E+02  0.55254650678E+02  0.00000000000E+00 0. -1.
         22    1    3    3    0    0 -0.40183945363E+00  0.46716434774E+02 -0.13848097049E+03  0.14614912227E+03  0.00000000000E+00 0. -1.
</event>
<event>
 7    1  0.5736319E-006  0.9400889E+02  0.7818608E-02  0.1336762E+00
          2   -1    0    0  502    0  0.00000000000E+00  0.00000000000E+00  0.35078737503E+03  0.35078737503E+03  0.00000000000E+00 0. -1.
          1   -1    0    0  501    0 -0.00000000000E+00 -0.00000000000E+00 -0.24231292820E+03  0.24231292820E+03  0.00000000000E+00 0. -1.
         25    2    1    2    0    0 -0.15289769741E+03  0.49206441158E+01 -0.10946719838E+03  0.22585766859E+03  0.12500680113E+03 0.  0.
          2    1    1    2  501    0  0.62774276661E+02  0.10423170389E+02 -0.52039512900E+02  0.82203182384E+02  0.00000000000E+00 0. -1.
          1    1    1    2  502    0  0.90123420750E+02 -0.15343814505E+02  0.26998115810E+03  0.28503945226E+03  0.00000000000E+00 0. -1.
         22    1    3    3    0    0 -0.10508050946E+03 -0.41087625130E+02 -0.20188864172E+02  0.11461979167E+03  0.00000000000E+00 0.  1.
         22    1    3    3    0    0 -0.47817187954E+02  0.46008269246E+02 -0.89278334204E+02  0.11123787692E+03  0.00000000000E+00 0.  1.
</event>
<event>
 7    1  0.5736319E-006  0.8937400E+02  0.7818608E-02  0.1337869E+00
          2   -1    0    0  502    0  0.00000000000E+00  0.00000000000E+00  0.76901361936E+03  0.76901361936E+03  0.00000000000E+00 0. -1.
          1   -1    0    0  501    0 -0.00000000000E+00 -0.00000000000E+00 -0.15545177061E+04  0.15545177061E+04  0.00000000000E+00 0. -1.
         25    2    1    2    0    0  0.76871173838E+01  0.15174224214E+03 -0.14880977755E+03  0.24668641647E+03  0.12500015339E+03 0.  0.
          2    1    1    2  501    0 -0.16493732733E+02 -0.86037715684E+02 -0.13538251323E+04  0.13566565595E+04  0.00000000000E+00 0. -1.
          1    1    1    2  502    0  0.88066153490E+01 -0.65704526461E+02  0.71713082309E+03  0.72018834946E+03  0.00000000000E+00 0. -1.
         22    1    3    3    0    0  0.44949934176E+02  0.14178937164E+03 -0.82805577399E+02  0.17023949642E+03  0.00000000000E+00 0.  1.
         22    1    3    3    0    0 -0.37262816792E+02  0.99528705038E+01 -0.66004200154E+02  0.76446920046E+02  0.00000000000E+00 0.  1.
</event>
<event>
 7    1  0.5736319E-006  0.1279536E+03  0.7818608E-02  0.1336119E+00
          2   -1    0    0  502    0  0.00000000000E+00  0.00000000000E+00  0.18275038233E+04  0.18275038233E+04  0.00000000000E+00 0. -1.
          1   -1    0    0  501    0 -0.00000000000E+00 -0.00000000000E+00 -0.21162346019E+03  0.21162346019E+03  0.00000000000E+00 0. -1.
         25    2    1    2    0    0 -0.76650889694E+02  0.63562221044E+02  0.18420919138E+02  0.16088279800E+03  0.12501371763E+03 0.  0.
          2    1    1    2  501    0  0.12364772610E+03 -0.64865243843E+02 -0.10527020768E+03  0.17486588191E+03  0.00000000000E+00 0. -1.
          1    1    1    2  502    0 -0.46996836410E+02  0.13030227989E+01  0.17027296516E+04  0.17033786035E+04  0.00000000000E+00 0. -1.
         22    1    3    3    0    0 -0.94890547486E+02  0.84310060577E+02  0.30788798469E+02  0.13061528405E+03  0.00000000000E+00 0.  1.
         22    1    3    3    0    0  0.18239657792E+02 -0.20747839533E+02 -0.12367879332E+02  0.30267513952E+02  0.00000000000E+00 0.  1.
</event>
<event>
 7    1  0.5736319E-006  0.1200932E+03  0.7818608E-02  0.1321548E+00
          2   -1    0    0  502    0  0.00000000000E+00  0.00000000000E+00  0.74358773545E+03  0.74358773545E+03  0.00000000000E+00 0. -1.
          1   -1    0    0  501    0 -0.00000000000E+00 -0.00000000000E+00 -0.33064968794E+03  0.33064968794E+03  0.00000000000E+00 0. -1.
         25    2    1    2    0    0 -0.47164245359E+02  0.57693014278E+02  0.14300379825E+03  0.20402875223E+03  0.12499878193E+03 0.  0.
          2    1    1    2  501    0 -0.35435153872E+02  0.44590313717E+02 -0.28974776665E+03  0.29529259131E+03  0.00000000000E+00 0. -1.
          1    1    1    2  502    0  0.82599399231E+02 -0.10228332800E+03  0.55968201591E+03  0.57491607985E+03  0.00000000000E+00 0. -1.
         22    1    3    3    0    0 -0.87199462469E+02  0.36741316967E+02  0.12146370073E+03  0.15397110515E+03  0.00000000000E+00 0.  1.
         22    1    3    3    0    0  0.40035217110E+02  0.20951697312E+02  0.21540097524E+02  0.50057647074E+02  0.00000000000E+00 0.  1.
</event>
<event>
 7    1  0.5736319E-006  0.1530235E+03  0.7818608E-02  0.1408468E+00
          2   -1    0    0  502    0  0.00000000000E+00  0.00000000000E+00  0.14913730464E+03  0.14913730464E+03  0.00000000000E+00 0. -1.
          1   -1    0    0  501    0 -0.00000000000E+00 -0.00000000000E+00 -0.24141554885E+03  0.24141554885E+03  0.00000000000E+00 0. -1.
         25    2    1    2    0    0  0.84695507650E+02 -0.12581716740E+03 -0.39298209050E+02  0.20043173431E+03  0.12500096902E+03 0.  0.
          2    1    1    2  501    0 -0.10333840277E+03  0.11484124828E+03 -0.62281567434E+02  0.16657230092E+03  0.00000000000E+00 0. -1.
          1    1    1    2  502    0  0.18642895115E+02  0.10975919124E+02  0.93015322742E+01  0.23548818262E+02  0.00000000000E+00 0. -1.
         22    1    3    3    0    0  0.68130680428E+02 -0.12851645012E+02  0.19479493507E+02  0.72016699886E+02  0.00000000000E+00 0.  1.
         22    1    3    3    0    0  0.16564827222E+02 -0.11296552239E+03 -0.58777702556E+02  0.12841503443E+03  0.00000000000E+00 0.  1.
</event>
<event>
 7    1  0.5736319E-006  0.7593243E+02  0.7818608E-02  0.1353293E+00
          2   -1    0    0  502    0  0.00000000000E+00  0.00000000000E+00  0.89137846283E+03  0.89137846283E+03  0.00000000000E+00 0. -1.
          1   -1    0    0  501    0 -0.00000000000E+00 -0.00000000000E+00 -0.10983477388E+04  0.10983477388E+04  0.00000000000E+00 0. -1.
         25    2    1    2    0    0 -0.34552208608E+02  0.45559633505E+02  0.24540806779E+02  0.13963287584E+03  0.12500221395E+03 0.  0.
          2    1    1    2  501    0  0.76251058693E+02  0.85908073433E+01 -0.10379399587E+04  0.10407724938E+04  0.00000000000E+00 0. -1.
          1    1    1    2  502    0 -0.41698850085E+02 -0.54150440848E+02  0.80642987594E+03  0.80932083203E+03  0.00000000000E+00 0. -1.
         22    1    3    3    0    0  0.39748056139E+02 -0.13363162702E+02  0.14052704692E+02  0.44226243265E+02  0.00000000000E+00 0.  1.
         22    1    3    3    0    0 -0.74300264746E+02  0.58922796207E+02  0.10488102087E+02  0.95406632576E+02  0.00000000000E+00 0.  1.
</event>
<event>
 7    1  0.5736319E-006  0.9677182E+02  0.7818608E-02  0.1442853E+00
          2   -1    0    0  502    0  0.00000000000E+00  0.00000000000E+00  0.10285470959E+03  0.10285470959E+03  0.00000000000E+00 0. -1.
          1   -1    0    0  501    0 -0.00000000000E+00 -0.00000000000E+00 -0.89363077677E+03  0.89363077677E+03  0.00000000000E+00 0. -1.
         25    2    1    2    0    0 -0.66725840054E+02  0.60965154763E+02 -0.20557168091E+03  0.25703375327E+03  0.12505017594E+03 0.  0.
          2    1    1    2  501    0  0.14478749833E+02  0.21974969049E+02 -0.63079506683E+03  0.63134376516E+03  0.00000000000E+00 0. -1.
          1    1    1    2  502    0  0.52247090221E+02 -0.82940123812E+02  0.45590680565E+02  0.10810796792E+03  0.00000000000E+00 0. -1.
         22    1    3    3    0    0 -0.63802760240E+01 -0.28986458435E+02 -0.10539029970E+03  0.10948989892E+03  0.00000000000E+00 0.  1.
         22    1    3    3    0    0 -0.60345564030E+02  0.89951613199E+02 -0.10018138121E+03  0.14754385435E+03  0.00000000000E+00 0.  1.
</event>
<event>
 7    1  0.5736319E-006  0.1121911E+03  0.7818608E-02  0.1342722E+00
          2   -1    0    0  502    0  0.00000000000E+00  0.00000000000E+00  0.12910559698E+04  0.12910559698E+04  0.00000000000E+00 0. -1.
          1   -1    0    0  501    0 -0.00000000000E+00 -0.00000000000E+00 -0.36673486590E+03  0.36673486590E+03  0.00000000000E+00 0. -1.
         25    2    1    2    0    0  0.26073240748E+02 -0.11602104874E+03  0.99844024715E+02  0.19933640258E+03  0.12500189793E+03 0.  0.
          2    1    1    2  501    0  0.24181216117E+02  0.10981285467E+03 -0.30643265049E+03  0.32641164738E+03  0.00000000000E+00 0. -1.
          1    1    1    2  502    0 -0.50254456865E+02  0.62081940718E+01  0.11309097296E+04  0.11320427857E+04  0.00000000000E+00 0. -1.
         22    1    3    3    0    0  0.64485748513E+02 -0.72084620750E+02  0.10248330842E+03  0.14091640364E+03  0.00000000000E+00 0.  1.
         22    1    3    3    0    0 -0.38412507765E+02 -0.43936427990E+02 -0.26392837039E+01  0.58419998937E+02  0.00000000000E+00 0.  1.
</event>
<event>
 7    1  0.5736319E-006  0.6403464E+02  0.7818608E-02  0.1402914E+00
          2   -1    0    0  502    0  0.00000000000E+00  0.00000000000E+00  0.19201592872E+04  0.19201592872E+04  0.00000000000E+00 0. -1.
          1   -1    0    0  501    0 -0.00000000000E+00 -0.00000000000E+00 -0.44064560973E+02  0.44064560973E+02  0.00000000000E+00 0. -1.
         25    2    1    2    0    0  0.10289024693E+03  0.43517152105E+02  0.54095754025E+03  0.56634021289E+03  0.12500412371E+03 0.  0.
          2    1    1    2  501    0 -0.49299369432E+02 -0.36855164484E+02 -0.10206707579E+00  0.61552752930E+02  0.00000000000E+00 0. -1.
          1    1    1    2  502    0 -0.53590877500E+02 -0.66619876202E+01  0.13352392531E+04  0.13363308824E+04  0.00000000000E+00 0. -1.
         22    1    3    3    0    0  0.68982767627E+02  0.87405042583E+02  0.33348491010E+03  0.35158277682E+03  0.00000000000E+00 0.  1.
         22    1    3    3    0    0  0.33907479305E+02 -0.43887890479E+02  0.20747263015E+03  0.21475743607E+03  0.00000000000E+00 0.  1.
</event>
<event>
 7    1  0.5736319E-006  0.8584804E+02  0.7818608E-02  0.1367044E+00
          2   -1    0    0  502    0  0.00000000000E+00  0.00000000000E+00  0.35306793882E+03  0.35306793882E+03  0.00000000000E+00 0. -1.
          1   -1    0    0  501    0 -0.00000000000E+00 -0.00000000000E+00 -0.43524280667E+03  0.43524280667E+03  0.00000000000E+00 0. -1.
         25    2    1    2    0    0  0.33467950496E+02  0.11113862612E+03  0.18612286955E+03  0.25246518365E+03  0.12500019385E+03 0.  0.
          2    1    1    2  501    0  0.13286723903E+02 -0.84408998436E+02 -0.39185381083E+03  0.40106212126E+03  0.00000000000E+00 0. -1.
          1    1    1    2  502    0 -0.46754674399E+02 -0.26729627682E+02  0.12355607343E+03  0.13478344058E+03  0.00000000000E+00 0. -1.
         22    1    3    3    0    0  0.23895254308E+02  0.64795652418E+02  0.96190714652E+01  0.69727944804E+02  0.00000000000E+00 0. -1.
         22    1    3    3    0    0  0.95726961877E+01  0.46342973699E+02  0.17650379809E+03  0.18273723885E+03  0.00000000000E+00 0. -1.
</event>
<event>
 7    1  0.5736319E-006  0.5768524E+02  0.7818608E-02  0.1478673E+00
          2   -1    0    0  502    0  0.00000000000E+00  0.00000000000E+00  0.79357862896E+03  0.79357862896E+03  0.00000000000E+00 0. -1.
          1   -1    0    0  501    0 -0.00000000000E+00 -0.00000000000E+00 -0.99040704416E+03  0.99040704416E+03  0.00000000000E+00 0. -1.
         25    2    1    2    0    0 -0.83700408820E+02 -0.32543856584E+02 -0.53343957592E+03  0.55520055517E+03  0.12500005707E+03 0.  0.
          2    1    1    2  501    0  0.27418856575E+02  0.20174929028E+02 -0.44437448258E+03  0.44567645465E+03  0.00000000000E+00 0. -1.
          1    1    1    2  502    0  0.56281552245E+02  0.12368927556E+02  0.78098564330E+03  0.78310866330E+03  0.00000000000E+00 0. -1.
         22    1    3    3    0    0 -0.98644723356E+01  0.38500908012E+02 -0.26326742617E+03  0.26625056886E+03  0.00000000000E+00 0. -1.
         22    1    3    3    0    0 -0.73835936484E+02 -0.71044764596E+02 -0.27017214974E+03  0.28894998631E+03  0.00000000000E+00 0. -1.
</event>
<event>
 7    1  0.5736319E-006  0.8814268E+02  0.7818608E-02  0.1443865E+00
          2   -1    0    0  502    0  0.00000000000E+00  0.00000000000E+00  0.71413181374E+03  0.71413181374E+03  0.00000000000E+00 0. -1.
          1   -1    0    0  501    0 -0.00000000000E+00 -0.00000000000E+00 -0.11034755928E+04  0.11034755928E+04  0.00000000000E+00 0. -1.
         25    2    1    2    0    0 -0.96580515463E+02  0.41070222142E+02 -0.28229208174E+03  0.32608058498E+03  0.12500067751E+03 0.  0.
          2    1    1    2  501    0  0.96990117068E+01 -0.26985736776E+02 -0.79623238713E+03  0.79674858966E+03  0.00000000000E+00 0. -1.
          1    1    1    2  502    0  0.86881503756E+02 -0.14084485367E+02  0.68918068976E+03  0.69477823193E+03  0.00000000000E+00 0. -1.
         22    1    3    3    0    0 -0.12659230249E+03  0.31711475805E+02 -0.20997679383E+03  0.24722759291E+03  0.00000000000E+00 0.  1.
         22    1    3    3    0    0  0.30011787032E+02  0.93587463370E+01 -0.72315287906E+02  0.78852992073E+02  0.00000000000E+00 0.  1.
</event>
<event>
 7    1  0.5736319E-006  0.1427401E+03  0.7818608E-02  0.1229196E+00
          2   -1    0    0  502    0  0.00000000000E+00  0.00000000000E+00  0.79911237158E+03  0.79911237158E+03  0.00000000000E+00 0. -1.
          1   -1    0    0  501    0 -0.00000000000E+00 -0.00000000000E+00 -0.40428626121E+03  0.40428626121E+03  0.00000000000E+00 0. -1.
         25    2    1    2    0    0  0.12966071885E+03  0.18652464622E+03  0.19026269323E+03  0.32160098689E+03  0.12499582664E+03 0.  0.
          2    1    1    2  501    0 -0.10216063058E+03 -0.55541789214E+02 -0.31997731349E+03  0.34045141494E+03  0.00000000000E+00 0. -1.
          1    1    1    2  502    0 -0.27500088268E+02 -0.13098285700E+03  0.52454073063E+03  0.54134623096E+03  0.00000000000E+00 0. -1.
         22    1    3    3    0    0  0.18142600263E+02 -0.16273778703E+02  0.35961469779E+02  0.43442112360E+02  0.00000000000E+00 0.  1.
         22    1    3    3    0    0  0.11151811859E+03  0.20279842492E+03  0.15430122345E+03  0.27815887453E+03  0.00000000000E+00 0.  1.
</event>
<event>
 7    1  0.5736319E-006  0.1448574E+03  0.7818608E-02  0.1260023E+00
          2   -1    0    0  502    0  0.00000000000E+00  0.00000000000E+00  0.19704112232E+04  0.19704112232E+04  0.00000000000E+00 0. -1.
          1   -1    0    0  501    0 -0.00000000000E+00 -0.00000000000E+00 -0.34178522448E+03  0.34178522448E+03  0.00000000000E+00 0. -1.
         25    2    1    2    0    0 -0.31711715606E+02 -0.75587900733E+02  0.26676336089E+03  0.30580729697E+03  0.12504498601E+03 0.  0.
          2    1    1    2  501    0 -0.72356569505E+02 -0.42628776079E+02 -0.31303421704E+03  0.32410354324E+03  0.00000000000E+00 0. -1.
          1    1    1    2  502    0  0.10406828511E+03  0.11821667681E+03  0.16748968549E+04  0.16822856075E+04  0.00000000000E+00 0. -1.
         22    1    3    3    0    0 -0.42990395649E+02  0.22805369285E+02  0.66627365357E+02  0.82507362100E+02  0.00000000000E+00 0.  1.
         22    1    3    3    0    0  0.11278680042E+02 -0.98393270018E+02  0.20013599553E+03  0.22329993487E+03  0.00000000000E+00 0.  1.
</event>
<event>
 7    1  0.5736319E-006  0.1512454E+03  0.7818608E-02  0.1365744E+00
          2   -1    0    0  502    0  0.00000000000E+00  0.00000000000E+00  0.19470660397E+04  0.19470660397E+04  0.00000000000E+00 0. -1.
          1   -1    0    0  501    0 -0.00000000000E+00 -0.00000000000E+00 -0.96656668583E+02  0.96656668583E+02  0.00000000000E+00 0. -1.
         25    2    1    2    0    0 -0.13778687070E+03 -0.28346302291E+02  0.39525587446E+03  0.43776839164E+03  0.12500089536E+03 0.  0.
          2    1    1    2  501    0 -0.39977275452E+01 -0.30641899255E+02 -0.68203071815E+02  0.74877011295E+02  0.00000000000E+00 0. -1.
          1    1    1    2  502    0  0.14178459824E+03  0.58988201546E+02  0.15233565684E+04  0.15310773053E+04  0.00000000000E+00 0. -1.
         22    1    3    3    0    0  0.20468659310E+02 -0.17133891312E+02  0.34129124111E+02  0.43328205110E+02  0.00000000000E+00 0.  1.
         22    1    3    3    0    0 -0.15825553001E+03 -0.11212410978E+02  0.36112675034E+03  0.39444018653E+03  0.00000000000E+00 0.  1.
</event>
<event>
 7    1  0.5736319E-006  0.8012279E+02  0.7818608E-02  0.1480726E+00
          2   -1    0    0  502    0  0.00000000000E+00  0.00000000000E+00  0.12559905265E+03  0.12559905265E+03  0.00000000000E+00 0. -1.
          1   -1    0    0  501    0 -0.00000000000E+00 -0.00000000000E+00 -0.38011321905E+03  0.38011321905E+03  0.00000000000E+00 0. -1.
         25    2    1    2    0    0 -0.56503754463E+01  0.84191271031E+02 -0.53372604531E+02  0.15997911051E+03  0.12499833608E+03 0.  0.
          2    1    1    2  501    0  0.23311547574E+02 -0.63296596103E+01 -0.25063562488E+03  0.25179696046E+03  0.00000000000E+00 0. -1.
          1    1    1    2  502    0 -0.17661172127E+02 -0.77861611421E+02  0.49494063003E+02  0.93936200724E+02  0.00000000000E+00 0. -1.
         22    1    3    3    0    0 -0.54231044085E+02  0.39249754040E+01 -0.55053620988E+01  0.54650897397E+02  0.00000000000E+00 0. -1.
         22    1    3    3    0    0  0.48580668638E+02  0.80266295627E+02 -0.47867242432E+02  0.10532821311E+03  0.00000000000E+00 0. -1.
</event>
<event>
 7    1  0.5736319E-006  0.9368196E+02  0.7818608E-02  0.1332427E+00
          2   -1    0    0  502    0  0.00000000000E+00  0.00000000000E+00  0.12868984894E+04  0.12868984894E+04  0.00000000000E+00 0. -1.
          1   -1    0    0  501    0 -0.00000000000E+00 -0.00000000000E+00 -0.79920969888E+03  0.79920969888E+03  0.00000000000E+00 0. -1.
         25    2    1    2    0    0  0.38530543930E+02 -0.10865644507E+03  0.18363415702E+02  0.17103638476E+03  0.12500161600E+03 0.  0.
          2    1    1    2  501    0 -0.63701829852E+02  0.18448840844E+02 -0.71950661203E+03  0.72255660512E+03  0.00000000000E+00 0. -1.
          1    1    1    2  502    0  0.25171285922E+02  0.90207604226E+02  0.11888319868E+04  0.11925151984E+04  0.00000000000E+00 0. -1.
         22    1    3    3    0    0 -0.58404275167E+01 -0.12133638308E+03  0.29279863847E+00  0.12147721672E+03  0.00000000000E+00 0.  1.
         22    1    3    3    0    0  0.44370971447E+02  0.12679938007E+02  0.18070617063E+02  0.49559168032E+02  0.00000000000E+00 0.  1.
</event>
<event>
 7    1  0.5736319E-006  0.1796894E+03  0.7818608E-02  0.1311787E+00
          2   -1    0    0  502    0  0.00000000000E+00  0.00000000000E+00  0.22842626995E+04  0.22842626995E+04  0.00000000000E+00 0. -1.
          1   -1    0    0  501    0 -0.00000000000E+00 -0.00000000000E+00 -0.63617082459E+02  0.63617082459E+02  0.00000000000E+00 0. -1.
         25    2    1    2    0    0 -0.12231271403E+03 -0.90786032552E+02  0.13907064937E+04  0.14045968460E+04  0.12500097753E+03 0.  0.
          2    1    1    2  501    0  0.16306382149E+03  0.82663578995E+02  0.92892764691E+02  0.20506619152E+03  0.00000000000E+00 0. -1.
          1    1    1    2  502    0 -0.40751107463E+02  0.81224535568E+01  0.73704635857E+03  0.73821674438E+03  0.00000000000E+00 0. -1.
         22    1    3    3    0    0 -0.72706648611E+02 -0.29630501538E+02  0.11178802281E+04  0.11206339402E+04  0.00000000000E+00 0. -1.
         22    1    3    3    0    0 -0.49606065417E+02 -0.61155531014E+02  0.27282626560E+03  0.28396290585E+03  0.00000000000E+00 0. -1.
</event>
<event>
 7    1  0.5736319E-006  0.6633374E+02  0.7818608E-02  0.1379154E+00
          2   -1    0    0  502    0  0.00000000000E+00  0.00000000000E+00  0.24385475625E+04  0.24385475625E+04  0.00000000000E+00 0. -1.
          1   -1    0    0  501    0 -0.00000000000E+00 -0.00000000000E+00 -0.17169845543E+03  0.17169845543E+03  0.00000000000E+00 0. -1.
         25    2    1    2    0    0  0.49683715913E+02  0.16758664792E+02  0.15218384069E+03  0.20380035972E+03  0.12500136313E+03 0.  0.
          2    1    1    2  501    0 -0.11723433253E+02 -0.67138662950E+02 -0.13746458699E+03  0.15343256377E+03  0.00000000000E+00 0. -1.
          1    1    1    2  502    0 -0.37960282660E+02  0.50379998158E+02  0.22521298534E+04  0.22530130944E+04  0.00000000000E+00 0. -1.
         22    1    3    3    0    0  0.53800626109E+02  0.66474633661E+02  0.10067605973E+03  0.13209486475E+03  0.00000000000E+00 0. -1.
         22    1    3    3    0    0 -0.41169101957E+01 -0.49715968869E+02  0.51507780958E+02  0.71705494973E+02  0.00000000000E+00 0. -1.
</event>
<event>
 7    1  0.5736319E-006  0.6744191E+02  0.7818608E-02  0.1511333E+00
          2   -1    0    0  502    0  0.00000000000E+00  0.00000000000E+00  0.51345922715E+03  0.51345922715E+03  0.00000000000E+00 0. -1.
          1   -1    0    0  501    0 -0.00000000000E+00 -0.00000000000E+00 -0.76057820727E+02  0.76057820727E+02  0.00000000000E+00 0. -1.
         25    2    1    2    0    0  0.41197465475E+02 -0.19335404980E+02  0.33344124340E+03  0.35899751158E+03  0.12500024590E+03 0.  0.
          2    1    1    2  501    0 -0.60988256261E+02  0.31494089228E+02 -0.43485634911E+02  0.81255433675E+02  0.00000000000E+00 0. -1.
          1    1    1    2  502    0  0.19790790786E+02 -0.12158684248E+02  0.14744579793E+03  0.14926410261E+03  0.00000000000E+00 0. -1.
         22    1    3    3    0    0 -0.90989132943E+01  0.43163381746E+02  0.18584015322E+03  0.19100374419E+03  0.00000000000E+00 0. -1.
         22    1    3    3    0    0  0.50296378769E+02 -0.62498786727E+02  0.14760109018E+03  0.16799376739E+03  0.00000000000E+00 0. -1.
</event>
<event>
 7    1  0.5736319E-006  0.9981541E+02  0.7818608E-02  0.1354581E+00
          2   -1    0    0  502    0  0.00000000000E+00  0.00000000000E+00  0.69228087868E+03  0.69228087868E+03  0.00000000000E+00 0. -1.
          1   -1    0    0  501    0 -0.00000000000E+00 -0.00000000000E+00 -0.33993693882E+03  0.33993693882E+03  0.00000000000E+00 0. -1.
         25    2    1    2    0    0  0.74984342447E+02  0.95838212239E+02  0.28564341381E+02  0.17677659635E+03  0.12500571539E+03 0.  0.
          2    1    1    2  501    0  0.12830488991E+02 -0.49801074009E+02 -0.25911743366E+03  0.26417155950E+03  0.00000000000E+00 0. -1.
          1    1    1    2  502    0 -0.87814831439E+02 -0.46037138229E+02  0.58289703214E+03  0.59126966166E+03  0.00000000000E+00 0. -1.
         22    1    3    3    0    0  0.84556853953E+02  0.60135158661E+02 -0.29565277185E+02  0.10788977928E+03  0.00000000000E+00 0. -1.
         22    1    3    3    0    0 -0.95725115051E+01  0.35703053577E+02  0.58129618566E+02  0.68886817069E+02  0.00000000000E+00 0. -1.
</event>
<event>
 7    1  0.5736319E-006  0.7300464E+02  0.7818608E-02  0.1372780E+00
          2   -1    0    0  502    0  0.00000000000E+00  0.00000000000E+00  0.23853865322E+04  0.23853865322E+04  0.00000000000E+00 0. -1.
          1   -1    0    0  501    0 -0.00000000000E+00 -0.00000000000E+00 -0.10295644248E+03  0.10295644248E+03  0.00000000000E+00 0. -1.
         25    2    1    2    0    0 -0.63552136954E+02  0.40890303597E+02  0.25365818422E+03  0.29271474869E+03  0.12501423374E+03 0.  0.
          2    1    1    2  501    0  0.12529654772E+02 -0.73202515277E+02 -0.66378385669E+02  0.99607683317E+02  0.00000000000E+00 0. -1.
          1    1    1    2  502    0  0.51022482182E+02  0.32312211680E+02  0.20951502912E+04  0.20960205427E+04  0.00000000000E+00 0. -1.
         22    1    3    3    0    0 -0.69922761896E+02  0.52592419087E+02  0.80025625255E+02  0.11857173303E+03  0.00000000000E+00 0. -1.
         22    1    3    3    0    0  0.63706249427E+01 -0.11702115490E+02  0.17363255897E+03  0.17414301566E+03  0.00000000000E+00 0. -1.
</event>
<event>
 7    1  0.5736319E-006  0.7205512E+02  0.7818608E-02  0.1376485E+00
          2   -1    0    0  502    0  0.00000000000E+00  0.00000000000E+00  0.36699504623E+03  0.36699504623E+03  0.00000000000E+00 0. -1.
          1   -1    0    0  501    0 -0.00000000000E+00 -0.00000000000E+00 -0.19861352729E+04  0.19861352729E+04  0.00000000000E+00 0. -1.
         25    2    1    2    0    0 -0.23931472544E+02  0.26830814995E+01 -0.16288630780E+03  0.20672861506E+03  0.12499942685E+03 0.  0.
          2    1    1    2  501    0  0.46333681843E+02 -0.57646843100E+02 -0.17980096780E+04  0.17995301528E+04  0.00000000000E+00 0. -1.
          1    1    1    2  502    0 -0.22402209299E+02  0.54963761600E+02  0.34175575921E+03  0.34687155119E+03  0.00000000000E+00 0. -1.
         22    1    3    3    0    0 -0.48025777242E+02 -0.22717657909E+02 -0.16329039434E+03  0.17171581216E+03  0.00000000000E+00 0. -1.
         22    1    3    3    0    0  0.24094304698E+02  0.25400739408E+02  0.40408654230E+00  0.35012802906E+02  0.00000000000E+00 0. -1.
</event>
<event>
 7    1  0.5736319E-006  0.1063011E+03  0.7818608E-02  0.1409503E+00
          2   -1    0    0  502    0  0.00000000000E+00  0.00000000000E+00  0.41090816758E+03  0.41090816758E+03  0.00000000000E+00 0. -1.
          1   -1    0    0  501    0 -0.00000000000E+00 -0.00000000000E+00 -0.19680985410E+04  0.19680985410E+04  0.00000000000E+00 0. -1.
         25    2    1    2    0    0  0.42723333352E+02  0.64012354019E+02 -0.28968638774E+03  0.32475470107E+03  0.12499819177E+03 0.  0.
          2    1    1    2  501    0  0.23543417085E+02  0.20000362255E+02 -0.16534546292E+04  0.16537431837E+04  0.00000000000E+00 0. -1.
          1    1    1    2  502    0 -0.66266750437E+02 -0.84012716273E+02  0.38595064349E+03  0.40050882378E+03  0.00000000000E+00 0. -1.
         22    1    3    3    0    0  0.64590119852E+02 -0.26424231406E+01 -0.75607888559E+02  0.99475719625E+02  0.00000000000E+00 0.  1.
         22    1    3    3    0    0 -0.21866786500E+02  0.66654777159E+02 -0.21407849918E+03  0.22527898145E+03  0.00000000000E+00 0.  1.
</event>
<event>
 7    1  0.5736319E-006  0.5481783E+02  0.7818608E-02  0.1507411E+00
          2   -1    0    0  502    0  0.00000000000E+00  0.00000000000E+00  0.15870336791E+03  0.15870336791E+03  0.00000000000E+00 0. -1.
          1   -1    0    0  501    0 -0.00000000000E+00 -0.00000000000E+00 -0.15993691444E+04  0.15993691444E+04  0.00000000000E+00 0. -1.
         25    2    1    2    0    0 -0.69806725727E+01 -0.38718592568E+02 -0.71481174062E+02  0.14927739637E+03  0.12500529438E+03 0.  0.
          2    1    1    2  501    0  0.25748744803E+02 -0.14079780696E+02 -0.14822845557E+04  0.14825750376E+04  0.00000000000E+00 0. -1.
          1    1    1    2  502    0 -0.18768072230E+02  0.52798373264E+02  0.11309995324E+03  0.12622007835E+03  0.00000000000E+00 0. -1.
         22    1    3    3    0    0 -0.12659148438E+02 -0.73393166880E+02 -0.83736278282E+02  0.11206504934E+03  0.00000000000E+00 0.  1.
         22    1    3    3    0    0  0.56784758652E+01  0.34674574312E+02  0.12255104220E+02  0.37212347028E+02  0.00000000000E+00 0.  1.
</event>
<event>
 7    1  0.5736319E-006  0.5193848E+03  0.7818608E-02  0.1165795E+00
          2   -1    0    0  502    0  0.00000000000E+00  0.00000000000E+00  0.42971289809E+04  0.42971289809E+04  0.00000000000E+00 0. -1.
          1   -1    0    0  501    0 -0.00000000000E+00 -0.00000000000E+00 -0.11631718848E+03  0.11631718848E+03  0.00000000000E+00 0. -1.
         25    2    1    2    0    0  0.21238722545E+03  0.50302788827E+03  0.13049523882E+04  0.14200957044E+04  0.12500273687E+03 0.  0.
          2    1    1    2  501    0 -0.61803605701E+02 -0.15991570852E+02 -0.83971932025E+01  0.64388887780E+02  0.00000000000E+00 0. -1.
          1    1    1    2  502    0 -0.15058361975E+03 -0.48703631742E+03  0.28842565974E+04  0.29289615772E+04  0.00000000000E+00 0. -1.
         22    1    3    3    0    0  0.52807649879E+02  0.17781012640E+03  0.31010777628E+03  0.36134737005E+03  0.00000000000E+00 0.  1.
         22    1    3    3    0    0  0.15957957558E+03  0.32521776188E+03  0.99484461195E+03  0.10587483344E+04  0.00000000000E+00 0.  1.
</event>
<event>
 7    1  0.5736319E-006  0.8832547E+02  0.7818608E-02  0.1318158E+00
          2   -1    0    0  502    0  0.00000000000E+00  0.00000000000E+00  0.22111621174E+04  0.22111621174E+04  0.00000000000E+00 0. -1.
          1   -1    0    0  501    0 -0.00000000000E+00 -0.00000000000E+00 -0.84286260013E+02  0.84286260013E+02  0.00000000000E+00 0. -1.
         25    2    1    2    0    0 -0.29167513116E+02 -0.15891152049E+03  0.48229888750E+03  0.52377609366E+03  0.12500225697E+03 0.  0.
          2    1    1    2  501    0  0.77282239164E+00  0.84310402434E+02 -0.34209120709E+02  0.90989588155E+02  0.00000000000E+00 0. -1.
          1    1    1    2  502    0  0.28394690725E+02  0.74601118054E+02  0.16787860906E+04  0.16806826956E+04  0.00000000000E+00 0. -1.
         22    1    3    3    0    0 -0.70528264666E+02 -0.47838639859E+02  0.18331199238E+03  0.20215355088E+03  0.00000000000E+00 0. -1.
         22    1    3    3    0    0  0.41360751550E+02 -0.11107288063E+03  0.29898689511E+03  0.32162254279E+03  0.00000000000E+00 0. -1.
</event>
<event>
 7    1  0.5736319E-006  0.7716198E+02  0.7818608E-02  0.1370451E+00
          2   -1    0    0  502    0  0.00000000000E+00  0.00000000000E+00  0.86341163526E+02  0.86341163526E+02  0.00000000000E+00 0. -1.
          1   -1    0    0  501    0 -0.00000000000E+00 -0.00000000000E+00 -0.14739372088E+04  0.14739372088E+04  0.00000000000E+00 0. -1.
         25    2    1    2    0    0 -0.87002458505E+02 -0.55678083536E+02 -0.26655125263E+03  0.31199951079E+03  0.12499859073E+03 0.  0.
          2    1    1    2  501    0  0.56469154510E+02 -0.14290597789E+02 -0.11607632811E+04  0.11622238946E+04  0.00000000000E+00 0. -1.
          1    1    1    2  502    0  0.30533303995E+02  0.69968681325E+02  0.39718488364E+02  0.86054966952E+02  0.00000000000E+00 0. -1.
         22    1    3    3    0    0  0.27581464868E+02  0.10904294515E+01 -0.89070252004E+02  0.93249321889E+02  0.00000000000E+00 0. -1.
         22    1    3    3    0    0 -0.11458392337E+03 -0.56768512987E+02 -0.17748100062E+03  0.21875018890E+03  0.00000000000E+00 0. -1.
</event>
<event>
 7    1  0.5736319E-006  0.1753601E+03  0.7818608E-02  0.1221736E+00
          2   -1    0    0  502    0  0.00000000000E+00  0.00000000000E+00  0.69102261525E+03  0.69102261525E+03  0.00000000000E+00 0. -1.
          1   -1    0    0  501    0 -0.00000000000E+00 -0.00000000000E+00 -0.32346419139E+04  0.32346419139E+04  0.00000000000E+00 0. -1.
         25    2    1    2    0    0 -0.69191829372E+02 -0.11529568170E+03 -0.11491680267E+03  0.21659130398E+03  0.12500127181E+03 0.  0.
          2    1    1    2  501    0 -0.94317261589E+02  0.39593641312E+02 -0.30553366013E+04  0.30570484375E+04  0.00000000000E+00 0. -1.
          1    1    1    2  502    0  0.16350909096E+03  0.75702040385E+02  0.62663410531E+03  0.65202478763E+03  0.00000000000E+00 0. -1.
         22    1    3    3    0    0 -0.38824353275E+02 -0.13806209590E+03 -0.76319854751E+02  0.16245981953E+03  0.00000000000E+00 0. -1.
         22    1    3    3    0    0 -0.30367476097E+02  0.22766414203E+02 -0.38596947923E+02  0.54131484454E+02  0.00000000000E+00 0. -1.
</event>
<event>
 7    1  0.5736319E-006  0.5131442E+02  0.7818608E-02  0.1553196E+00
          2   -1    0    0  502    0  0.00000000000E+00  0.00000000000E+00  0.13465499268E+03  0.13465499268E+03  0.00000000000E+00 0. -1.
          1   -1    0    0  501    0 -0.00000000000E+00 -0.00000000000E+00 -0.11120342490E+04  0.11120342490E+04  0.00000000000E+00 0. -1.
         25    2    1    2    0    0 -0.36454893764E+02  0.15706694310E+02 -0.20434074980E+02  0.13273364715E+03  0.12500004056E+03 0.  0.
          2    1    1    2  501    0 -0.16584813753E+02 -0.16192732112E+02 -0.10263451514E+04  0.10266068529E+04  0.00000000000E+00 0. -1.
          1    1    1    2  502    0  0.53039707517E+02  0.48603780229E+00  0.69399970108E+02  0.87348741589E+02  0.00000000000E+00 0. -1.
         22    1    3    3    0    0  0.64309033025E+00  0.49591101455E+02  0.32857091470E+02  0.59491842874E+02  0.00000000000E+00 0. -1.
         22    1    3    3    0    0 -0.37097984094E+02 -0.33884407145E+02 -0.53291166450E+02  0.73241804272E+02  0.00000000000E+00 0. -1.
</event>
<event>
 7    1  0.5736319E-006  0.1944707E+03  0.7818608E-02  0.1167071E+00
          2   -1    0    0  502    0  0.00000000000E+00  0.00000000000E+00  0.72919765599E+03  0.72919765599E+03  0.00000000000E+00 0. -1.
          1   -1    0    0  501    0 -0.00000000000E+00 -0.00000000000E+00 -0.26183577385E+04  0.26183577385E+04  0.00000000000E+00 0. -1.
         25    2    1    2    0    0  0.20015616841E+03  0.91616680119E+02 -0.99015386101E+03  0.10220008103E+04  0.12499952005E+03 0.  0.
          2    1    1    2  501    0 -0.20166883236E+02 -0.16679895976E+03 -0.15944476387E+04  0.16032753564E+04  0.00000000000E+00 0. -1.
          1    1    1    2  502    0 -0.17998928517E+03  0.75182279636E+02  0.69544141721E+03  0.72227922767E+03  0.00000000000E+00 0. -1.
         22    1    3    3    0    0  0.19624507555E+03  0.39278055216E+02 -0.80985466357E+03  0.83421788006E+03  0.00000000000E+00 0. -1.
         22    1    3    3    0    0  0.39110928539E+01  0.52338624903E+02 -0.18029919744E+03  0.18778293028E+03  0.00000000000E+00 0. -1.
</event>
<event>
 7    1  0.5736319E-006  0.4934234E+02  0.7818608E-02  0.1457879E+00
          2   -1    0    0  502    0  0.00000000000E+00  0.00000000000E+00  0.16839582967E+04  0.16839582967E+04  0.00000000000E+00 0. -1.
          1   -1    0    0  501    0 -0.00000000000E+00 -0.00000000000E+00 -0.20166063367E+02  0.20166063367E+02  0.00000000000E+00 0. -1.
         25    2    1    2    0    0 -0.62269545878E+01  0.37004926280E+00  0.64055044979E+03  0.65266320563E+03  0.12500187744E+03 0.  0.
          2    1    1    2  501    0 -0.71909511964E+01  0.48815534219E+02  0.31783490797E+02  0.58692899463E+02  0.00000000000E+00 0. -1.
          1    1    1    2  502    0  0.13417905784E+02 -0.49185583481E+02  0.99145829276E+03  0.99276825498E+03  0.00000000000E+00 0. -1.
         22    1    3    3    0    0 -0.50875778205E+02 -0.86102326864E+01  0.12678131658E+03  0.13687944750E+03  0.00000000000E+00 0. -1.
         22    1    3    3    0    0  0.44648823617E+02  0.89802819492E+01  0.51376913321E+03  0.51578375813E+03  0.00000000000E+00 0. -1.
</event>
<event>
 7    1  0.5736319E-006  0.5129439E+02  0.7818608E-02  0.1529288E+00
          2   -1    0    0  502    0  0.00000000000E+00  0.00000000000E+00  0.16098386529E+04  0.16098386529E+04  0.00000000000E+00 0. -1.
          1   -1    0    0  501    0 -0.00000000000E+00 -0.00000000000E+00 -0.11630252906E+02  0.11630252906E+02  0.00000000000E+00 0. -1.
         25    2    1    2    0    0 -0.50656302830E+02  0.26151078129E+01  0.98853932518E+03  0.99770158611E+03  0.12500223076E+03 0.  0.
          2    1    1    2  501    0  0.63776602665E+01  0.26324071961E+02  0.25475338441E+02  0.37183654793E+02  0.00000000000E+00 0. -1.
          1    1    1    2  502    0  0.44278642563E+02 -0.28939179774E+02  0.58419373639E+03  0.58658366492E+03  0.00000000000E+00 0. -1.
         22    1    3    3    0    0 -0.50146403456E+02 -0.17360304615E+02  0.15333046277E+03  0.16225372960E+03  0.00000000000E+00 0. -1.
         22    1    3    3    0    0 -0.50989937356E+00  0.19975412428E+02  0.83520886241E+03  0.83544785651E+03  0.00000000000E+00 0. -1.
</event>
<event>
 7    1  0.5736319E-006  0.6862394E+02  0.7818608E-02  0.1410509E+00
          2   -1    0    0  502    0  0.00000000000E+00  0.00000000000E+00  0.27543739907E+03  0.27543739907E+03  0.00000000000E+00 0. -1.
          1   -1    0    0  501    0 -0.00000000000E+00 -0.00000000000E+00 -0.44620202341E+03  0.44620202341E+03  0.00000000000E+00 0. -1.
         25    2    1    2    0    0 -0.55249526454E+02  0.16420479205E+02 -0.43186441142E+02  0.14426980284E+03  0.12500625986E+03 0.  0.
          2    1    1    2  501    0  0.63511863484E+02  0.30333928063E+02 -0.34638873071E+03  0.35346719332E+03  0.00000000000E+00 0. -1.
          1    1    1    2  502    0 -0.82623370303E+01 -0.46754407268E+02  0.21881054750E+03  0.22390242631E+03  0.00000000000E+00 0. -1.
         22    1    3    3    0    0 -0.23394571587E+02  0.13135607352E+02 -0.86407849206E+02  0.90477436771E+02  0.00000000000E+00 0. -1.
         22    1    3    3    0    0 -0.31854954866E+02  0.32848718527E+01  0.43221408064E+02  0.53792366072E+02  0.00000000000E+00 0. -1.
</event>
<event>
 7    1  0.5736319E-006  0.8404156E+02  0.7818608E-02  0.1382585E+00
          2   -1    0    0  502    0  0.00000000000E+00  0.00000000000E+00  0.29043357330E+03  0.29043357330E+03  0.00000000000E+00 0. -1.
          1   -1    0    0  501    0 -0.00000000000E+00 -0.00000000000E+00 -0.88613707838E+03  0.88613707838E+03  0.00000000000E+00 0. -1.
         25    2    1    2    0    0 -0.72511083466E+02 -0.51421207564E+02 -0.31627451236E+02  0.15660950275E+03  0.12499697144E+03 0.  0.
          2    1    1    2  501    0 -0.12067143897E+02  0.46889201054E+02 -0.78337709133E+03  0.78487188786E+03  0.00000000000E+00 0. -1.
          1    1    1    2  502    0  0.84578227364E+02  0.45320065095E+01  0.21930103748E+03  0.23508926106E+03  0.00000000000E+00 0. -1.
         22    1    3    3    0    0 -0.20194212652E+02 -0.87514412112E+02 -0.19370363501E+02  0.91879211654E+02  0.00000000000E+00 0. -1.
         22    1    3    3    0    0 -0.52316870814E+02  0.36093204548E+02 -0.12257087735E+02  0.64730291101E+02  0.00000000000E+00 0. -1.
</event>
<event>
 7    1  0.5736319E-006  0.8273134E+02  0.7818608E-02  0.1400226E+00
          2   -1    0    0  502    0  0.00000000000E+00  0.00000000000E+00  0.17406318530E+03  0.17406318530E+03  0.00000000000E+00 0. -1.
          1   -1    0    0  501    0 -0.00000000000E+00 -0.00000000000E+00 -0.69126855207E+03  0.69126855207E+03  0.00000000000E+00 0. -1.
         25    2    1    2    0    0 -0.79844117659E+02 -0.72903111507E+00 -0.36698052008E+03  0.39582308764E+03  0.12500239987E+03 0.  0.
          2    1    1    2  501    0  0.76438864748E+02 -0.41830896470E+02 -0.30071187398E+03  0.31308202614E+03  0.00000000000E+00 0. -1.
          1    1    1    2  502    0  0.34052529110E+01  0.42559927585E+02  0.15048702730E+03  0.15642662359E+03  0.00000000000E+00 0. -1.
         22    1    3    3    0    0 -0.12580203228E+02  0.16578989298E+02 -0.29522950594E+03  0.29596213538E+03  0.00000000000E+00 0.  1.
         22    1    3    3    0    0 -0.67263914431E+02 -0.17308020413E+02 -0.71751014140E+02  0.99860952255E+02  0.00000000000E+00 0.  1.
</event>
<event>
 7    1  0.5736319E-006  0.4054113E+02  0.7818608E-02  0.1558457E+00
          2   -1    0    0  502    0  0.00000000000E+00  0.00000000000E+00  0.29450169490E+03  0.29450169490E+03  0.00000000000E+00 0. -1.
          1   -1    0    0  501    0 -0.00000000000E+00 -0.00000000000E+00 -0.37940345516E+03  0.37940345516E+03  0.00000000000E+00 0. -1.
         25    2    1    2    0    0  0.33184077969E+02  0.72472100778E+01  0.20557714598E+02  0.13115392435E+03  0.12500010863E+03 0.  0.
          2    1    1    2  501    0 -0.98860138450E+01  0.26592866689E+02 -0.32154521230E+03  0.32279441969E+03  0.00000000000E+00 0. -1.
          1    1    1    2  502    0 -0.23298064124E+02 -0.33840076767E+02  0.21608573745E+03  0.21995680603E+03  0.00000000000E+00 0. -1.
         22    1    3    3    0    0  0.67020869987E+02  0.86142940305E+01 -0.27003798869E+02  0.72768181431E+02  0.00000000000E+00 0.  1.
         22    1    3    3    0    0 -0.33836792018E+02 -0.13670839526E+01  0.47561513467E+02  0.58385742916E+02  0.00000000000E+00 0.  1.
</event>
<event>
 7    1  0.5736319E-006  0.5897817E+02  0.7818608E-02  0.1421846E+00
          2   -1    0    0  502    0  0.00000000000E+00  0.00000000000E+00  0.19784053244E+04  0.19784053244E+04  0.00000000000E+00 0. -1.
          1   -1    0    0  501    0 -0.00000000000E+00 -0.00000000000E+00 -0.18798696315E+03  0.18798696315E+03  0.00000000000E+00 0. -1.
         25    2    1    2    0    0  0.25252447181E+02 -0.10371475469E+03 -0.26593066485E+02  0.16649486931E+03  0.12497565319E+03 0.  0.
          2    1    1    2  501    0 -0.98850446258E-01  0.50606550509E+02 -0.83952310345E+02  0.98025624905E+02  0.00000000000E+00 0. -1.
          1    1    1    2  502    0 -0.25153596735E+02  0.53108204184E+02  0.19009637381E+04  0.19018717933E+04  0.00000000000E+00 0. -1.
         22    1    3    3    0    0  0.69723345238E+02 -0.82580070890E+02 -0.40361693760E+02  0.11536845020E+03  0.00000000000E+00 0.  1.
         22    1    3    3    0    0 -0.44470898057E+02 -0.21134683803E+02  0.13768627275E+02  0.51126419105E+02  0.00000000000E+00 0.  1.
</event>
<event>
 7    1  0.5736319E-006  0.5551553E+02  0.7818608E-02  0.1469754E+00
          2   -1    0    0  502    0  0.00000000000E+00  0.00000000000E+00  0.22109310896E+04  0.22109310896E+04  0.00000000000E+00 0. -1.
          1   -1    0    0  501    0 -0.00000000000E+00 -0.00000000000E+00 -0.35221088879E+04  0.35221088879E+04  0.00000000000E+00 0. -1.
         25    2    1    2    0    0 -0.21137644592E+02  0.18268962271E+02 -0.16988952816E+04  0.17037168859E+04  0.12500197782E+03 0.  0.
          2    1    1    2  501    0  0.58807305008E+02 -0.19546332141E+02 -0.18201146171E+04  0.18211692885E+04  0.00000000000E+00 0. -1.
          1    1    1    2  502    0 -0.37669660416E+02  0.12773698705E+01  0.22078321003E+04  0.22081538031E+04  0.00000000000E+00 0. -1.
         22    1    3    3    0    0 -0.15709376390E+01  0.62068103772E+02 -0.13629994605E+04  0.13644128578E+04  0.00000000000E+00 0.  1.
         22    1    3    3    0    0 -0.19566706953E+02 -0.43799141501E+02 -0.33589582110E+03  0.33930402805E+03  0.00000000000E+00 0.  1.
</event>
<event>
 7    1  0.5736319E-006  0.1656614E+03  0.7818608E-02  0.1198921E+00
          2   -1    0    0  502    0  0.00000000000E+00  0.00000000000E+00  0.16373514563E+04  0.16373514563E+04  0.00000000000E+00 0. -1.
          1   -1    0    0  501    0 -0.00000000000E+00 -0.00000000000E+00 -0.18616992192E+03  0.18616992192E+03  0.00000000000E+00 0. -1.
         25    2    1    2    0    0  0.68639278213E+02  0.15082659427E+02  0.15635394794E+03  0.21215624571E+03  0.12499951371E+03 0.  0.
          2    1    1    2  501    0 -0.16656182677E+03 -0.11250231581E+03 -0.89600552467E+02  0.22006333679E+03  0.00000000000E+00 0. -1.
          1    1    1    2  502    0  0.97922548556E+02  0.97419656380E+02  0.13844281389E+04  0.13913017957E+04  0.00000000000E+00 0. -1.
         22    1    3    3    0    0  0.10383153271E+03  0.13111662100E+02  0.94718928440E+02  0.14115444829E+03  0.00000000000E+00 0.  1.
         22    1    3    3    0    0 -0.35192254498E+02  0.19709973268E+01  0.61635019501E+02  0.71001797414E+02  0.00000000000E+00 0.  1.
</event>
<event>
 7    1  0.1065399E-005  0.9053204E+02  0.7818608E-02  0.1313920E+00
          2   -1    0    0  502    0  0.00000000000E+00  0.00000000000E+00  0.81837871101E+03  0.81837871101E+03  0.00000000000E+00 0. -1.
          1   -1    0    0  501    0 -0.00000000000E+00 -0.00000000000E+00 -0.22164107378E+04  0.22164107378E+04  0.00000000000E+00 0. -1.
         25    2    1    2    0    0  0.10382985757E+02 -0.75907038519E+01 -0.40992827521E+03  0.42875722756E+03  0.12500457666E+03 0.  0.
          2    1    1    2  501    0 -0.58855910584E+02 -0.68871216873E+02 -0.17933881464E+04  0.17956748888E+04  0.00000000000E+00 0. -1.
          1    1    1    2  502    0  0.48472924826E+02  0.76461920725E+02  0.80528439479E+03  0.81035733245E+03  0.00000000000E+00 0. -1.
         22    1    3    3    0    0  0.14880560345E+02  0.49781883886E+02 -0.30207410232E+03  0.30651008194E+03  0.00000000000E+00 0.  1.
         22    1    3    3    0    0 -0.44975745882E+01 -0.57372587738E+02 -0.10785417290E+03  0.12224714562E+03  0.00000000000E+00 0.  1.
</event>
<event>
 7    1  0.5736319E-006  0.6280113E+02  0.7818608E-02  0.1443116E+00
          2   -1    0    0  502    0  0.00000000000E+00  0.00000000000E+00  0.26768871679E+03  0.26768871679E+03  0.00000000000E+00 0. -1.
          1   -1    0    0  501    0 -0.00000000000E+00 -0.00000000000E+00 -0.34270580600E+03  0.34270580600E+03  0.00000000000E+00 0. -1.
         25    2    1    2    0    0  0.35796407588E+02 -0.87442996971E+01  0.21077571012E+02  0.13201262400E+03  0.12500089328E+03 0.  0.
          2    1    1    2  501    0 -0.59758002966E+02 -0.23871591680E+02 -0.28142283021E+03  0.28868612917E+03  0.00000000000E+00 0. -1.
          1    1    1    2  502    0  0.23961595378E+02  0.32615891377E+02  0.18532816999E+03  0.18969576963E+03  0.00000000000E+00 0. -1.
         22    1    3    3    0    0  0.37491020334E+02  0.39100114784E+02 -0.30069032033E+02  0.61955970408E+02  0.00000000000E+00 0. -1.
         22    1    3    3    0    0 -0.16946127467E+01 -0.47844414481E+02  0.51146603045E+02  0.70056653591E+02  0.00000000000E+00 0. -1.
</event>
<event>
 7    1  0.1130391E-005  0.1023529E+03  0.7818608E-02  0.1316381E+00
          2   -1    0    0  502    0  0.00000000000E+00  0.00000000000E+00  0.18384112433E+04  0.18384112433E+04  0.00000000000E+00 0. -1.
          1   -1    0    0  501    0 -0.00000000000E+00 -0.00000000000E+00 -0.20237153584E+04  0.20237153584E+04  0.00000000000E+00 0. -1.
         25    2    1    2    0    0 -0.23226066997E+02  0.25968969344E+02 -0.74877364352E+02  0.14981762477E+03  0.12499945377E+03 0.  0.
          2    1    1    2  501    0 -0.24732016287E+02  0.65474586141E+02 -0.19092460758E+04  0.19105285060E+04  0.00000000000E+00 0. -1.
          1    1    1    2  502    0  0.47958083284E+02 -0.91443555485E+02  0.17988193250E+04  0.18017804710E+04  0.00000000000E+00 0. -1.
         22    1    3    3    0    0 -0.63614400285E+02  0.49640949927E+02 -0.33608949079E+02  0.87410395787E+02  0.00000000000E+00 0. -1.
         22    1    3    3    0    0  0.40388333288E+02 -0.23671980583E+02 -0.41268415273E+02  0.62407228985E+02  0.00000000000E+00 0. -1.
</event>
<event>
 7    1  0.5736319E-006  0.2238748E+03  0.7818608E-02  0.1157712E+00
          2   -1    0    0  502    0  0.00000000000E+00  0.00000000000E+00  0.13196494662E+04  0.13196494662E+04  0.00000000000E+00 0. -1.
          1   -1    0    0  501    0 -0.00000000000E+00 -0.00000000000E+00 -0.33430654684E+03  0.33430654684E+03  0.00000000000E+00 0. -1.
         25    2    1    2    0    0  0.21009726521E+03  0.27234594451E+03  0.22374358814E+03  0.42895127425E+03  0.12499931243E+03 0.  0.
          2    1    1    2  501    0 -0.30091420365E+02 -0.15986013672E+03 -0.18994117087E+03  0.25007679877E+03  0.00000000000E+00 0. -1.
          1    1    1    2  502    0 -0.18000584485E+03 -0.11248580779E+03  0.95154050209E+03  0.97492794003E+03  0.00000000000E+00 0. -1.
         22    1    3    3    0    0  0.15447098550E+03  0.26057153845E+03  0.15671439827E+03  0.34105456255E+03  0.00000000000E+00 0. -1.
         22    1    3    3    0    0  0.55626279716E+02  0.11774406057E+02  0.67029189872E+02  0.87896711701E+02  0.00000000000E+00 0. -1.
</event>
<event>
 7    1  0.5736319E-006  0.7236820E+02  0.7818608E-02  0.1367493E+00
          2   -1    0    0  502    0  0.00000000000E+00  0.00000000000E+00  0.14401823793E+04  0.14401823793E+04  0.00000000000E+00 0. -1.
          1   -1    0    0  501    0 -0.00000000000E+00 -0.00000000000E+00 -0.60473603771E+03  0.60473603771E+03  0.00000000000E+00 0. -1.
         25    2    1    2    0    0  0.12680799183E+01  0.12611754730E+03 -0.15109860616E+03  0.23315472489E+03  0.12499237254E+03 0.  0.
          2    1    1    2  501    0 -0.25694401471E+02 -0.58232938413E+02 -0.40921749023E+03  0.41413793800E+03  0.00000000000E+00 0. -1.
          1    1    1    2  502    0  0.24426321553E+02 -0.67884608892E+02  0.13957624379E+04  0.13976257541E+04  0.00000000000E+00 0. -1.
         22    1    3    3    0    0 -0.21741213073E+01 -0.24508069539E+02 -0.35776556611E+02  0.43420436190E+02  0.00000000000E+00 0.  1.
         22    1    3    3    0    0  0.34422012256E+01  0.15062561684E+03 -0.11532204955E+03  0.18973428870E+03  0.00000000000E+00 0.  1.
</event>
<event>
 7    1  0.5736319E-006  0.3600389E+02  0.7818608E-02  0.1544159E+00
          2   -1    0    0  502    0  0.00000000000E+00  0.00000000000E+00  0.17025659059E+04  0.17025659059E+04  0.00000000000E+00 0. -1.
          1   -1    0    0  501    0 -0.00000000000E+00 -0.00000000000E+00 -0.80943496455E+03  0.80943496455E+03  0.00000000000E+00 0. -1.
         25    2    1    2    0    0  0.31191348134E+02 -0.25481060891E+02  0.45211708757E+03  0.47080035192E+03  0.12498370227E+03 0.  0.
          2    1    1    2  501    0 -0.33305590196E+02 -0.10802364896E+02 -0.79944397257E+03  0.80021035903E+03  0.00000000000E+00 0. -1.
          1    1    1    2  502    0  0.21142420616E+01  0.36283425787E+02  0.12404578263E+04  0.12409901595E+04  0.00000000000E+00 0. -1.
         22    1    3    3    0    0 -0.33202243854E+02  0.31173758730E+02  0.15760621895E+03  0.16405460213E+03  0.00000000000E+00 0.  1.
         22    1    3    3    0    0  0.64393591988E+02 -0.56654819620E+02  0.29451086862E+03  0.30674574979E+03  0.00000000000E+00 0.  1.
</event>
<event>
 7    1  0.5736319E-006  0.4981552E+02  0.7818608E-02  0.1456867E+00
          2   -1    0    0  502    0  0.00000000000E+00  0.00000000000E+00  0.16137466189E+04  0.16137466189E+04  0.00000000000E+00 0. -1.
          1   -1    0    0  501    0 -0.00000000000E+00 -0.00000000000E+00 -0.40383773121E+03  0.40383773121E+03  0.00000000000E+00 0. -1.
         25    2    1    2    0    0 -0.69814380479E+02 -0.47619621808E+02  0.18126344438E+03  0.23584617477E+03  0.12500122312E+03 0.  0.
          2    1    1    2  501    0  0.45896383016E+02  0.43920750708E+01 -0.37469871149E+03  0.37752469150E+03  0.00000000000E+00 0. -1.
          1    1    1    2  502    0  0.23917997463E+02  0.43227546738E+02  0.14033441548E+04  0.14042134839E+04  0.00000000000E+00 0. -1.
         22    1    3    3    0    0 -0.16758428559E+02  0.29476077359E+02  0.11826592248E+03  0.12303053477E+03  0.00000000000E+00 0. -1.
         22    1    3    3    0    0 -0.53055951920E+02 -0.77095699167E+02  0.62997521900E+02  0.11281564001E+03  0.00000000000E+00 0. -1.
</event>
<event>
 7    1  0.5736319E-006  0.5420677E+02  0.7818608E-02  0.1558537E+00
          2   -1    0    0  502    0  0.00000000000E+00  0.00000000000E+00  0.47437733549E+02  0.47437733549E+02  0.00000000000E+00 0. -1.
          1   -1    0    0  501    0 -0.00000000000E+00 -0.00000000000E+00 -0.13151019980E+04  0.13151019980E+04  0.00000000000E+00 0. -1.
         25    2    1    2    0    0 -0.33350932134E+02 -0.58609792893E+02 -0.26020983538E+03  0.29644838331E+03  0.12500037217E+03 0.  0.
          2    1    1    2  501    0  0.13149695042E+02  0.52153743959E+02 -0.10321435983E+04  0.10335440654E+04  0.00000000000E+00 0. -1.
          1    1    1    2  502    0  0.20201237092E+02  0.64560489335E+01  0.24689169218E+02  0.32547282906E+02  0.00000000000E+00 0. -1.
         22    1    3    3    0    0 -0.57998932261E+02 -0.28636029312E+02 -0.24719479452E+03  0.25551744511E+03  0.00000000000E+00 0.  1.
         22    1    3    3    0    0  0.24648000127E+02 -0.29973763580E+02 -0.13015040857E+02  0.40930938200E+02  0.00000000000E+00 0.  1.
</event>
<event>
 7    1  0.5736319E-006  0.6474876E+02  0.7818608E-02  0.1409498E+00
          2   -1    0    0  502    0  0.00000000000E+00  0.00000000000E+00  0.20834206428E+03  0.20834206428E+03  0.00000000000E+00 0. -1.
          1   -1    0    0  501    0 -0.00000000000E+00 -0.00000000000E+00 -0.59625496533E+03  0.59625496533E+03  0.00000000000E+00 0. -1.
         25    2    1    2    0    0 -0.18303498374E+02  0.16276141016E+02 -0.15191153359E+03  0.19824115053E+03  0.12499003523E+03 0.  0.
          2    1    1    2  501    0  0.68956565466E+02 -0.13694852159E+02 -0.41469079632E+03  0.42060790940E+03  0.00000000000E+00 0. -1.
          1    1    1    2  502    0 -0.50653067092E+02 -0.25812888567E+01  0.17868942885E+03  0.18574796968E+03  0.00000000000E+00 0. -1.
         22    1    3    3    0    0 -0.52047529876E+02  0.54388117903E+02 -0.10359251456E+03  0.12805632280E+03  0.00000000000E+00 0. -1.
         22    1    3    3    0    0  0.33744031501E+02 -0.38111976887E+02 -0.48319019025E+02  0.70184827732E+02  0.00000000000E+00 0. -1.
</event>
<event>
 7    1  0.5736319E-006  0.6480204E+02  0.7818608E-02  0.1456958E+00
          2   -1    0    0  502    0  0.00000000000E+00  0.00000000000E+00  0.12145778770E+04  0.12145778770E+04  0.00000000000E+00 0. -1.
          1   -1    0    0  501    0 -0.00000000000E+00 -0.00000000000E+00 -0.23530578379E+03  0.23530578379E+03  0.00000000000E+00 0. -1.
         25    2    1    2    0    0  0.95292499179E+01 -0.79722860322E+02  0.10963080574E+03  0.18463701991E+03  0.12500149796E+03 0.  0.
          2    1    1    2  501    0 -0.30191417136E+02  0.18521211931E+02 -0.19523048131E+03  0.19841748358E+03  0.00000000000E+00 0. -1.
          1    1    1    2  502    0  0.20662167218E+02  0.61201648391E+02  0.10648717688E+04  0.10668291573E+04  0.00000000000E+00 0. -1.
         22    1    3    3    0    0 -0.90131355399E+01 -0.80732265947E+02  0.13235164781E+03  0.15529292983E+03  0.00000000000E+00 0. -1.
         22    1    3    3    0    0  0.18542385458E+02  0.10094056250E+01 -0.22720842071E+02  0.29344090080E+02  0.00000000000E+00 0. -1.
</event>
<event>
 7    1  0.5736319E-006  0.7300293E+02  0.7818608E-02  0.1413729E+00
          2   -1    0    0  502    0  0.00000000000E+00  0.00000000000E+00  0.68311422734E+03  0.68311422734E+03  0.00000000000E+00 0. -1.
          1   -1    0    0  501    0 -0.00000000000E+00 -0.00000000000E+00 -0.14313461228E+04  0.14313461228E+04  0.00000000000E+00 0. -1.
         25    2    1    2    0    0 -0.93759362420E+01 -0.37287510305E+02  0.99547592550E+02  0.16435729573E+03  0.12500132349E+03 0.  0.
          2    1    1    2  501    0 -0.36930551738E+02 -0.23037072788E+02 -0.13959771942E+04  0.13966556122E+04  0.00000000000E+00 0. -1.
          1    1    1    2  502    0  0.46306487980E+02  0.60324583093E+02  0.54819770622E+03  0.55344744218E+03  0.00000000000E+00 0. -1.
         22    1    3    3    0    0 -0.62990051916E+02  0.37633527910E+01  0.52066673356E+02  0.81809827887E+02  0.00000000000E+00 0.  1.
         22    1    3    3    0    0  0.53614115674E+02 -0.41050863096E+02  0.47480919194E+02  0.82547467847E+02  0.00000000000E+00 0.  1.
</event>
<event>
 7    1  0.5736319E-006  0.1485322E+03  0.7818608E-02  0.1313434E+00
          2   -1    0    0  502    0  0.00000000000E+00  0.00000000000E+00  0.12338680204E+03  0.12338680204E+03  0.00000000000E+00 0. -1.
          1   -1    0    0  501    0 -0.00000000000E+00 -0.00000000000E+00 -0.98008199894E+03  0.98008199894E+03  0.00000000000E+00 0. -1.
         25    2    1    2    0    0 -0.19311669169E+02 -0.12756753457E+03 -0.47321961920E+02  0.18577199511E+03  0.12500179857E+03 0.  0.
          2    1    1    2  501    0 -0.32326424180E+02 -0.37522040664E+02 -0.72238098916E+03  0.72407678787E+03  0.00000000000E+00 0. -1.
          1    1    1    2  502    0  0.51638093349E+02  0.16508957523E+03 -0.86992245810E+02  0.19362001799E+03  0.00000000000E+00 0. -1.
         22    1    3    3    0    0 -0.49204416214E+02 -0.87565260616E+02  0.19533924805E+02  0.10232459949E+03  0.00000000000E+00 0.  1.
         22    1    3    3    0    0  0.29892747045E+02 -0.40002273954E+02 -0.66855886725E+02  0.83447395629E+02  0.00000000000E+00 0.  1.
</event>
<event>
 7    1  0.5736319E-006  0.1840623E+03  0.7818608E-02  0.1303892E+00
          2   -1    0    0  502    0  0.00000000000E+00  0.00000000000E+00  0.13716723086E+04  0.13716723086E+04  0.00000000000E+00 0. -1.
          1   -1    0    0  501    0 -0.00000000000E+00 -0.00000000000E+00 -0.12751067097E+04  0.12751067097E+04  0.00000000000E+00 0. -1.
         25    2    1    2    0    0 -0.14117049843E+03  0.58031470986E+02 -0.19858398476E+03  0.27992577767E+03  0.12500432291E+03 0.  0.
          2    1    1    2  501    0  0.18417299151E+03 -0.50904325631E+02 -0.10266777003E+04  0.10443074459E+04  0.00000000000E+00 0. -1.
          1    1    1    2  502    0 -0.43002493076E+02 -0.71271453551E+01  0.13218272839E+04  0.13225457947E+04  0.00000000000E+00 0. -1.
         22    1    3    3    0    0 -0.83383815025E+02 -0.10304929493E+02 -0.16345515336E+03  0.18378421951E+03  0.00000000000E+00 0.  1.
         22    1    3    3    0    0 -0.57786683405E+02  0.68336400480E+02 -0.35128831396E+02  0.96141558156E+02  0.00000000000E+00 0.  1.
</event>
<event>
 7    1  0.5736319E-006  0.1640609E+03  0.7818608E-02  0.1271275E+00
          2   -1    0    0  502    0  0.00000000000E+00  0.00000000000E+00  0.25745367056E+03  0.25745367056E+03  0.00000000000E+00 0. -1.
          1   -1    0    0  501    0 -0.00000000000E+00 -0.00000000000E+00 -0.28480029042E+04  0.28480029042E+04  0.00000000000E+00 0. -1.
         25    2    1    2    0    0  0.10486504372E+03  0.87191617809E+02 -0.13759095240E+04  0.13882901144E+04  0.12499347086E+03 0.  0.
          2    1    1    2  501    0 -0.12246479329E+03 -0.15127340255E+03 -0.14549124007E+04  0.14678730741E+04  0.00000000000E+00 0. -1.
          1    1    1    2  502    0  0.17599749575E+02  0.64081784744E+02  0.24027269114E+03  0.24929338625E+03  0.00000000000E+00 0. -1.
         22    1    3    3    0    0  0.99475317798E+02  0.31963981450E+01 -0.82648423152E+03  0.83245524851E+03  0.00000000000E+00 0.  1.
         22    1    3    3    0    0  0.53897259206E+01  0.83995219664E+02 -0.54942529249E+03  0.55583486586E+03  0.00000000000E+00 0.  1.
</event>
<event>
 7    1  0.5736319E-006  0.9756401E+02  0.7818608E-02  0.1327699E+00
          2   -1    0    0  502    0  0.00000000000E+00  0.00000000000E+00  0.20634005114E+03  0.20634005114E+03  0.00000000000E+00 0. -1.
          1   -1    0    0  501    0 -0.00000000000E+00 -0.00000000000E+00 -0.52484001077E+03  0.52484001077E+03  0.00000000000E+00 0. -1.
         25    2    1    2    0    0 -0.40978532401E+02  0.88899648773E+01 -0.74488192636E+02  0.15143314195E+03  0.12500093618E+03 0.  0.
          2    1    1    2  501    0  0.10291233265E+03 -0.32788949495E+02 -0.39782116459E+03  0.41222292805E+03  0.00000000000E+00 0. -1.
          1    1    1    2  502    0 -0.61933800251E+02  0.23898984618E+02  0.15380939758E+03  0.16752399191E+03  0.00000000000E+00 0. -1.
         22    1    3    3    0    0  0.31391222569E+02  0.39180931322E+02 -0.45623036589E+02  0.67838158150E+02  0.00000000000E+00 0. -1.
         22    1    3    3    0    0 -0.72369754970E+02 -0.30290966445E+02 -0.28865156047E+02  0.83594983798E+02  0.00000000000E+00 0. -1.
</event>
<event>
 7    1  0.5736319E-006  0.1498363E+03  0.7818608E-02  0.1321008E+00
          2   -1    0    0  502    0  0.00000000000E+00  0.00000000000E+00  0.21904172383E+03  0.21904172383E+03  0.00000000000E+00 0. -1.
          1   -1    0    0  501    0 -0.00000000000E+00 -0.00000000000E+00 -0.10721376509E+04  0.10721376509E+04  0.00000000000E+00 0. -1.
         25    2    1    2    0    0  0.11990146284E+03 -0.29309031880E+02 -0.77608727190E+02  0.19205136178E+03  0.12500092354E+03 0.  0.
          2    1    1    2  501    0 -0.13477879935E+03  0.72699230501E+02 -0.92764843384E+03  0.94020323318E+03  0.00000000000E+00 0. -1.
          1    1    1    2  502    0  0.14877336507E+02 -0.43390198621E+02  0.15216123400E+03  0.15892477973E+03  0.00000000000E+00 0. -1.
         22    1    3    3    0    0  0.56013533745E+02 -0.16047679877E+02 -0.10594789259E+03  0.12091319174E+03  0.00000000000E+00 0.  1.
         22    1    3    3    0    0  0.63887929099E+02 -0.13261352003E+02  0.28339165401E+02  0.71138170043E+02  0.00000000000E+00 0.  1.
</event>
<event>
 7    1  0.5736319E-006  0.1348557E+03  0.7818608E-02  0.1367671E+00
          2   -1    0    0  502    0  0.00000000000E+00  0.00000000000E+00  0.26282621031E+04  0.26282621031E+04  0.00000000000E+00 0. -1.
          1   -1    0    0  501    0 -0.00000000000E+00 -0.00000000000E+00 -0.24809405257E+04  0.24809405257E+04  0.00000000000E+00 0. -1.
         25    2    1    2    0    0  0.10168519309E+02 -0.11087771964E+03 -0.14424495574E+03  0.22096961421E+03  0.12499478249E+03 0.  0.
          2    1    1    2  501    0 -0.24780757160E+02 -0.23433582747E+02 -0.22964445840E+04  0.22966978352E+04  0.00000000000E+00 0. -1.
          1    1    1    2  502    0  0.14612237851E+02  0.13431130239E+03  0.25880111172E+04  0.25915351794E+04  0.00000000000E+00 0. -1.
         22    1    3    3    0    0 -0.22747400885E+02 -0.12181286195E+03 -0.13844502050E+03  0.18580323271E+03  0.00000000000E+00 0.  1.
         22    1    3    3    0    0  0.32915920194E+02  0.10935142306E+02 -0.57999352404E+01  0.35166381506E+02  0.00000000000E+00 0.  1.
</event>
<event>
 7    1  0.5736319E-006  0.4768610E+02  0.7818608E-02  0.1543633E+00
          2   -1    0    0  502    0  0.00000000000E+00  0.00000000000E+00  0.23702540496E+02  0.23702540496E+02  0.00000000000E+00 0. -1.
          1   -1    0    0  501    0 -0.00000000000E+00 -0.00000000000E+00 -0.47237887560E+03  0.47237887560E+03  0.00000000000E+00 0. -1.
         25    2    1    2    0    0  0.74463646432E+01 -0.54316124273E+02 -0.30310347747E+03  0.33241889240E+03  0.12499964905E+03 0.  0.
          2    1    1    2  501    0 -0.27780630603E+02  0.37282420170E+02 -0.74693197181E+02  0.87981907206E+02  0.00000000000E+00 0. -1.
          1    1    1    2  502    0  0.20334265960E+02  0.17033704102E+02 -0.70879660451E+02  0.75680616496E+02  0.00000000000E+00 0. -1.
         22    1    3    3    0    0  0.28412031558E+02 -0.42018116647E+02 -0.31452603524E+02  0.59682760762E+02  0.00000000000E+00 0. -1.
         22    1    3    3    0    0 -0.20965666915E+02 -0.12298007626E+02 -0.27165087395E+03  0.27273613163E+03  0.00000000000E+00 0. -1.
</event>
<event>
 7    1  0.5736319E-006  0.6448009E+02  0.7818608E-02  0.1529446E+00
          2   -1    0    0  502    0  0.00000000000E+00  0.00000000000E+00  0.60299116090E+03  0.60299116090E+03  0.00000000000E+00 0. -1.
          1   -1    0    0  501    0 -0.00000000000E+00 -0.00000000000E+00 -0.58018195904E+03  0.58018195904E+03  0.00000000000E+00 0. -1.
         25    2    1    2    0    0 -0.74885574296E+02 -0.38749524996E+02  0.12801058668E+03  0.19778701304E+03  0.12499446908E+03 0.  0.
          2    1    1    2  501    0  0.20500462203E+02  0.65594798174E+01 -0.54281054384E+03  0.54323713259E+03  0.00000000000E+00 0. -1.
          1    1    1    2  502    0  0.54385112092E+02  0.32190045179E+02  0.43760915901E+03  0.44214897431E+03  0.00000000000E+00 0. -1.
         22    1    3    3    0    0 -0.36131297567E+02  0.44800633305E+02  0.61156003487E+02  0.83979903375E+02  0.00000000000E+00 0. -1.
         22    1    3    3    0    0 -0.38754276729E+02 -0.83550158301E+02  0.66854583193E+02  0.11380710967E+03  0.00000000000E+00 0. -1.
</event>
<event>
 7    1  0.5736319E-006  0.2597770E+03  0.7818608E-02  0.1176897E+00
          2   -1    0    0  502    0  0.00000000000E+00  0.00000000000E+00  0.42170044288E+04  0.42170044288E+04  0.00000000000E+00 0. -1.
          1   -1    0    0  501    0 -0.00000000000E+00 -0.00000000000E+00 -0.11379359071E+03  0.11379359071E+03  0.00000000000E+00 0. -1.
         25    2    1    2    0    0  0.23999483365E+03  0.88991882462E+02  0.37404830407E+03  0.47016488034E+03  0.12500322238E+03 0.  0.
          2    1    1    2  501    0  0.21380383982E+02 -0.11039861610E+03 -0.94385966048E+01  0.11284530279E+03  0.00000000000E+00 0. -1.
          1    1    1    2  502    0 -0.26137521763E+03  0.21406733640E+02  0.37386011307E+04  0.37477878364E+04  0.00000000000E+00 0. -1.
         22    1    3    3    0    0  0.22136740176E+03  0.10616681087E+03  0.37067210144E+03  0.44460400929E+03  0.00000000000E+00 0.  1.
         22    1    3    3    0    0  0.18627431892E+02 -0.17174928406E+02  0.33762026284E+01  0.25560871049E+02  0.00000000000E+00 0.  1.
</event>
<event>
 7    1  0.5736319E-006  0.1645369E+03  0.7818608E-02  0.1405358E+00
          2   -1    0    0  502    0  0.00000000000E+00  0.00000000000E+00  0.28430447563E+03  0.28430447563E+03  0.00000000000E+00 0. -1.
          1   -1    0    0  501    0 -0.00000000000E+00 -0.00000000000E+00 -0.58526322847E+03  0.58526322847E+03  0.00000000000E+00 0. -1.
         25    2    1    2    0    0  0.47170848140E+02  0.14777736859E+03 -0.12288560448E+03  0.23406789665E+03  0.12499467537E+03 0.  0.
          2    1    1    2  501    0 -0.66909730402E+02 -0.15372908543E+03 -0.38898712169E+03  0.42358059985E+03  0.00000000000E+00 0. -1.
          1    1    1    2  502    0  0.19738882262E+02  0.59517168322E+01  0.21091397332E+03  0.21191920760E+03  0.00000000000E+00 0. -1.
         22    1    3    3    0    0 -0.79914191293E+01 -0.20482356703E+02 -0.16577803214E+02  0.27535672776E+02  0.00000000000E+00 0.  1.
         22    1    3    3    0    0  0.55162267269E+02  0.16825972530E+03 -0.10630780126E+03  0.20653222387E+03  0.00000000000E+00 0.  1.
</event>
<event>
 7    1  0.5736319E-006  0.7425849E+02  0.7818608E-02  0.1372514E+00
          2   -1    0    0  502    0  0.00000000000E+00  0.00000000000E+00  0.29964001931E+03  0.29964001931E+03  0.00000000000E+00 0. -1.
          1   -1    0    0  501    0 -0.00000000000E+00 -0.00000000000E+00 -0.33112162208E+03  0.33112162208E+03  0.00000000000E+00 0. -1.
         25    2    1    2    0    0 -0.80149295226E+02 -0.83669678575E+02 -0.31640044197E+02  0.17333975565E+03  0.12498421442E+03 0.  0.
          2    1    1    2  501    0  0.12275346773E+02  0.58224382782E+02 -0.21881558940E+03  0.22676204500E+03  0.00000000000E+00 0. -1.
          1    1    1    2  502    0  0.67873948453E+02  0.25445295793E+02  0.21897403082E+03  0.23065984074E+03  0.00000000000E+00 0. -1.
         22    1    3    3    0    0 -0.50434407454E+02 -0.11572979877E+03 -0.17815385462E+02  0.12749275955E+03  0.00000000000E+00 0. -1.
         22    1    3    3    0    0 -0.29714887772E+02  0.32060120196E+02 -0.13824658735E+02  0.45846996100E+02  0.00000000000E+00 0. -1.
</event>
<event>
 7    1  0.5736319E-006  0.6881074E+02  0.7818608E-02  0.1399045E+00
          2   -1    0    0  502    0  0.00000000000E+00  0.00000000000E+00  0.67210013444E+03  0.67210013444E+03  0.00000000000E+00 0. -1.
          1   -1    0    0  501    0 -0.00000000000E+00 -0.00000000000E+00 -0.17054618771E+03  0.17054618771E+03  0.00000000000E+00 0. -1.
         25    2    1    2    0    0 -0.39994809548E+02  0.16501612848E+02 -0.79371003765E+02  0.15426134814E+03  0.12499967710E+03 0.  0.
          2    1    1    2  501    0 -0.22606852542E+02 -0.46624616342E+02 -0.38828368127E+02  0.64750033222E+02  0.00000000000E+00 0. -1.
          1    1    1    2  502    0  0.62601662090E+02  0.30123003493E+02  0.61975331862E+03  0.62363494079E+03  0.00000000000E+00 0. -1.
         22    1    3    3    0    0 -0.82613158045E+02  0.47139509896E+01 -0.30085637984E+02  0.88047151169E+02  0.00000000000E+00 0. -1.
         22    1    3    3    0    0  0.42618348498E+02  0.11787661859E+02 -0.49285365782E+02  0.66214196975E+02  0.00000000000E+00 0. -1.
</event>
<event>
 7    1  0.5736319E-006  0.2127241E+03  0.7818608E-02  0.1259244E+00
          2   -1    0    0  502    0  0.00000000000E+00  0.00000000000E+00  0.11227318741E+04  0.11227318741E+04  0.00000000000E+00 0. -1.
          1   -1    0    0  501    0 -0.00000000000E+00 -0.00000000000E+00 -0.38265259458E+03  0.38265259458E+03  0.00000000000E+00 0. -1.
         25    2    1    2    0    0 -0.76410544264E+01  0.19067200312E+03  0.11804451225E+03  0.25685381478E+03  0.12500070723E+03 0.  0.
          2    1    1    2  501    0  0.62231435512E+02 -0.20913284392E+03 -0.27421348477E+03  0.35043163841E+03  0.00000000000E+00 0. -1.
          1    1    1    2  502    0 -0.54590381086E+02  0.18460840802E+02  0.89624825205E+03  0.89809901550E+03  0.00000000000E+00 0. -1.
         22    1    3    3    0    0  0.38424802387E+02  0.75792345260E+02  0.10087574441E+03  0.13189716012E+03  0.00000000000E+00 0. -1.
         22    1    3    3    0    0 -0.46065856814E+02  0.11487965786E+03  0.17168767841E+02  0.12495665465E+03  0.00000000000E+00 0. -1.
</event>
<event>
 7    1  0.5736319E-006  0.1668592E+03  0.7818608E-02  0.1301601E+00
          2   -1    0    0  502    0  0.00000000000E+00  0.00000000000E+00  0.48646259432E+03  0.48646259432E+03  0.00000000000E+00 0. -1.
          1   -1    0    0  501    0 -0.00000000000E+00 -0.00000000000E+00 -0.70906433484E+03  0.70906433484E+03  0.00000000000E+00 0. -1.
         25    2    1    2    0    0 -0.31786693675E+02  0.11925780561E+03  0.55464797050E+02  0.18421151310E+03  0.12499887901E+03 0.  0.
          2    1    1    2  501    0  0.30172013228E+02 -0.16833629985E+03 -0.63162249280E+03  0.65436567272E+03  0.00000000000E+00 0. -1.
          1    1    1    2  502    0  0.16146804474E+01  0.49078494240E+02  0.35355595523E+03  0.35694974333E+03  0.00000000000E+00 0. -1.
         22    1    3    3    0    0  0.24266378049E+02  0.49391876283E+01 -0.23706751369E+02  0.34282105223E+02  0.00000000000E+00 0.  1.
         22    1    3    3    0    0 -0.56053071725E+02  0.11431861798E+03  0.79171548418E+02  0.14992940788E+03  0.00000000000E+00 0.  1.
</event>
<event>
 7    1  0.5736319E-006  0.1100622E+03  0.7818608E-02  0.1332250E+00
          2   -1    0    0  502    0  0.00000000000E+00  0.00000000000E+00  0.58160160939E+03  0.58160160939E+03  0.00000000000E+00 0. -1.
          1   -1    0    0  501    0 -0.00000000000E+00 -0.00000000000E+00 -0.28406199628E+03  0.28406199628E+03  0.00000000000E+00 0. -1.
         25    2    1    2    0    0  0.49893645949E+02  0.63701385894E+02 -0.33725048410E+02  0.15268682312E+03  0.12501457752E+03 0.  0.
          2    1    1    2  501    0 -0.10620603524E+03 -0.58661483050E+02 -0.16982164741E+03  0.20871100461E+03  0.00000000000E+00 0. -1.
          1    1    1    2  502    0  0.56312389291E+02 -0.50399028444E+01  0.50108630893E+03  0.50426577794E+03  0.00000000000E+00 0. -1.
         22    1    3    3    0    0 -0.30927650413E+02  0.35992408448E+02 -0.46332360490E+02  0.66322399342E+02  0.00000000000E+00 0. -1.
         22    1    3    3    0    0  0.80821296362E+02  0.27708977446E+02  0.12607312080E+02  0.86364423778E+02  0.00000000000E+00 0. -1.
</event>
<event>
 7    1  0.5736319E-006  0.5105913E+02  0.7818608E-02  0.1465403E+00
          2   -1    0    0  502    0  0.00000000000E+00  0.00000000000E+00  0.70474903517E+03  0.70474903517E+03  0.00000000000E+00 0. -1.
          1   -1    0    0  501    0 -0.00000000000E+00 -0.00000000000E+00 -0.84982013492E+02  0.84982013492E+02  0.00000000000E+00 0. -1.
         25    2    1    2    0    0 -0.37284909206E+02 -0.44403030778E+02  0.35521329661E+03  0.38100391467E+03  0.12500281321E+03 0.  0.
          2    1    1    2  501    0 -0.14774848000E+02  0.39617227317E+02 -0.63634314357E+02  0.76401222486E+02  0.00000000000E+00 0. -1.
          1    1    1    2  502    0  0.52059757206E+02  0.47858034611E+01  0.32818803943E+03  0.33232591151E+03  0.00000000000E+00 0. -1.
         22    1    3    3    0    0 -0.72144440658E+02 -0.58965801585E+02  0.29973769438E+03  0.31388608046E+03  0.00000000000E+00 0. -1.
         22    1    3    3    0    0  0.34859531452E+02  0.14562770807E+02  0.55475602226E+02  0.67117834210E+02  0.00000000000E+00 0. -1.
</event>
<event>
 7    1  0.5736319E-006  0.7006293E+02  0.7818608E-02  0.1427467E+00
          2   -1    0    0  502    0  0.00000000000E+00  0.00000000000E+00  0.32900354578E+03  0.32900354578E+03  0.00000000000E+00 0. -1.
          1   -1    0    0  501    0 -0.00000000000E+00 -0.00000000000E+00 -0.64063017864E+03  0.64063017864E+03  0.00000000000E+00 0. -1.
         25    2    1    2    0    0  0.63643061415E+02 -0.57334779084E+02  0.15804950070E+02  0.15235478173E+03  0.12499786762E+03 0.  0.
          2    1    1    2  501    0 -0.23715178809E+02  0.65771602480E+02 -0.56849874294E+03  0.57278192545E+03  0.00000000000E+00 0. -1.
          1    1    1    2  502    0 -0.39927882606E+02 -0.84368233957E+01  0.24106716002E+03  0.24449701724E+03  0.00000000000E+00 0. -1.
         22    1    3    3    0    0 -0.23561372346E+02 -0.24874463790E+02  0.43404838651E+02  0.55297895385E+02  0.00000000000E+00 0.  1.
         22    1    3    3    0    0  0.87204433761E+02 -0.32460315294E+02 -0.27599888582E+02  0.97056886341E+02  0.00000000000E+00 0.  1.
</event>
<event>
 7    1  0.5736319E-006  0.1456782E+03  0.7818608E-02  0.1273543E+00
          2   -1    0    0  502    0  0.00000000000E+00  0.00000000000E+00  0.12666292315E+04  0.12666292315E+04  0.00000000000E+00 0. -1.
          1   -1    0    0  501    0 -0.00000000000E+00 -0.00000000000E+00 -0.83020133620E+03  0.83020133620E+03  0.00000000000E+00 0. -1.
         25    2    1    2    0    0 -0.17235976373E+03 -0.87586300588E+01 -0.43693210412E+03  0.48612834069E+03  0.12500599290E+03 0.  0.
          2    1    1    2  501    0  0.12176861990E+03  0.61694144251E+02 -0.35490753755E+03  0.38025402620E+03  0.00000000000E+00 0. -1.
          1    1    1    2  502    0  0.50591143824E+02 -0.52935514192E+02  0.12282675370E+04  0.12304482008E+04  0.00000000000E+00 0. -1.
         22    1    3    3    0    0 -0.16116597959E+03 -0.31685813299E+02 -0.42906480821E+03  0.45942907330E+03  0.00000000000E+00 0.  1.
         22    1    3    3    0    0 -0.11193784135E+02  0.22927183240E+02 -0.78672959032E+01  0.26699267394E+02  0.00000000000E+00 0.  1.
</event>
<event>
 7    1  0.5736319E-006  0.3530116E+02  0.7818608E-02  0.1551976E+00
          2   -1    0    0  502    0  0.00000000000E+00  0.00000000000E+00  0.79769261709E+03  0.79769261709E+03  0.00000000000E+00 0. -1.
          1   -1    0    0  501    0 -0.00000000000E+00 -0.00000000000E+00 -0.18980351845E+03  0.18980351845E+03  0.00000000000E+00 0. -1.
         25    2    1    2    0    0  0.19883904067E+02  0.14727563138E+02  0.29113420013E+03  0.31779867574E+03  0.12499842022E+03 0.  0.
          2    1    1    2  501    0  0.76402805455E+01 -0.34615632063E+02 -0.17409854403E+03  0.17767081613E+03  0.00000000000E+00 0. -1.
          1    1    1    2  502    0 -0.27524184613E+02  0.19888068925E+02  0.49085344255E+03  0.49202664367E+03  0.00000000000E+00 0. -1.
         22    1    3    3    0    0  0.19337591613E+02 -0.44195350667E+02  0.49639315604E+02  0.69218733907E+02  0.00000000000E+00 0.  1.
         22    1    3    3    0    0  0.54631245385E+00  0.58922913805E+02  0.24149488453E+03  0.24857994183E+03  0.00000000000E+00 0.  1.
</event>
<event>
 7    1  0.5736319E-006  0.1151116E+03  0.7818608E-02  0.1409412E+00
          2   -1    0    0  502    0  0.00000000000E+00  0.00000000000E+00  0.22756864937E+04  0.22756864937E+04  0.00000000000E+00 0. -1.
          1   -1    0    0  501    0 -0.00000000000E+00 -0.00000000000E+00 -0.27260158528E+02  0.27260158528E+02  0.00000000000E+00 0. -1.
         25    2    1    2    0    0  0.66076731422E+02 -0.75762877889E+02  0.77386105722E+03  0.79031005305E+03  0.12499158358E+03 0.  0.
          2    1    1    2  501    0 -0.58916390163E+02  0.10339814027E+03  0.16865436793E+03  0.20641369204E+03  0.00000000000E+00 0. -1.
          1    1    1    2  502    0 -0.71603412584E+01 -0.27635262381E+02  0.13059109100E+04  0.13062229071E+04  0.00000000000E+00 0. -1.
         22    1    3    3    0    0 -0.30841403378E+02  0.84750240076E+01  0.15118297334E+03  0.15452931639E+03  0.00000000000E+00 0.  1.
         22    1    3    3    0    0  0.96918134799E+02 -0.84237901896E+02  0.62267808388E+03  0.63578073666E+03  0.00000000000E+00 0.  1.
</event>
<event>
 7    1  0.5736319E-006  0.7166704E+02  0.7818608E-02  0.1455085E+00
          2   -1    0    0  502    0  0.00000000000E+00  0.00000000000E+00  0.22457557880E+03  0.22457557880E+03  0.00000000000E+00 0. -1.
          1   -1    0    0  501    0 -0.00000000000E+00 -0.00000000000E+00 -0.26635854383E+03  0.26635854383E+03  0.00000000000E+00 0. -1.
         25    2    1    2    0    0 -0.42110481250E+02 -0.85802705416E+01 -0.13514013353E+02  0.13287806846E+03  0.12500815512E+03 0.  0.
          2    1    1    2  501    0 -0.29853687308E+02 -0.12764288200E+02 -0.18311728168E+03  0.18597340818E+03  0.00000000000E+00 0. -1.
          1    1    1    2  502    0  0.71964168557E+02  0.21344558742E+02  0.15484833001E+03  0.17208264599E+03  0.00000000000E+00 0. -1.
         22    1    3    3    0    0  0.35114317757E+02  0.20301078709E+02 -0.27837622457E+02  0.49194332319E+02  0.00000000000E+00 0. -1.
         22    1    3    3    0    0 -0.77224799007E+02 -0.28881349250E+02  0.14323609104E+02  0.83683736137E+02  0.00000000000E+00 0. -1.
</event>
<event>
 7    1  0.5736319E-006  0.1038904E+03  0.7818608E-02  0.1296302E+00
          2   -1    0    0  502    0  0.00000000000E+00  0.00000000000E+00  0.92728844903E+03  0.92728844903E+03  0.00000000000E+00 0. -1.
          1   -1    0    0  501    0 -0.00000000000E+00 -0.00000000000E+00 -0.28369893050E+03  0.28369893050E+03  0.00000000000E+00 0. -1.
         25    2    1    2    0    0  0.16939053844E+03 -0.17252697613E+02  0.27813523032E+03  0.34924916923E+03  0.12499986311E+03 0.  0.
          2    1    1    2  501    0 -0.80029480290E+02 -0.21324983602E+02 -0.23721608286E+03  0.25125871648E+03  0.00000000000E+00 0. -1.
          1    1    1    2  502    0 -0.89361058146E+02  0.38577681216E+02  0.60267037107E+03  0.61047949381E+03  0.00000000000E+00 0. -1.
         22    1    3    3    0    0  0.15314875683E+02  0.42880305960E+02  0.52641179257E+02  0.69601435402E+02  0.00000000000E+00 0.  1.
         22    1    3    3    0    0  0.15407566275E+03 -0.60133003573E+02  0.22549405106E+03  0.27964773383E+03  0.00000000000E+00 0.  1.
</event>
<event>
 7    1  0.5736319E-006  0.4565599E+02  0.7818608E-02  0.1472348E+00
          2   -1    0    0  502    0  0.00000000000E+00  0.00000000000E+00  0.23863302113E+03  0.23863302113E+03  0.00000000000E+00 0. -1.
          1   -1    0    0  501    0 -0.00000000000E+00 -0.00000000000E+00 -0.12636815082E+03  0.12636815082E+03  0.00000000000E+00 0. -1.
         25    2    1    2    0    0 -0.96496453161E+01  0.61529090050E+01 -0.22606480973E+02  0.12754543020E+03  0.12500323932E+03 0.  0.
          2    1    1    2  501    0  0.55301597196E+02 -0.55455645305E+01 -0.32217449041E+02  0.64241606153E+02  0.00000000000E+00 0. -1.
          1    1    1    2  502    0 -0.45651951880E+02 -0.60734447445E+00  0.16708880033E+03  0.17321413560E+03  0.00000000000E+00 0. -1.
         22    1    3    3    0    0  0.36588301112E+02  0.23959522732E+01  0.36948822873E+02  0.52054393448E+02  0.00000000000E+00 0.  1.
         22    1    3    3    0    0 -0.46237946428E+02  0.37569567318E+01 -0.59555303846E+02  0.75491036753E+02  0.00000000000E+00 0.  1.
</event>
<event>
 7    1  0.5736319E-006  0.1296563E+03  0.7818608E-02  0.1300834E+00
          2   -1    0    0  502    0  0.00000000000E+00  0.00000000000E+00  0.50699106770E+03  0.50699106770E+03  0.00000000000E+00 0. -1.
          1   -1    0    0  501    0 -0.00000000000E+00 -0.00000000000E+00 -0.13000580223E+04  0.13000580223E+04  0.00000000000E+00 0. -1.
         25    2    1    2    0    0 -0.53856424613E+02  0.11116820182E+03 -0.30110009041E+03  0.34863223667E+03  0.12499715370E+03 0.  0.
          2    1    1    2  501    0 -0.52484970887E+02 -0.35995078553E+02 -0.96535088866E+03  0.96744646161E+03  0.00000000000E+00 0. -1.
          1    1    1    2  502    0  0.10634139550E+03 -0.75173123271E+02  0.47338402450E+03  0.49097039168E+03  0.00000000000E+00 0. -1.
         22    1    3    3    0    0  0.28556284576E+02  0.69112269655E+02 -0.18915777027E+03  0.20340262845E+03  0.00000000000E+00 0.  1.
         22    1    3    3    0    0 -0.82412709190E+02  0.42055932169E+02 -0.11194232014E+03  0.14522960822E+03  0.00000000000E+00 0.  1.
</event>
<event>
 7    1  0.5736319E-006  0.2397748E+03  0.7818608E-02  0.1328263E+00
          2   -1    0    0  502    0  0.00000000000E+00  0.00000000000E+00  0.51144813173E+03  0.51144813173E+03  0.00000000000E+00 0. -1.
          1   -1    0    0  501    0 -0.00000000000E+00 -0.00000000000E+00 -0.51818763887E+03  0.51818763887E+03  0.00000000000E+00 0. -1.
         25    2    1    2    0    0 -0.21087689185E+03 -0.10221193296E+03  0.20414462509E+03  0.33498700108E+03  0.12499968072E+03 0.  0.
          2    1    1    2  501    0  0.20363252811E+03  0.12809519488E+03 -0.41988892340E+03  0.48392281766E+03  0.00000000000E+00 0. -1.
          1    1    1    2  502    0  0.72443637406E+01 -0.25883261921E+02  0.20900479118E+03  0.21072595186E+03  0.00000000000E+00 0. -1.
         22    1    3    3    0    0 -0.48313273535E+02 -0.12904929975E+02  0.12253718468E+03  0.13234829522E+03  0.00000000000E+00 0.  1.
         22    1    3    3    0    0 -0.16256361832E+03 -0.89307002980E+02  0.81607440406E+02  0.20263870586E+03  0.00000000000E+00 0.  1.
</event>
<event>
 7    1  0.5736319E-006  0.1022956E+03  0.7818608E-02  0.1466980E+00
          2   -1    0    0  502    0  0.00000000000E+00  0.00000000000E+00  0.14488823221E+04  0.14488823221E+04  0.00000000000E+00 0. -1.
          1   -1    0    0  501    0 -0.00000000000E+00 -0.00000000000E+00 -0.21953877190E+03  0.21953877190E+03  0.00000000000E+00 0. -1.
         25    2    1    2    0    0  0.20928660834E+02 -0.12044642929E+03  0.92326224787E+02  0.19772482189E+03  0.12500248891E+03 0.  0.
          2    1    1    2  501    0 -0.12120368181E+01  0.20831209936E+02 -0.16420100791E+03  0.16552153739E+03  0.00000000000E+00 0. -1.
          1    1    1    2  502    0 -0.19716624016E+02  0.99615219351E+02  0.13012183333E+04  0.13051747347E+04  0.00000000000E+00 0. -1.
         22    1    3    3    0    0 -0.25384521315E+02 -0.42936432367E+01  0.64741905211E+02  0.69672976002E+02  0.00000000000E+00 0.  1.
         22    1    3    3    0    0  0.46313182148E+02 -0.11615278605E+03  0.27584319576E+02  0.12805184588E+03  0.00000000000E+00 0.  1.
</event>
<event>
 7    1  0.5736319E-006  0.2729670E+02  0.7818608E-02  0.1638030E+00
          2   -1    0    0  502    0  0.00000000000E+00  0.00000000000E+00  0.13889205517E+04  0.13889205517E+04  0.00000000000E+00 0. -1.
          1   -1    0    0  501    0 -0.00000000000E+00 -0.00000000000E+00 -0.68303626028E+01  0.68303626028E+01  0.00000000000E+00 0. -1.
         25    2    1    2    0    0  0.34177286060E+02  0.15011336491E+02  0.76563830681E+03  0.77667363692E+03  0.12500597718E+03 0.  0.
          2    1    1    2  501    0 -0.25078307196E+02  0.94191644953E+01  0.19659259963E+03  0.19840940598E+03  0.00000000000E+00 0. -1.
          1    1    1    2  502    0 -0.90989788646E+01 -0.24430500986E+02  0.41985928263E+03  0.42066787138E+03  0.00000000000E+00 0. -1.
         22    1    3    3    0    0 -0.83323648886E+01 -0.42899843909E+02  0.48579119396E+03  0.48775291802E+03  0.00000000000E+00 0. -1.
         22    1    3    3    0    0  0.42509650949E+02  0.57911180399E+02  0.27984711285E+03  0.28892071890E+03  0.00000000000E+00 0. -1.
</event>
<event>
 7    1  0.5736319E-006  0.1336161E+03  0.7818608E-02  0.1295585E+00
          2   -1    0    0  502    0  0.00000000000E+00  0.00000000000E+00  0.96081097782E+03  0.96081097782E+03  0.00000000000E+00 0. -1.
          1   -1    0    0  501    0 -0.00000000000E+00 -0.00000000000E+00 -0.23143745641E+03  0.23143745641E+03  0.00000000000E+00 0. -1.
         25    2    1    2    0    0 -0.75576845194E+02 -0.42194350085E+01  0.22371638260E+03  0.26721408909E+03  0.12499874561E+03 0.  0.
          2    1    1    2  501    0  0.13679635427E+03  0.25541980891E+02 -0.18491362808E+03  0.23142749443E+03  0.00000000000E+00 0. -1.
          1    1    1    2  502    0 -0.61219509080E+02 -0.21322545882E+02  0.69057076689E+03  0.69360685070E+03  0.00000000000E+00 0. -1.
         22    1    3    3    0    0 -0.11589973525E+01  0.11528273523E+02 -0.13681020398E+02  0.17928041846E+02  0.00000000000E+00 0. -1.
         22    1    3    3    0    0 -0.74417847842E+02 -0.15747708532E+02  0.23739740300E+03  0.24928604725E+03  0.00000000000E+00 0. -1.
</event>
<event>
 7    1  0.5736319E-006  0.9161723E+02  0.7818608E-02  0.1308595E+00
          2   -1    0    0  502    0  0.00000000000E+00  0.00000000000E+00  0.61391424051E+03  0.61391424051E+03  0.00000000000E+00 0. -1.
          1   -1    0    0  501    0 -0.00000000000E+00 -0.00000000000E+00 -0.10708659930E+04  0.10708659930E+04  0.00000000000E+00 0. -1.
         25    2    1    2    0    0 -0.80591294519E+01  0.89788157543E+01 -0.67522948964E+03  0.68680757154E+03  0.12499683173E+03 0.  0.
          2    1    1    2  501    0 -0.83820685893E+02 -0.34652941323E+01 -0.38178397824E+03  0.39089246819E+03  0.00000000000E+00 0. -1.
          1    1    1    2  502    0  0.91879815345E+02 -0.55135216220E+01  0.60006171539E+03  0.60708019377E+03  0.00000000000E+00 0. -1.
         22    1    3    3    0    0  0.19218830044E+02  0.28369308813E+01 -0.11677263188E+02  0.22666496876E+02  0.00000000000E+00 0. -1.
         22    1    3    3    0    0 -0.27277959496E+02  0.61418848730E+01 -0.66355222646E+03  0.66414107467E+03  0.00000000000E+00 0. -1.
</event>
<event>
 7    1  0.5736319E-006  0.7383544E+03  0.7818608E-02  0.1144486E+00
          2   -1    0    0  502    0  0.00000000000E+00  0.00000000000E+00  0.16786243561E+04  0.16786243561E+04  0.00000000000E+00 0. -1.
          1   -1    0    0  501    0 -0.00000000000E+00 -0.00000000000E+00 -0.83694235958E+03  0.83694235958E+03  0.00000000000E+00 0. -1.
         25    2    1    2    0    0 -0.55763679563E+03  0.50908521281E+03 -0.14226150437E+03  0.77845260945E+03  0.12499431902E+03 0.  0.
          2    1    1    2  501    0  0.50076425357E+03 -0.51865324582E+03 -0.29961409614E+02  0.72157031059E+03  0.00000000000E+00 0. -1.
          1    1    1    2  502    0  0.56872542067E+02  0.95680330094E+01  0.10139049105E+04  0.10155437956E+04  0.00000000000E+00 0. -1.
         22    1    3    3    0    0 -0.26363436894E+03  0.27259527824E+03 -0.13017991532E+03  0.40094647592E+03  0.00000000000E+00 0.  1.
         22    1    3    3    0    0 -0.29400242670E+03  0.23648993457E+03 -0.12081589054E+02  0.37750613353E+03  0.00000000000E+00 0.  1.
</event>
<event>
 7    1  0.5736319E-006  0.9189555E+02  0.7818608E-02  0.1321202E+00
          2   -1    0    0  502    0  0.00000000000E+00  0.00000000000E+00  0.13410793094E+03  0.13410793094E+03  0.00000000000E+00 0. -1.
          1   -1    0    0  501    0 -0.00000000000E+00 -0.00000000000E+00 -0.17273915514E+04  0.17273915514E+04  0.00000000000E+00 0. -1.
         25    2    1    2    0    0 -0.10017717893E+03 -0.25485953212E+02 -0.42153406950E+03  0.45166400763E+03  0.12499761220E+03 0.  0.
          2    1    1    2  501    0  0.20061288520E+02  0.71916018249E+02 -0.12715235258E+04  0.12737136435E+04  0.00000000000E+00 0. -1.
          1    1    1    2  502    0  0.80115890410E+02 -0.46430065037E+02  0.99773974927E+02  0.13612183112E+03  0.00000000000E+00 0. -1.
         22    1    3    3    0    0 -0.87872853647E+02 -0.70258513026E+02 -0.33605280364E+03  0.35438592508E+03  0.00000000000E+00 0. -1.
         22    1    3    3    0    0 -0.12304325283E+02  0.44772559814E+02 -0.85481265854E+02  0.97278082551E+02  0.00000000000E+00 0. -1.
</event>
<event>
 7    1  0.5736319E-006  0.8945917E+02  0.7818608E-02  0.1418839E+00
          2   -1    0    0  502    0  0.00000000000E+00  0.00000000000E+00  0.11063865955E+04  0.11063865955E+04  0.00000000000E+00 0. -1.
          1   -1    0    0  501    0 -0.00000000000E+00 -0.00000000000E+00 -0.15649716780E+04  0.15649716780E+04  0.00000000000E+00 0. -1.
         25    2    1    2    0    0 -0.28145845068E+02 -0.60476177629E+02  0.11646679312E+03  0.18340657017E+03  0.12499559763E+03 0.  0.
          2    1    1    2  501    0  0.96398942588E+01  0.89169861161E+02 -0.15298832672E+04  0.15325100336E+04  0.00000000000E+00 0. -1.
          1    1    1    2  502    0  0.18505950810E+02 -0.28693683532E+02  0.95483139164E+03  0.95544166968E+03  0.00000000000E+00 0. -1.
         22    1    3    3    0    0 -0.62852649282E+02 -0.15155036133E+02  0.10775278401E+03  0.12566142250E+03  0.00000000000E+00 0.  1.
         22    1    3    3    0    0  0.34706804213E+02 -0.45321141496E+02  0.87140091148E+01  0.57745147676E+02  0.00000000000E+00 0.  1.
</event>
<event>
 7    1  0.5736319E-006  0.7221404E+02  0.7818608E-02  0.1379288E+00
          2   -1    0    0  502    0  0.00000000000E+00  0.00000000000E+00  0.80378395848E+03  0.80378395848E+03  0.00000000000E+00 0. -1.
          1   -1    0    0  501    0 -0.00000000000E+00 -0.00000000000E+00 -0.12845509083E+04  0.12845509083E+04  0.00000000000E+00 0. -1.
         25    2    1    2    0    0 -0.12531913703E+03 -0.75801992867E+01 -0.28827327273E+02  0.17949580949E+03  0.12500154119E+03 0.  0.
          2    1    1    2  501    0  0.70594774757E+02 -0.11271612951E+02 -0.11781544060E+04  0.11803213443E+04  0.00000000000E+00 0. -1.
          1    1    1    2  502    0  0.54724362272E+02  0.18851812238E+02  0.72621478337E+03  0.72851771306E+03  0.00000000000E+00 0. -1.
         22    1    3    3    0    0 -0.81904028235E+02 -0.24962032845E+02  0.41412159485E+02  0.95112248833E+02  0.00000000000E+00 0.  1.
         22    1    3    3    0    0 -0.43415108794E+02  0.17381833559E+02 -0.70239486758E+02  0.84383560659E+02  0.00000000000E+00 0.  1.
</event>
<event>
 7    1  0.5736319E-006  0.1691134E+03  0.7818608E-02  0.1242028E+00
          2   -1    0    0  502    0  0.00000000000E+00  0.00000000000E+00  0.47871453474E+03  0.47871453474E+03  0.00000000000E+00 0. -1.
          1   -1    0    0  501    0 -0.00000000000E+00 -0.00000000000E+00 -0.20365536934E+03  0.20365536934E+03  0.00000000000E+00 0. -1.
         25    2    1    2    0    0  0.12790990646E+03  0.60860322711E+02  0.10810732463E+03  0.21766178071E+03  0.12499813636E+03 0.  0.
          2    1    1    2  501    0 -0.79752032839E+01  0.85705468840E+02 -0.10345345792E+03  0.13457952746E+03  0.00000000000E+00 0. -1.
          1    1    1    2  502    0 -0.11993470317E+03 -0.14656579155E+03  0.27040529869E+03  0.33012859591E+03  0.00000000000E+00 0. -1.
         22    1    3    3    0    0  0.59040727712E+01  0.61945425174E+02  0.60207678040E+02  0.86585554628E+02  0.00000000000E+00 0. -1.
         22    1    3    3    0    0  0.12200583369E+03 -0.10851024634E+01  0.47899646593E+02  0.13107622608E+03  0.00000000000E+00 0. -1.
</event>
<event>
 7    1  0.5736319E-006  0.6451827E+02  0.7818608E-02  0.1404504E+00
          2   -1    0    0  502    0  0.00000000000E+00  0.00000000000E+00  0.66096633407E+03  0.66096633407E+03  0.00000000000E+00 0. -1.
          1   -1    0    0  501    0 -0.00000000000E+00 -0.00000000000E+00 -0.14153841258E+03  0.14153841258E+03  0.00000000000E+00 0. -1.
         25    2    1    2    0    0  0.77861356591E+02 -0.82658888680E+02  0.38524792768E+03  0.42063928599E+03  0.12500624145E+03 0.  0.
          2    1    1    2  501    0 -0.52066729515E+02  0.36437786073E+02 -0.11269564704E+03  0.12937915380E+03  0.00000000000E+00 0. -1.
          1    1    1    2  502    0 -0.25794627076E+02  0.46221102606E+02  0.24687564085E+03  0.25248630687E+03  0.00000000000E+00 0. -1.
         22    1    3    3    0    0  0.54087947998E+02 -0.32688746994E+02  0.34856466003E+03  0.35424762881E+03  0.00000000000E+00 0. -1.
         22    1    3    3    0    0  0.23773408593E+02 -0.49970141685E+02  0.36683267652E+02  0.66391657170E+02  0.00000000000E+00 0. -1.
</event>
<event>
 7    1  0.5736319E-006  0.1356867E+03  0.7818608E-02  0.1254975E+00
          2   -1    0    0  502    0  0.00000000000E+00  0.00000000000E+00  0.38065099533E+03  0.38065099533E+03  0.00000000000E+00 0. -1.
          1   -1    0    0  501    0 -0.00000000000E+00 -0.00000000000E+00 -0.12571940634E+04  0.12571940634E+04  0.00000000000E+00 0. -1.
         25    2    1    2    0    0  0.59297865919E+02 -0.10697268822E+03  0.14709941667E+03  0.22852382425E+03  0.12500202773E+03 0.  0.
          2    1    1    2  501    0 -0.12934785739E+03  0.43938399402E+02 -0.12008608127E+04  0.12086058674E+04  0.00000000000E+00 0. -1.
          1    1    1    2  502    0  0.70049991467E+02  0.63034288814E+02  0.17721832791E+03  0.20071536717E+03  0.00000000000E+00 0. -1.
         22    1    3    3    0    0  0.84121656238E+02 -0.23094644920E+02  0.68311316897E+02  0.11079824768E+03  0.00000000000E+00 0.  1.
         22    1    3    3    0    0 -0.24823790319E+02 -0.83878043296E+02  0.78788099770E+02  0.11772557657E+03  0.00000000000E+00 0.  1.
</event>
<event>
 7    1  0.5736319E-006  0.3409170E+03  0.7818608E-02  0.1312586E+00
          2   -1    0    0  502    0  0.00000000000E+00  0.00000000000E+00  0.20700537089E+04  0.20700537089E+04  0.00000000000E+00 0. -1.
          1   -1    0    0  501    0 -0.00000000000E+00 -0.00000000000E+00 -0.14497929689E+04  0.14497929689E+04  0.00000000000E+00 0. -1.
         25    2    1    2    0    0 -0.87547275923E+02  0.34175464848E+03 -0.28146818983E+03  0.46829851209E+03  0.12497355424E+03 0.  0.
          2    1    1    2  501    0 -0.13875232906E+02 -0.16741461730E+02 -0.10601360416E+04  0.10603590077E+04  0.00000000000E+00 0. -1.
          1    1    1    2  502    0  0.10142250883E+03 -0.32501318675E+03  0.19618649714E+04  0.19911891580E+04  0.00000000000E+00 0. -1.
         22    1    3    3    0    0 -0.28670286690E+02  0.15547499099E+03 -0.50889809066E+02  0.16608501085E+03  0.00000000000E+00 0. -1.
         22    1    3    3    0    0 -0.58876989234E+02  0.18627965750E+03 -0.23057838077E+03  0.30221350125E+03  0.00000000000E+00 0. -1.
</event>
<event>
 7    1  0.5736319E-006  0.1781870E+03  0.7818608E-02  0.1206184E+00
          2   -1    0    0  502    0  0.00000000000E+00  0.00000000000E+00  0.57774134197E+03  0.57774134197E+03  0.00000000000E+00 0. -1.
          1   -1    0    0  501    0 -0.00000000000E+00 -0.00000000000E+00 -0.15026965035E+04  0.15026965035E+04  0.00000000000E+00 0. -1.
         25    2    1    2    0    0  0.21839441326E+03 -0.15030852518E+03 -0.10016743929E+04  0.10436803858E+04  0.12501354217E+03 0.  0.
          2    1    1    2  501    0 -0.11865905521E+03  0.38194771354E+01 -0.45815609095E+03  0.47328803436E+03  0.00000000000E+00 0. -1.
          1    1    1    2  502    0 -0.99735358052E+02  0.14648904804E+03  0.53487532235E+03  0.56346942535E+03  0.00000000000E+00 0. -1.
         22    1    3    3    0    0  0.12449725647E+03 -0.17417298850E+02 -0.34638540283E+03  0.36849121626E+03  0.00000000000E+00 0. -1.
         22    1    3    3    0    0  0.93897156783E+02 -0.13289122633E+03 -0.65528899012E+03  0.67518916953E+03  0.00000000000E+00 0. -1.
</event>
<event>
 7    1  0.5736319E-006  0.5694690E+02  0.7818608E-02  0.1477678E+00
          2   -1    0    0  502    0  0.00000000000E+00  0.00000000000E+00  0.64141832367E+03  0.64141832367E+03  0.00000000000E+00 0. -1.
          1   -1    0    0  501    0 -0.00000000000E+00 -0.00000000000E+00 -0.10810724139E+04  0.10810724139E+04  0.00000000000E+00 0. -1.
         25    2    1    2    0    0 -0.39920732587E+02 -0.17771607970E+01 -0.80188885981E+03  0.81255605670E+03  0.12499911443E+03 0.  0.
          2    1    1    2  501    0  0.70731195286E+02  0.17797819968E+02 -0.26850747783E+03  0.27823718305E+03  0.00000000000E+00 0. -1.
          1    1    1    2  502    0 -0.30810462698E+02 -0.16020659171E+02  0.63074224739E+03  0.63169749784E+03  0.00000000000E+00 0. -1.
         22    1    3    3    0    0 -0.61501368648E+02  0.24678700640E+02 -0.72967668920E+03  0.73267968948E+03  0.00000000000E+00 0.  1.
         22    1    3    3    0    0  0.21580636061E+02 -0.26455861437E+02 -0.72212170612E+02  0.79876367228E+02  0.00000000000E+00 0.  1.
</event>
<event>
 7    1  0.5736319E-006  0.3673180E+02  0.7818608E-02  0.1599992E+00
          2   -1    0    0  502    0  0.00000000000E+00  0.00000000000E+00  0.77876617539E+03  0.77876617539E+03  0.00000000000E+00 0. -1.
          1   -1    0    0  501    0 -0.00000000000E+00 -0.00000000000E+00 -0.39416085970E+03  0.39416085970E+03  0.00000000000E+00 0. -1.
         25    2    1    2    0    0  0.29514819975E+02  0.62487720522E+01 -0.20026343103E+03  0.23799262119E+03  0.12499949673E+03 0.  0.
          2    1    1    2  501    0 -0.73528763569E+01  0.23079613933E+02 -0.17374760581E+03  0.17542794502E+03  0.00000000000E+00 0. -1.
          1    1    1    2  502    0 -0.22161943618E+02 -0.29328385985E+02  0.75861635253E+03  0.75950646889E+03  0.00000000000E+00 0. -1.
         22    1    3    3    0    0  0.67312340671E+02 -0.78815058794E+01 -0.55159035088E+02  0.87381854486E+02  0.00000000000E+00 0.  1.
         22    1    3    3    0    0 -0.37797520696E+02  0.14130277932E+02 -0.14510439594E+03  0.15061076670E+03  0.00000000000E+00 0.  1.
</event>
<event>
 7    1  0.5736319E-006  0.2289103E+03  0.7818608E-02  0.1236578E+00
          2   -1    0    0  502    0  0.00000000000E+00  0.00000000000E+00  0.80318857611E+03  0.80318857611E+03  0.00000000000E+00 0. -1.
          1   -1    0    0  501    0 -0.00000000000E+00 -0.00000000000E+00 -0.12580087592E+04  0.12580087592E+04  0.00000000000E+00 0. -1.
         25    2    1    2    0    0  0.69114427256E+02 -0.20177358771E+03 -0.25741620585E+03  0.35689635444E+03  0.12499007970E+03 0.  0.
          2    1    1    2  501    0 -0.13568103586E+03  0.19247035421E+03 -0.93472025600E+03  0.96392745459E+03  0.00000000000E+00 0. -1.
          1    1    1    2  502    0  0.66566608605E+02  0.93032334993E+01  0.73731627875E+03  0.74037352629E+03  0.00000000000E+00 0. -1.
         22    1    3    3    0    0  0.13907885092E+02 -0.18985973228E+03 -0.20643453638E+03  0.28081197449E+03  0.00000000000E+00 0. -1.
         22    1    3    3    0    0  0.55206542164E+02 -0.11913855427E+02 -0.50981669473E+02  0.76084379942E+02  0.00000000000E+00 0. -1.
</event>
<event>
 7    1  0.5736319E-006  0.7587182E+02  0.7818608E-02  0.1514183E+00
          2   -1    0    0  502    0  0.00000000000E+00  0.00000000000E+00  0.19238055872E+04  0.19238055872E+04  0.00000000000E+00 0. -1.
          1   -1    0    0  501    0 -0.00000000000E+00 -0.00000000000E+00 -0.89968865789E+03  0.89968865789E+03  0.00000000000E+00 0. -1.
         25    2    1    2    0    0 -0.90772421519E+02 -0.14868837760E+02  0.76988857787E+02  0.17324741108E+03  0.12500666533E+03 0.  0.
          2    1    1    2  501    0  0.15165219169E+02  0.13423836321E+02 -0.85064397341E+03  0.85088504086E+03  0.00000000000E+00 0. -1.
          1    1    1    2  502    0  0.75607202351E+02  0.14450014395E+01  0.17977720450E+04  0.17993617932E+04  0.00000000000E+00 0. -1.
         22    1    3    3    0    0 -0.95211981895E+02  0.27829887418E+02  0.18840378489E+02  0.10096922299E+03  0.00000000000E+00 0.  1.
         22    1    3    3    0    0  0.44395603752E+01 -0.42698725178E+02  0.58148479298E+02  0.72278188085E+02  0.00000000000E+00 0.  1.
</event>
<event>
 7    1  0.5736319E-006  0.9972427E+02  0.7818608E-02  0.1459128E+00
          2   -1    0    0  502    0  0.00000000000E+00  0.00000000000E+00  0.18311534295E+03  0.18311534295E+03  0.00000000000E+00 0. -1.
          1   -1    0    0  501    0 -0.00000000000E+00 -0.00000000000E+00 -0.12970251090E+04  0.12970251090E+04  0.00000000000E+00 0. -1.
         25    2    1    2    0    0  0.29121062509E+02  0.77376571135E+02 -0.29454455084E+03  0.33047910365E+03  0.12499910190E+03 0.  0.
          2    1    1    2  501    0  0.20162368574E+02  0.10331284245E+02 -0.96904670039E+03  0.96931148971E+03  0.00000000000E+00 0. -1.
          1    1    1    2  502    0 -0.49283431083E+02 -0.87707855381E+02  0.14968148520E+03  0.18034985857E+03  0.00000000000E+00 0. -1.
         22    1    3    3    0    0 -0.16408516187E+02 -0.60094315331E+01  0.33577676110E+01  0.17794023551E+02  0.00000000000E+00 0.  1.
         22    1    3    3    0    0  0.45529578696E+02  0.83386002669E+02 -0.29790231845E+03  0.31268508009E+03  0.00000000000E+00 0.  1.
</event>
<event>
 7    1  0.5736319E-006  0.4269638E+02  0.7818608E-02  0.1538670E+00
          2   -1    0    0  502    0  0.00000000000E+00  0.00000000000E+00  0.64647428469E+03  0.64647428469E+03  0.00000000000E+00 0. -1.
          1   -1    0    0  501    0 -0.00000000000E+00 -0.00000000000E+00 -0.10157235414E+04  0.10157235414E+04  0.00000000000E+00 0. -1.
         25    2    1    2    0    0 -0.75821309159E+01 -0.32708892604E+02  0.12754511360E+03  0.18171253614E+03  0.12499731766E+03 0.  0.
          2    1    1    2  501    0  0.30306014089E+02 -0.42108196084E+01 -0.98744710477E+03  0.98792103440E+03  0.00000000000E+00 0. -1.
          1    1    1    2  502    0 -0.22723883173E+02  0.36919712212E+02  0.49065273445E+03  0.49256425555E+03  0.00000000000E+00 0. -1.
         22    1    3    3    0    0  0.47790145188E+02 -0.45635420722E+02  0.96419677877E+02  0.11688987930E+03  0.00000000000E+00 0.  1.
         22    1    3    3    0    0 -0.55372276104E+02  0.12926528118E+02  0.31125435724E+02  0.64822656835E+02  0.00000000000E+00 0.  1.
</event>
<event>
 7    1  0.5736319E-006  0.1455123E+03  0.7818608E-02  0.1307891E+00
          2   -1    0    0  502    0  0.00000000000E+00  0.00000000000E+00  0.60368265265E+03  0.60368265265E+03  0.00000000000E+00 0. -1.
          1   -1    0    0  501    0 -0.00000000000E+00 -0.00000000000E+00 -0.73602609011E+03  0.73602609011E+03  0.00000000000E+00 0. -1.
         25    2    1    2    0    0 -0.16240888072E+03  0.56922085622E+02 -0.13540297620E+03  0.25214278029E+03  0.12500098928E+03 0.  0.
          2    1    1    2  501    0  0.45312601137E+02  0.27797459994E+02 -0.53132692900E+03  0.53397962142E+03  0.00000000000E+00 0. -1.
          1    1    1    2  502    0  0.11709627958E+03 -0.84719545616E+02  0.53438646774E+03  0.55358634105E+03  0.00000000000E+00 0. -1.
         22    1    3    3    0    0 -0.12335626573E+03  0.41130038835E+02 -0.22928304837E+02  0.13203846239E+03  0.00000000000E+00 0. -1.
         22    1    3    3    0    0 -0.39052614995E+02  0.15792046787E+02 -0.11247467136E+03  0.12010431789E+03  0.00000000000E+00 0. -1.
</event>
<event>
 7    1  0.5736319E-006  0.1635951E+03  0.7818608E-02  0.1365726E+00
          2   -1    0    0  502    0  0.00000000000E+00  0.00000000000E+00  0.76390195452E+03  0.76390195452E+03  0.00000000000E+00 0. -1.
          1   -1    0    0  501    0 -0.00000000000E+00 -0.00000000000E+00 -0.21882891619E+04  0.21882891619E+04  0.00000000000E+00 0. -1.
         25    2    1    2    0    0  0.18011759226E+03 -0.64196671397E+02  0.75832349060E+02  0.24070684439E+03  0.12500272042E+03 0.  0.
          2    1    1    2  501    0 -0.15204389397E+03  0.58877185007E+02 -0.21023566736E+04  0.21086695928E+04  0.00000000000E+00 0. -1.
          1    1    1    2  502    0 -0.28073698285E+02  0.53194863895E+01  0.60213711723E+03  0.60281467916E+03  0.00000000000E+00 0. -1.
         22    1    3    3    0    0  0.75216139467E+02  0.23962407831E+02  0.66750610223E+02  0.10337943988E+03  0.00000000000E+00 0. -1.
         22    1    3    3    0    0  0.10490145279E+03 -0.88159079227E+02  0.90817388363E+01  0.13732740450E+03  0.00000000000E+00 0. -1.
</event>
<event>
 7    1  0.5736319E-006  0.5495621E+02  0.7818608E-02  0.1429556E+00
          2   -1    0    0  502    0  0.00000000000E+00  0.00000000000E+00  0.76713337581E+02  0.76713337581E+02  0.00000000000E+00 0. -1.
          1   -1    0    0  501    0 -0.00000000000E+00 -0.00000000000E+00 -0.16103877227E+04  0.16103877227E+04  0.00000000000E+00 0. -1.
         25    2    1    2    0    0  0.82020868403E+01  0.14107981428E+02 -0.21591613492E+03  0.25000912891E+03  0.12497390867E+03 0.  0.
          2    1    1    2  501    0  0.49547285911E+02 -0.12937570510E+02 -0.13628515297E+04  0.13638132593E+04  0.00000000000E+00 0. -1.
          1    1    1    2  502    0 -0.57749372751E+02 -0.11704109181E+01  0.45093279536E+02  0.73278672028E+02  0.00000000000E+00 0. -1.
         22    1    3    3    0    0 -0.35237731229E+02 -0.41998458717E+02 -0.10203912994E+03  0.11583415850E+03  0.00000000000E+00 0. -1.
         22    1    3    3    0    0  0.43439818069E+02  0.56106440146E+02 -0.11387700498E+03  0.13417497040E+03  0.00000000000E+00 0. -1.
</event>
<event>
 7    1  0.5736319E-006  0.7450813E+02  0.7818608E-02  0.1428702E+00
          2   -1    0    0  502    0  0.00000000000E+00  0.00000000000E+00  0.26805795692E+03  0.26805795692E+03  0.00000000000E+00 0. -1.
          1   -1    0    0  501    0 -0.00000000000E+00 -0.00000000000E+00 -0.23015617405E+03  0.23015617405E+03  0.00000000000E+00 0. -1.
         25    2    1    2    0    0  0.50774566221E+02  0.92309285003E+02  0.10821039053E+02  0.16383217204E+03  0.12499930015E+03 0.  0.
          2    1    1    2  501    0 -0.46555023914E+02 -0.54527991869E+02 -0.14307305890E+03  0.16003303513E+03  0.00000000000E+00 0. -1.
          1    1    1    2  502    0 -0.42195423073E+01 -0.37781293134E+02  0.17015380272E+03  0.17434892379E+03  0.00000000000E+00 0. -1.
         22    1    3    3    0    0 -0.63651123092E+01 -0.20120800950E+02 -0.25010064254E+02  0.32724067589E+02  0.00000000000E+00 0.  1.
         22    1    3    3    0    0  0.57139678530E+02  0.11243008595E+03  0.35831103307E+02  0.13110810446E+03  0.00000000000E+00 0.  1.
</event>
<event>
 7    1  0.5736319E-006  0.1439422E+03  0.7818608E-02  0.1361029E+00
          2   -1    0    0  502    0  0.00000000000E+00  0.00000000000E+00  0.16691331397E+04  0.16691331397E+04  0.00000000000E+00 0. -1.
          1   -1    0    0  501    0 -0.00000000000E+00 -0.00000000000E+00 -0.20129716391E+03  0.20129716391E+03  0.00000000000E+00 0. -1.
         25    2    1    2    0    0  0.16916858058E+03 -0.45272883073E+02  0.33832196669E+03  0.40094207058E+03  0.12500059287E+03 0.  0.
          2    1    1    2  501    0 -0.13726624625E+03  0.34182627126E+02 -0.14029423341E+03  0.19923088688E+03  0.00000000000E+00 0. -1.
          1    1    1    2  502    0 -0.31902334323E+02  0.11090255947E+02  0.12698082425E+04  0.12702573461E+04  0.00000000000E+00 0. -1.
         22    1    3    3    0    0 -0.85754214797E+01 -0.11066577741E+02 -0.32518682179E+01  0.14372948318E+02  0.00000000000E+00 0. -1.
         22    1    3    3    0    0  0.17774400206E+03 -0.34206305332E+02  0.34157383491E+03  0.38656912226E+03  0.00000000000E+00 0. -1.
</event>
<event>
 7    1  0.5736319E-006  0.8317331E+02  0.7818608E-02  0.1329551E+00
          2   -1    0    0  502    0  0.00000000000E+00  0.00000000000E+00  0.74376437112E+03  0.74376437112E+03  0.00000000000E+00 0. -1.
          1   -1    0    0  501    0 -0.00000000000E+00 -0.00000000000E+00 -0.39457643582E+03  0.39457643582E+03  0.00000000000E+00 0. -1.
         25    2    1    2    0    0 -0.44267147384E+02 -0.10108428213E+02  0.21822516342E+03  0.25555679239E+03  0.12500116611E+03 0.  0.
          2    1    1    2  501    0  0.22339404916E+01 -0.76577578932E+02 -0.36734518608E+03  0.37524871994E+03  0.00000000000E+00 0. -1.
          1    1    1    2  502    0  0.42033206892E+02  0.86686007146E+02  0.49830795796E+03  0.50753529462E+03  0.00000000000E+00 0. -1.
         22    1    3    3    0    0  0.46694866805E+01 -0.47289722675E+02  0.26905597896E+02  0.54607995520E+02  0.00000000000E+00 0. -1.
         22    1    3    3    0    0 -0.48936634064E+02  0.37181294462E+02  0.19131956552E+03  0.20094879687E+03  0.00000000000E+00 0. -1.
</event>
<event>
 7    1  0.5736319E-006  0.1135570E+03  0.7818608E-02  0.1292829E+00
          2   -1    0    0  502    0  0.00000000000E+00  0.00000000000E+00  0.18287129453E+03  0.18287129453E+03  0.00000000000E+00 0. -1.
          1   -1    0    0  501    0 -0.00000000000E+00 -0.00000000000E+00 -0.69209610211E+03  0.69209610211E+03  0.00000000000E+00 0. -1.
         25    2    1    2    0    0  0.17838189163E+02 -0.15370047118E+03 -0.14744110223E+03  0.24760033694E+03  0.12500004957E+03 0.  0.
          2    1    1    2  501    0  0.41259753770E+02  0.10239906557E+03 -0.47615416249E+03  0.48878494491E+03  0.00000000000E+00 0. -1.
          1    1    1    2  502    0 -0.59097942933E+02  0.51301405611E+02  0.11437045714E+03  0.13858211480E+03  0.00000000000E+00 0. -1.
         22    1    3    3    0    0 -0.45014334494E+02 -0.65896637587E+02 -0.10428025193E+03  0.13131271110E+03  0.00000000000E+00 0. -1.
         22    1    3    3    0    0  0.62852523657E+02 -0.87803833595E+02 -0.43160850300E+02  0.11628762584E+03  0.00000000000E+00 0. -1.
</event>
<event>
 7    1  0.5736319E-006  0.5905795E+02  0.7818608E-02  0.1509353E+00
          2   -1    0    0  502    0  0.00000000000E+00  0.00000000000E+00  0.11440465874E+04  0.11440465874E+04  0.00000000000E+00 0. -1.
          1   -1    0    0  501    0 -0.00000000000E+00 -0.00000000000E+00 -0.10277385996E+03  0.10277385996E+03  0.00000000000E+00 0. -1.
         25    2    1    2    0    0 -0.68149508606E+02  0.22417786027E+02  0.19553166824E+03  0.24290783684E+03  0.12499868503E+03 0.  0.
          2    1    1    2  501    0  0.94783742238E+01 -0.25156454950E+02 -0.75839053298E+02  0.80462716886E+02  0.00000000000E+00 0. -1.
          1    1    1    2  502    0  0.58671134382E+02  0.27386689226E+01  0.92158011248E+03  0.92344989362E+03  0.00000000000E+00 0. -1.
         22    1    3    3    0    0 -0.34966618747E+02  0.38637790358E+02  0.91578642125E+01  0.52909448563E+02  0.00000000000E+00 0.  1.
         22    1    3    3    0    0 -0.33182889859E+02 -0.16220004331E+02  0.18637380402E+03  0.18999838827E+03  0.00000000000E+00 0.  1.
</event>
<event>
 7    1  0.5736319E-006  0.9076735E+02  0.7818608E-02  0.1460153E+00
          2   -1    0    0  502    0  0.00000000000E+00  0.00000000000E+00  0.14082655853E+04  0.14082655853E+04  0.00000000000E+00 0. -1.
          1   -1    0    0  501    0 -0.00000000000E+00 -0.00000000000E+00 -0.10792080747E+04  0.10792080747E+04  0.00000000000E+00 0. -1.
         25    2    1    2    0    0  0.24146824832E+02 -0.87707442744E+02  0.29530903366E+02  0.15738525281E+03  0.12498951510E+03 0.  0.
          2    1    1    2  501    0 -0.24506382355E+02 -0.31347355325E+01 -0.10135610541E+04  0.10138621207E+04  0.00000000000E+00 0. -1.
          1    1    1    2  502    0  0.35955752245E+00  0.90842178277E+02  0.13130876614E+04  0.13162262865E+04  0.00000000000E+00 0. -1.
         22    1    3    3    0    0  0.53520579377E+02 -0.10087061180E+03  0.43634387873E+02  0.12224276071E+03  0.00000000000E+00 0. -1.
         22    1    3    3    0    0 -0.29373754545E+02  0.13163169053E+02 -0.14103484507E+02  0.35142492098E+02  0.00000000000E+00 0. -1.
</event>
<event>
 7    1  0.5736319E-006  0.8369439E+02  0.7818608E-02  0.1492307E+00
          2   -1    0    0  502    0  0.00000000000E+00  0.00000000000E+00  0.59490931152E+02  0.59490931152E+02  0.00000000000E+00 0. -1.
          1   -1    0    0  501    0 -0.00000000000E+00 -0.00000000000E+00 -0.12934871708E+04  0.12934871708E+04  0.00000000000E+00 0. -1.
         25    2    1    2    0    0  0.18427689080E+02 -0.62518065007E+02 -0.27561741162E+03  0.30957688404E+03  0.12499920547E+03 0.  0.
          2    1    1    2  501    0  0.51431546325E+01 -0.20694459469E+02 -0.95666004716E+03  0.95689767401E+03  0.00000000000E+00 0. -1.
          1    1    1    2  502    0 -0.23570843713E+02  0.83212524476E+02 -0.17187808881E+01  0.86503543920E+02  0.00000000000E+00 0. -1.
         22    1    3    3    0    0  0.31263870459E+01 -0.79360061240E+02 -0.27560676822E+03  0.28682204292E+03  0.00000000000E+00 0.  1.
         22    1    3    3    0    0  0.15301302034E+02  0.16841996233E+02 -0.10643396191E-01  0.22754841119E+02  0.00000000000E+00 0.  1.
</event>
<event>
 7    1  0.5736319E-006  0.8451639E+02  0.7818608E-02  0.1460069E+00
          2   -1    0    0  502    0  0.00000000000E+00  0.00000000000E+00  0.33890281513E+03  0.33890281513E+03  0.00000000000E+00 0. -1.
          1   -1    0    0  501    0 -0.00000000000E+00 -0.00000000000E+00 -0.22770189291E+03  0.22770189291E+03  0.00000000000E+00 0. -1.
         25    2    1    2    0    0 -0.68963645235E+02  0.77089937400E+02  0.62507798590E+02  0.17386727275E+03  0.12499504324E+03 0.  0.
          2    1    1    2  501    0  0.43131924576E+02 -0.70957941270E+02 -0.16111553028E+03  0.18125563838E+03  0.00000000000E+00 0. -1.
          1    1    1    2  502    0  0.25831720659E+02 -0.61319961299E+01  0.20980865391E+03  0.21148179691E+03  0.00000000000E+00 0. -1.
         22    1    3    3    0    0 -0.28643976717E+02 -0.14712897261E+02  0.66110214532E+02  0.73535754660E+02  0.00000000000E+00 0.  1.
         22    1    3    3    0    0 -0.40319668519E+02  0.91802834660E+02 -0.36024159421E+01  0.10033151809E+03  0.00000000000E+00 0.  1.
</event>
<event>
 7    1  0.5736319E-006  0.1046581E+03  0.7818608E-02  0.1314228E+00
          2   -1    0    0  502    0  0.00000000000E+00  0.00000000000E+00  0.12437286184E+03  0.12437286184E+03  0.00000000000E+00 0. -1.
          1   -1    0    0  501    0 -0.00000000000E+00 -0.00000000000E+00 -0.88224268305E+03  0.88224268305E+03  0.00000000000E+00 0. -1.
         25    2    1    2    0    0 -0.24471257694E+02 -0.69296502581E+02 -0.59508522649E+03  0.61249785918E+03  0.12500541187E+03 0.  0.
          2    1    1    2  501    0 -0.67943841170E+02  0.15932933629E+02 -0.24795029578E+03  0.25758410880E+03  0.00000000000E+00 0. -1.
          1    1    1    2  502    0  0.92415098864E+02  0.53363568952E+02  0.85165701054E+02  0.13653357692E+03  0.00000000000E+00 0. -1.
         22    1    3    3    0    0  0.11923143262E+02 -0.82634577619E+02 -0.53158898652E+03  0.53810545932E+03  0.00000000000E+00 0. -1.
         22    1    3    3    0    0 -0.36394400957E+02  0.13338075038E+02 -0.63496239963E+02  0.74392399855E+02  0.00000000000E+00 0. -1.
</event>
<event>
 7    1  0.5736319E-006  0.2018706E+03  0.7818608E-02  0.1242375E+00
          2   -1    0    0  502    0  0.00000000000E+00  0.00000000000E+00  0.22936948925E+03  0.22936948925E+03  0.00000000000E+00 0. -1.
          1   -1    0    0  501    0 -0.00000000000E+00 -0.00000000000E+00 -0.81694644383E+03  0.81694644383E+03  0.00000000000E+00 0. -1.
         25    2    1    2    0    0  0.13750361838E+03 -0.70041691488E+02  0.77668382053E+01  0.19874425375E+03  0.12500348400E+03 0.  0.
          2    1    1    2  501    0 -0.15674225618E+03  0.13927408874E+03 -0.69430438954E+03  0.72527511469E+03  0.00000000000E+00 0. -1.
          1    1    1    2  502    0  0.19238637806E+02 -0.69232397247E+02  0.98960596744E+02  0.12229656463E+03  0.00000000000E+00 0. -1.
         22    1    3    3    0    0  0.11143246176E+03 -0.90825319712E+02 -0.31564244979E+02  0.14718265454E+03  0.00000000000E+00 0.  1.
         22    1    3    3    0    0  0.26071156611E+02  0.20783628224E+02  0.39331083184E+02  0.51561599216E+02  0.00000000000E+00 0.  1.
</event>
<event>
 7    1  0.5736319E-006  0.2556054E+03  0.7818608E-02  0.1198644E+00
          2   -1    0    0  502    0  0.00000000000E+00  0.00000000000E+00  0.26995216260E+03  0.26995216260E+03  0.00000000000E+00 0. -1.
          1   -1    0    0  501    0 -0.00000000000E+00 -0.00000000000E+00 -0.73201479672E+03  0.73201479672E+03  0.00000000000E+00 0. -1.
         25    2    1    2    0    0 -0.29566333333E+03 -0.53445905354E+02 -0.10096264294E+02  0.32557643271E+03  0.12499923003E+03 0.  0.
          2    1    1    2  501    0  0.69723761238E+02  0.56581901976E+02 -0.44112283743E+03  0.45016915956E+03  0.00000000000E+00 0. -1.
          1    1    1    2  502    0  0.22593957209E+03 -0.31359966221E+01 -0.10843532394E+02  0.22622136705E+03  0.00000000000E+00 0. -1.
         22    1    3    3    0    0 -0.13563052260E+03  0.36563339353E+02  0.10238448399E+02  0.14084510027E+03  0.00000000000E+00 0. -1.
         22    1    3    3    0    0 -0.16003281073E+03 -0.90009244707E+02 -0.20334712694E+02  0.18473133244E+03  0.00000000000E+00 0. -1.
</event>
<event>
 7    1  0.5736319E-006  0.4307111E+02  0.7818608E-02  0.1573920E+00
          2   -1    0    0  502    0  0.00000000000E+00  0.00000000000E+00  0.40435824622E+03  0.40435824622E+03  0.00000000000E+00 0. -1.
          1   -1    0    0  501    0 -0.00000000000E+00 -0.00000000000E+00 -0.57658718276E+03  0.57658718276E+03  0.00000000000E+00 0. -1.
         25    2    1    2    0    0 -0.21400918007E+02 -0.63562012923E+02  0.76837356017E+02  0.16132671368E+03  0.12499680192E+03 0.  0.
          2    1    1    2  501    0  0.14973764858E+02  0.40199477972E+02 -0.53296462679E+03  0.53468823165E+03  0.00000000000E+00 0. -1.
          1    1    1    2  502    0  0.64271531495E+01  0.23362534951E+02  0.28389833422E+03  0.28493048365E+03  0.00000000000E+00 0. -1.
         22    1    3    3    0    0 -0.41904352116E+02 -0.32564986696E+02 -0.20688002089E+02  0.56960043146E+02  0.00000000000E+00 0.  1.
         22    1    3    3    0    0  0.20503434109E+02 -0.30997026227E+02  0.97525358106E+02  0.10436667054E+03  0.00000000000E+00 0.  1.
</event>
<event>
 7    1  0.5736319E-006  0.1508642E+03  0.7818608E-02  0.1325939E+00
          2   -1    0    0  502    0  0.00000000000E+00  0.00000000000E+00  0.17463719262E+04  0.17463719262E+04  0.00000000000E+00 0. -1.
          1   -1    0    0  501    0 -0.00000000000E+00 -0.00000000000E+00 -0.19555123354E+03  0.19555123354E+03  0.00000000000E+00 0. -1.
         25    2    1    2    0    0  0.35606501238E+02 -0.14152503852E+03  0.97106447336E+02  0.21529448615E+03  0.12499957677E+03 0.  0.
          2    1    1    2  501    0  0.63438156129E+01  0.15342044036E+03 -0.92855606840E+02  0.17944425106E+03  0.00000000000E+00 0. -1.
          1    1    1    2  502    0 -0.41950316851E+02 -0.11895401842E+02  0.15465698521E+04  0.15471844225E+04  0.00000000000E+00 0. -1.
         22    1    3    3    0    0  0.41849933020E+02 -0.47129598049E+02  0.10273181802E+03  0.12052569161E+03  0.00000000000E+00 0. -1.
         22    1    3    3    0    0 -0.62434317819E+01 -0.94395440473E+02 -0.56253706794E+01  0.94768794536E+02  0.00000000000E+00 0. -1.
</event>
<event>
 7    1  0.5736319E-006  0.2120699E+03  0.7818608E-02  0.1291541E+00
          2   -1    0    0  502    0  0.00000000000E+00  0.00000000000E+00  0.13420395334E+04  0.13420395334E+04  0.00000000000E+00 0. -1.
          1   -1    0    0  501    0 -0.00000000000E+00 -0.00000000000E+00 -0.18440666114E+04  0.18440666114E+04  0.00000000000E+00 0. -1.
         25    2    1    2    0    0  0.21556785960E+03 -0.99359651665E+02 -0.53031193669E+03  0.59430422035E+03  0.12499965464E+03 0.  0.
          2    1    1    2  501    0 -0.19653720656E+03  0.61457201225E+02 -0.12731402166E+04  0.12896859588E+04  0.00000000000E+00 0. -1.
          1    1    1    2  502    0 -0.19030653040E+02  0.37902450440E+02  0.13014250753E+04  0.13021159657E+04  0.00000000000E+00 0. -1.
         22    1    3    3    0    0  0.22546899293E+03 -0.71216053919E+02 -0.44486283168E+03  0.50379651857E+03  0.00000000000E+00 0. -1.
         22    1    3    3    0    0 -0.99011333332E+01 -0.28143597746E+02 -0.85449105014E+02  0.90507701789E+02  0.00000000000E+00 0. -1.
</event>
<event>
 7    1  0.5736319E-006  0.5903792E+02  0.7818608E-02  0.1427471E+00
          2   -1    0    0  502    0  0.00000000000E+00  0.00000000000E+00  0.57553695071E+03  0.57553695071E+03  0.00000000000E+00 0. -1.
          1   -1    0    0  501    0 -0.00000000000E+00 -0.00000000000E+00 -0.34489097477E+02  0.34489097477E+02  0.00000000000E+00 0. -1.
         25    2    1    2    0    0  0.21014406973E+02 -0.85210753129E+01  0.24523189284E+03  0.27618466851E+03  0.12500030330E+03 0.  0.
          2    1    1    2  501    0 -0.69300922092E+02  0.48063280061E+01  0.56125372152E+02  0.89307200107E+02  0.00000000000E+00 0. -1.
          1    1    1    2  502    0  0.48286515119E+02  0.37147473068E+01  0.23969058823E+03  0.24453417957E+03  0.00000000000E+00 0. -1.
         22    1    3    3    0    0 -0.44063158579E+02 -0.19540026177E+02  0.47279676518E+02  0.67518459540E+02  0.00000000000E+00 0. -1.
         22    1    3    3    0    0  0.65077565553E+02  0.11018950864E+02  0.19795221633E+03  0.20866620897E+03  0.00000000000E+00 0. -1.
</event>
<event>
 7    1  0.5736319E-006  0.7648818E+02  0.7818608E-02  0.1355542E+00
          2   -1    0    0  502    0  0.00000000000E+00  0.00000000000E+00  0.11380881989E+04  0.11380881989E+04  0.00000000000E+00 0. -1.
          1   -1    0    0  501    0 -0.00000000000E+00 -0.00000000000E+00 -0.13842526344E+04  0.13842526344E+04  0.00000000000E+00 0. -1.
         25    2    1    2    0    0  0.14070441451E+03  0.22614936696E+02  0.21820093429E+03  0.28904392335E+03  0.12500229709E+03 0.  0.
          2    1    1    2  501    0 -0.74430635863E+02 -0.16365912602E+02 -0.13464996413E+04  0.13486545320E+04  0.00000000000E+00 0. -1.
          1    1    1    2  502    0 -0.66273778644E+02 -0.62490240933E+01  0.88213427145E+03  0.88464237797E+03  0.00000000000E+00 0. -1.
         22    1    3    3    0    0 -0.73612329445E+01 -0.19384470830E+02  0.78488124165E+02  0.81180854238E+02  0.00000000000E+00 0.  1.
         22    1    3    3    0    0  0.14806564745E+03  0.41999407526E+02  0.13971281013E+03  0.20786306911E+03  0.00000000000E+00 0.  1.
</event>
<event>
 7    1  0.6357185E-006  0.6167894E+02  0.7818608E-02  0.1400272E+00
          2   -1    0    0  502    0  0.00000000000E+00  0.00000000000E+00  0.70397606614E+03  0.70397606614E+03  0.00000000000E+00 0. -1.
          1   -1    0    0  501    0 -0.00000000000E+00 -0.00000000000E+00 -0.10340677239E+04  0.10340677239E+04  0.00000000000E+00 0. -1.
         25    2    1    2    0    0 -0.26730525880E+02  0.44137526391E+02 -0.48079595387E+03  0.49945236630E+03  0.12500109876E+03 0.  0.
          2    1    1    2  501    0 -0.34237837583E+02 -0.53472945474E+02 -0.54071311758E+03  0.54442838000E+03  0.00000000000E+00 0. -1.
          1    1    1    2  502    0  0.60968363464E+02  0.93354190826E+01  0.69141741367E+03  0.69416304376E+03  0.00000000000E+00 0. -1.
         22    1    3    3    0    0 -0.64625947432E+02  0.65205992051E+02 -0.33390051562E+03  0.34629162394E+03  0.00000000000E+00 0. -1.
         22    1    3    3    0    0  0.37895421552E+02 -0.21068465660E+02 -0.14689543825E+03  0.15316074235E+03  0.00000000000E+00 0. -1.
</event>
<event>
 7    1  0.5736319E-006  0.1055704E+03  0.7818608E-02  0.1298291E+00
          2   -1    0    0  502    0  0.00000000000E+00  0.00000000000E+00  0.33008323611E+04  0.33008323611E+04  0.00000000000E+00 0. -1.
          1   -1    0    0  501    0 -0.00000000000E+00 -0.00000000000E+00 -0.66609512971E+02  0.66609512971E+02  0.00000000000E+00 0. -1.
         25    2    1    2    0    0 -0.34237561493E+02 -0.65868315861E+02  0.24782096217E+03  0.28731837321E+03  0.12500309053E+03 0.  0.
          2    1    1    2  501    0 -0.70407427959E+02  0.38020338295E+02 -0.10996886359E+02  0.80769323047E+02  0.00000000000E+00 0. -1.
          1    1    1    2  502    0  0.10464498945E+03  0.27847977566E+02  0.29973987723E+04  0.29993541778E+04  0.00000000000E+00 0. -1.
         22    1    3    3    0    0  0.85490518602E+01 -0.41867870985E+01 -0.12884929142E+02  0.16019889916E+02  0.00000000000E+00 0.  1.
         22    1    3    3    0    0 -0.42786613354E+02 -0.61681528762E+02  0.26070589131E+03  0.27129848329E+03  0.00000000000E+00 0.  1.
</event>
<event>
 7    1  0.5736319E-006  0.1131691E+03  0.7818608E-02  0.1443480E+00
          2   -1    0    0  502    0  0.00000000000E+00  0.00000000000E+00  0.58204772124E+02  0.58204772124E+02  0.00000000000E+00 0. -1.
          1   -1    0    0  501    0 -0.00000000000E+00 -0.00000000000E+00 -0.18085830403E+04  0.18085830403E+04  0.00000000000E+00 0. -1.
         25    2    1    2    0    0 -0.34653608820E+02 -0.12241959968E+03 -0.11251335728E+04  0.11391829908E+04  0.12499959596E+03 0.  0.
          2    1    1    2  501    0 -0.10872541632E+02  0.19582462986E+02 -0.61419081451E+03  0.61459909018E+03  0.00000000000E+00 0. -1.
          1    1    1    2  502    0  0.45526150452E+02  0.10283713669E+03 -0.11053880916E+02  0.11300573145E+03  0.00000000000E+00 0. -1.
         22    1    3    3    0    0 -0.63365335664E+02 -0.88369884263E+02 -0.10083182518E+04  0.10141647298E+04  0.00000000000E+00 0. -1.
         22    1    3    3    0    0  0.28711726844E+02 -0.34049715417E+02 -0.11681532092E+03  0.12501826099E+03  0.00000000000E+00 0. -1.
</event>
<event>
 7    1  0.5736319E-006  0.1146563E+03  0.7818608E-02  0.1283189E+00
          2   -1    0    0  502    0  0.00000000000E+00  0.00000000000E+00  0.15723766006E+04  0.15723766006E+04  0.00000000000E+00 0. -1.
          1   -1    0    0  501    0 -0.00000000000E+00 -0.00000000000E+00 -0.24485883498E+04  0.24485883498E+04  0.00000000000E+00 0. -1.
         25    2    1    2    0    0 -0.27297389677E+02  0.12975132759E+03  0.26702306359E+03  0.32327557771E+03  0.12500091263E+03 0.  0.
          2    1    1    2  501    0 -0.52830043853E+02 -0.10182158660E+03 -0.24176912967E+04  0.24204110922E+04  0.00000000000E+00 0. -1.
          1    1    1    2  502    0  0.80127433530E+02 -0.27929740996E+02  0.12744564840E+04  0.12772782804E+04  0.00000000000E+00 0. -1.
         22    1    3    3    0    0 -0.57755251090E+02  0.12894022188E+03  0.16716679894E+03  0.21887436697E+03  0.00000000000E+00 0.  1.
         22    1    3    3    0    0  0.30457861413E+02  0.81110571024E+00  0.99856264649E+02  0.10440121074E+03  0.00000000000E+00 0.  1.
</event>
<event>
 7    1  0.5736319E-006  0.6860762E+02  0.7818608E-02  0.1398114E+00
          2   -1    0    0  502    0  0.00000000000E+00  0.00000000000E+00  0.16137391274E+04  0.16137391274E+04  0.00000000000E+00 0. -1.
          1   -1    0    0  501    0 -0.00000000000E+00 -0.00000000000E+00 -0.48703111812E+02  0.48703111812E+02  0.00000000000E+00 0. -1.
         25    2    1    2    0    0  0.16393541351E+02  0.84865937199E+02  0.15936472417E+03  0.22021308118E+03  0.12500284125E+03 0.  0.
          2    1    1    2  501    0 -0.49846574385E+02 -0.44592745879E+02  0.45137074648E+02  0.80687975999E+02  0.00000000000E+00 0. -1.
          1    1    1    2  502    0  0.33453033035E+02 -0.40273191321E+02  0.13605342167E+04  0.13615411820E+04  0.00000000000E+00 0. -1.
         22    1    3    3    0    0  0.63116765822E+02  0.55844875801E+02  0.50513812039E+02  0.98254880224E+02  0.00000000000E+00 0.  1.
         22    1    3    3    0    0 -0.46723224472E+02  0.29021061398E+02  0.10885091213E+03  0.12195820096E+03  0.00000000000E+00 0.  1.
</event>
<event>
 7    1  0.5736319E-006  0.4860324E+02  0.7818608E-02  0.1464376E+00
          2   -1    0    0  502    0  0.00000000000E+00  0.00000000000E+00  0.30180830303E+03  0.30180830303E+03  0.00000000000E+00 0. -1.
          1   -1    0    0  501    0 -0.00000000000E+00 -0.00000000000E+00 -0.55107619745E+03  0.55107619745E+03  0.00000000000E+00 0. -1.
         25    2    1    2    0    0  0.71028994142E+02 -0.56967265548E+02  0.13899255527E+02  0.15526880948E+03  0.12499930616E+03 0.  0.
          2    1    1    2  501    0 -0.31258691417E+02  0.36452772097E+02 -0.47686805148E+03  0.47927971885E+03  0.00000000000E+00 0. -1.
          1    1    1    2  502    0 -0.39770302725E+02  0.20514493451E+02  0.21370090153E+03  0.21833597215E+03  0.00000000000E+00 0. -1.
         22    1    3    3    0    0  0.41380365847E+02 -0.93800920216E+02 -0.86427252105E+01  0.10288655894E+03  0.00000000000E+00 0.  1.
         22    1    3    3    0    0  0.29648628294E+02  0.36833654668E+02  0.22541980738E+02  0.52382250539E+02  0.00000000000E+00 0.  1.
</event>
<event>
 7    1  0.5736319E-006  0.2414766E+03  0.7818608E-02  0.1263154E+00
          2   -1    0    0  502    0  0.00000000000E+00  0.00000000000E+00  0.43041952294E+04  0.43041952294E+04  0.00000000000E+00 0. -1.
          1   -1    0    0  501    0 -0.00000000000E+00 -0.00000000000E+00 -0.15479056096E+03  0.15479056096E+03  0.00000000000E+00 0. -1.
         25    2    1    2    0    0  0.21406143712E+03  0.18645609710E+02  0.24040626645E+04  0.24168806375E+04  0.12499905498E+03 0.  0.
          2    1    1    2  501    0 -0.23436548685E+03 -0.63082368618E+02 -0.48577599772E+02  0.24752040291E+03  0.00000000000E+00 0. -1.
          1    1    1    2  502    0  0.20304049727E+02  0.44436758908E+02  0.17939196038E+04  0.17945847500E+04  0.00000000000E+00 0. -1.
         22    1    3    3    0    0  0.37147733824E+00 -0.19242625399E+01  0.61229974338E+03  0.61230287973E+03  0.00000000000E+00 0. -1.
         22    1    3    3    0    0  0.21368995979E+03  0.20569872250E+02  0.17917629211E+04  0.18045777578E+04  0.00000000000E+00 0. -1.
</event>
<event>
 7    1  0.5736319E-006  0.3908465E+03  0.7818608E-02  0.1239070E+00
          2   -1    0    0  502    0  0.00000000000E+00  0.00000000000E+00  0.10008213319E+04  0.10008213319E+04  0.00000000000E+00 0. -1.
          1   -1    0    0  501    0 -0.00000000000E+00 -0.00000000000E+00 -0.27149185494E+04  0.27149185494E+04  0.00000000000E+00 0. -1.
         25    2    1    2    0    0 -0.21489222871E+03 -0.36316646723E+03 -0.15792671812E+04  0.16394435529E+04  0.12498712166E+03 0.  0.
          2    1    1    2  501    0 -0.11648849331E+01  0.38360686584E+02 -0.10660120338E+04  0.10667026556E+04  0.00000000000E+00 0. -1.
          1    1    1    2  502    0  0.21605711365E+03  0.32480578064E+03  0.93118199752E+03  0.10095936727E+04  0.00000000000E+00 0. -1.
         22    1    3    3    0    0 -0.20688644704E+03 -0.35475602550E+03 -0.13792977632E+04  0.14391372968E+04  0.00000000000E+00 0.  1.
         22    1    3    3    0    0 -0.80057816755E+01 -0.84104417202E+01 -0.19996941807E+03  0.20030625610E+03  0.00000000000E+00 0.  1.
</event>
<event>
 7    1  0.5736319E-006  0.1190428E+03  0.7818608E-02  0.1337561E+00
          2   -1    0    0  502    0  0.00000000000E+00  0.00000000000E+00  0.73327549305E+02  0.73327549305E+02  0.00000000000E+00 0. -1.
          1   -1    0    0  501    0 -0.00000000000E+00 -0.00000000000E+00 -0.41252507775E+03  0.41252507775E+03  0.00000000000E+00 0. -1.
         25    2    1    2    0    0 -0.50228727279E+02  0.11757841338E+03 -0.19121110663E+03  0.26179016662E+03  0.12499918280E+03 0.  0.
          2    1    1    2  501    0  0.83704805954E+02 -0.80568420796E+02 -0.86343197893E+02  0.14475120998E+03  0.00000000000E+00 0. -1.
          1    1    1    2  502    0 -0.33476078674E+02 -0.37009992579E+02 -0.61643223922E+02  0.79311250461E+02  0.00000000000E+00 0. -1.
         22    1    3    3    0    0  0.37251216748E+02  0.62316365888E+02 -0.56892233240E+02  0.92237241989E+02  0.00000000000E+00 0. -1.
         22    1    3    3    0    0 -0.87479944028E+02  0.55262047487E+02 -0.13431887339E+03  0.16955292463E+03  0.00000000000E+00 0. -1.
</event>
<event>
 7    1  0.5736319E-006  0.5118073E+02  0.7818608E-02  0.1503221E+00
          2   -1    0    0  502    0  0.00000000000E+00  0.00000000000E+00  0.11981997839E+04  0.11981997839E+04  0.00000000000E+00 0. -1.
          1   -1    0    0  501    0 -0.00000000000E+00 -0.00000000000E+00 -0.62507273414E+03  0.62507273414E+03  0.00000000000E+00 0. -1.
         25    2    1    2    0    0  0.36860165717E+02 -0.68991256363E+02  0.16404386761E+03  0.22057077605E+03  0.12499044553E+03 0.  0.
          2    1    1    2  501    0 -0.35501807268E+02  0.36675990398E+02 -0.59545709099E+03  0.59764090707E+03  0.00000000000E+00 0. -1.
          1    1    1    2  502    0 -0.13583584495E+01  0.32315265965E+02  0.10045402731E+04  0.10050608349E+04  0.00000000000E+00 0. -1.
         22    1    3    3    0    0 -0.36872405859E+02 -0.88229208453E+01  0.97037384528E+02  0.10418095911E+03  0.00000000000E+00 0.  1.
         22    1    3    3    0    0  0.73732571576E+02 -0.60168335518E+02  0.67006483086E+02  0.11638981693E+03  0.00000000000E+00 0.  1.
</event>
<event>
 7    1  0.5736319E-006  0.8203360E+02  0.7818608E-02  0.1450900E+00
          2   -1    0    0  502    0  0.00000000000E+00  0.00000000000E+00  0.14391621355E+02  0.14391621355E+02  0.00000000000E+00 0. -1.
          1   -1    0    0  501    0 -0.00000000000E+00 -0.00000000000E+00 -0.31314008170E+04  0.31314008170E+04  0.00000000000E+00 0. -1.
         25    2    1    2    0    0 -0.24058512484E+01  0.60192894627E+02 -0.74509789168E+03  0.75790813120E+03  0.12499957789E+03 0.  0.
          2    1    1    2  501    0  0.18067334471E+01  0.29193457199E+02 -0.21264890698E+04  0.21266902186E+04  0.00000000000E+00 0. -1.
          1    1    1    2  502    0  0.59911780131E+00 -0.89386351826E+02 -0.24542223422E+03  0.26119408853E+03  0.00000000000E+00 0. -1.
         22    1    3    3    0    0  0.46618757345E+02 -0.14249183415E+02 -0.30546286039E+03  0.30932815398E+03  0.00000000000E+00 0. -1.
         22    1    3    3    0    0 -0.49024608594E+02  0.74442078042E+02 -0.43963503129E+03  0.44857997722E+03  0.00000000000E+00 0. -1.
</event>
<event>
 7    1  0.5736319E-006  0.4675323E+02  0.7818608E-02  0.1474518E+00
          2   -1    0    0  502    0  0.00000000000E+00  0.00000000000E+00  0.23227813192E+03  0.23227813192E+03  0.00000000000E+00 0. -1.
          1   -1    0    0  501    0 -0.00000000000E+00 -0.00000000000E+00 -0.22512629702E+03  0.22512629702E+03  0.00000000000E+00 0. -1.
         25    2    1    2    0    0 -0.40881162524E+02  0.72460406041E+02 -0.27761030309E+02  0.15269100877E+03  0.12498835730E+03 0.  0.
          2    1    1    2  501    0  0.61614365889E+01 -0.42817127130E+02 -0.12821605406E+03  0.13531676243E+03  0.00000000000E+00 0. -1.
          1    1    1    2  502    0  0.34719725935E+02 -0.29643278911E+02  0.16312891927E+03  0.16939665774E+03  0.00000000000E+00 0. -1.
         22    1    3    3    0    0 -0.22037597182E+02 -0.33817678133E+02  0.29473972638E+01  0.40471943300E+02  0.00000000000E+00 0.  1.
         22    1    3    3    0    0 -0.18843565342E+02  0.10627808417E+03 -0.30708427572E+02  0.11221906547E+03  0.00000000000E+00 0.  1.
</event>
<event>
 7    1  0.5736319E-006  0.7981815E+02  0.7818608E-02  0.1363262E+00
          2   -1    0    0  502    0  0.00000000000E+00  0.00000000000E+00  0.16888246936E+04  0.16888246936E+04  0.00000000000E+00 0. -1.
          1   -1    0    0  501    0 -0.00000000000E+00 -0.00000000000E+00 -0.28460595095E+03  0.28460595095E+03  0.00000000000E+00 0. -1.
         25    2    1    2    0    0 -0.10041256054E+03  0.89757120272E+02  0.11872170867E+01  0.18375017510E+03  0.12499477753E+03 0.  0.
          2    1    1    2  501    0  0.51987584964E+02 -0.54704160697E+02 -0.18537583398E+03  0.20014857984E+03  0.00000000000E+00 0. -1.
          1    1    1    2  502    0  0.48424975579E+02 -0.35052959575E+02  0.15884073595E+04  0.15895318896E+04  0.00000000000E+00 0. -1.
         22    1    3    3    0    0 -0.10112044830E+03  0.11015485657E+02  0.17820281894E+02  0.10326784802E+03  0.00000000000E+00 0.  1.
         22    1    3    3    0    0  0.70788775258E+00  0.78741634615E+02 -0.16633064807E+02  0.80482327077E+02  0.00000000000E+00 0.  1.
</event>
<event>
 7    1  0.5736319E-006  0.1231565E+03  0.7818608E-02  0.1297170E+00
          2   -1    0    0  502    0  0.00000000000E+00  0.00000000000E+00  0.13026399443E+04  0.13026399443E+04  0.00000000000E+00 0. -1.
          1   -1    0    0  501    0 -0.00000000000E+00 -0.00000000000E+00 -0.14433373956E+03  0.14433373956E+03  0.00000000000E+00 0. -1.
         25    2    1    2    0    0  0.16968003773E+03  0.20264498111E+02  0.24823992305E+02  0.21317346951E+03  0.12499892969E+03 0.  0.
          2    1    1    2  501    0 -0.10041705616E+03 -0.17811493084E+02  0.38637530004E+01  0.10205764567E+03  0.00000000000E+00 0. -1.
          1    1    1    2  502    0 -0.69262981571E+02 -0.24530050261E+01  0.11296184595E+04  0.11317425687E+04  0.00000000000E+00 0. -1.
         22    1    3    3    0    0  0.11861295656E+02 -0.16205774358E+02 -0.35122426220E+02  0.40458649023E+02  0.00000000000E+00 0.  1.
         22    1    3    3    0    0  0.15781874207E+03  0.36470272468E+02  0.59946418525E+02  0.17271482049E+03  0.00000000000E+00 0.  1.
</event>
<event>
 7    1  0.5736319E-006  0.1478755E+03  0.7818608E-02  0.1280985E+00
          2   -1    0    0  502    0  0.00000000000E+00  0.00000000000E+00  0.60661747341E+03  0.60661747341E+03  0.00000000000E+00 0. -1.
          1   -1    0    0  501    0 -0.00000000000E+00 -0.00000000000E+00 -0.71813285575E+03  0.71813285575E+03  0.00000000000E+00 0. -1.
         25    2    1    2    0    0  0.18011937687E+03 -0.71597676262E+02 -0.34716326375E+03  0.41679242715E+03  0.12499751381E+03 0.  0.
          2    1    1    2  501    0 -0.12814127321E+03  0.29032468446E+02 -0.32121983297E+03  0.34705223125E+03  0.00000000000E+00 0. -1.
          1    1    1    2  502    0 -0.51978103658E+02  0.42565207816E+02  0.55686771438E+03  0.56090567076E+03  0.00000000000E+00 0. -1.
         22    1    3    3    0    0  0.18060848668E+03 -0.56978918426E+02 -0.35335716421E+03  0.40090810431E+03  0.00000000000E+00 0.  1.
         22    1    3    3    0    0 -0.48910980617E+00 -0.14618757836E+02  0.61939004593E+01  0.15884322836E+02  0.00000000000E+00 0.  1.
</event>
<event>
 7    1  0.5736319E-006  0.5776849E+02  0.7818608E-02  0.1481285E+00
          2   -1    0    0  502    0  0.00000000000E+00  0.00000000000E+00  0.74501472076E+03  0.74501472076E+03  0.00000000000E+00 0. -1.
          1   -1    0    0  501    0 -0.00000000000E+00 -0.00000000000E+00 -0.25342420720E+03  0.25342420720E+03  0.00000000000E+00 0. -1.
         25    2    1    2    0    0 -0.63771239820E+02  0.33009623290E+02  0.76220879207E+02  0.16307650258E+03  0.12501166749E+03 0.  0.
          2    1    1    2  501    0  0.61989806622E+01 -0.32790168186E+02 -0.20733429265E+03  0.21000269379E+03  0.00000000000E+00 0. -1.
          1    1    1    2  502    0  0.57572259158E+02 -0.21945510325E+00  0.62270392700E+03  0.62535973158E+03  0.00000000000E+00 0. -1.
         22    1    3    3    0    0 -0.33299896654E+02 -0.47452153576E+02  0.34450943622E+02  0.67434839013E+02  0.00000000000E+00 0.  1.
         22    1    3    3    0    0 -0.30471343166E+02  0.80461776866E+02  0.41769935585E+02  0.95641663565E+02  0.00000000000E+00 0.  1.
</event>
<event>
 7    1  0.5736319E-006  0.2073095E+03  0.7818608E-02  0.1255823E+00
          2   -1    0    0  502    0  0.00000000000E+00  0.00000000000E+00  0.42669884845E+04  0.42669884845E+04  0.00000000000E+00 0. -1.
          1   -1    0    0  501    0 -0.00000000000E+00 -0.00000000000E+00 -0.12547939210E+03  0.12547939210E+03  0.00000000000E+00 0. -1.
         25    2    1    2    0    0  0.25275360760E+03  0.28321778797E+02  0.18747379027E+04  0.18960360169E+04  0.12499545700E+03 0.  0.
          2    1    1    2  501    0 -0.20492948269E+03  0.98060164688E+01 -0.22454650641E+02  0.20638910381E+03  0.00000000000E+00 0. -1.
          1    1    1    2  502    0 -0.47824124904E+02 -0.38127795266E+02  0.22892258403E+04  0.22900427559E+04  0.00000000000E+00 0. -1.
         22    1    3    3    0    0  0.18160530642E+03  0.14006849127E+02  0.87991740260E+03  0.89857181935E+03  0.00000000000E+00 0. -1.
         22    1    3    3    0    0  0.71148301176E+02  0.14314929670E+02  0.99482050007E+03  0.99746419751E+03  0.00000000000E+00 0. -1.
</event>
<event>
 7    1  0.5736319E-006  0.1730463E+03  0.7818608E-02  0.1300833E+00
          2   -1    0    0  502    0  0.00000000000E+00  0.00000000000E+00  0.17564777564E+04  0.17564777564E+04  0.00000000000E+00 0. -1.
          1   -1    0    0  501    0 -0.00000000000E+00 -0.00000000000E+00 -0.11285121111E+04  0.11285121111E+04  0.00000000000E+00 0. -1.
         25    2    1    2    0    0  0.16052680391E+03 -0.34047123007E+02  0.16051694842E+03  0.26137819228E+03  0.12499922924E+03 0.  0.
          2    1    1    2  501    0 -0.15338019275E+03  0.81193367923E+02 -0.10707254848E+04  0.10846985343E+04  0.00000000000E+00 0. -1.
          1    1    1    2  502    0 -0.71466111554E+01 -0.47146244916E+02  0.15381741816E+04  0.15389131409E+04  0.00000000000E+00 0. -1.
         22    1    3    3    0    0  0.77581864290E+02  0.36887717287E+01  0.15093961854E+03  0.16975076185E+03  0.00000000000E+00 0.  1.
         22    1    3    3    0    0  0.82944939620E+02 -0.37735894735E+02  0.95773298867E+01  0.91627430433E+02  0.00000000000E+00 0.  1.
</event>
<event>
 7    1  0.5736319E-006  0.8002543E+02  0.7818608E-02  0.1420493E+00
          2   -1    0    0  502    0  0.00000000000E+00  0.00000000000E+00  0.35148424183E+02  0.35148424183E+02  0.00000000000E+00 0. -1.
          1   -1    0    0  501    0 -0.00000000000E+00 -0.00000000000E+00 -0.30013574611E+04  0.30013574611E+04  0.00000000000E+00 0. -1.
         25    2    1    2    0    0 -0.32669501775E+02  0.90234427043E+02 -0.40784238142E+03  0.43723008688E+03  0.12500077048E+03 0.  0.
          2    1    1    2  501    0  0.35701154791E+02 -0.12069864316E+02 -0.25033708976E+04  0.25036545499E+04  0.00000000000E+00 0. -1.
          1    1    1    2  502    0 -0.30316530160E+01 -0.78164562727E+02 -0.54995757893E+02  0.95621248541E+02  0.00000000000E+00 0. -1.
         22    1    3    3    0    0 -0.29890808708E+02 -0.25483436372E+02 -0.14088777747E+03  0.14626083487E+03  0.00000000000E+00 0.  1.
         22    1    3    3    0    0 -0.27786930670E+01  0.11571786341E+03 -0.26695460395E+03  0.29096925202E+03  0.00000000000E+00 0.  1.
</event>
<event>
 7    1  0.5736319E-006  0.6964554E+02  0.7818608E-02  0.1379101E+00
          2   -1    0    0  502    0  0.00000000000E+00  0.00000000000E+00  0.32797859156E+02  0.32797859156E+02  0.00000000000E+00 0. -1.
          1   -1    0    0  501    0 -0.00000000000E+00 -0.00000000000E+00 -0.13264327936E+04  0.13264327936E+04  0.00000000000E+00 0. -1.
         25    2    1    2    0    0 -0.80245065951E+02  0.29431953430E+02 -0.45421176848E+03  0.47879041929E+03  0.12500569782E+03 0.  0.
          2    1    1    2  501    0  0.64276542388E+02  0.28514951406E+02 -0.81083981331E+03  0.81388314837E+03  0.00000000000E+00 0. -1.
          1    1    1    2  502    0  0.15968523562E+02 -0.57946904836E+02 -0.28583352623E+02  0.66557085062E+02  0.00000000000E+00 0. -1.
         22    1    3    3    0    0 -0.87057715035E+02  0.26649183584E+02 -0.15701004864E+03  0.18149760359E+03  0.00000000000E+00 0. -1.
         22    1    3    3    0    0  0.68126490848E+01  0.27827698457E+01 -0.29720171983E+03  0.29729281570E+03  0.00000000000E+00 0. -1.
</event>
<event>
 7    1  0.5736319E-006  0.2112179E+03  0.7818608E-02  0.1315612E+00
          2   -1    0    0  502    0  0.00000000000E+00  0.00000000000E+00  0.18537698545E+04  0.18537698545E+04  0.00000000000E+00 0. -1.
          1   -1    0    0  501    0 -0.00000000000E+00 -0.00000000000E+00 -0.10905747506E+04  0.10905747506E+04  0.00000000000E+00 0. -1.
         25    2    1    2    0    0 -0.12099709789E+03  0.14205959614E+03  0.81101796294E+02  0.23879487477E+03  0.12499705716E+03 0.  0.
          2    1    1    2  501    0  0.11972497385E+03 -0.17618699316E+03 -0.10003405242E+04  0.10227693240E+04  0.00000000000E+00 0. -1.
          1    1    1    2  502    0  0.12721240408E+01  0.34127397011E+02  0.16824338318E+04  0.16827804063E+04  0.00000000000E+00 0. -1.
         22    1    3    3    0    0 -0.71424742860E+02  0.29574801023E+02  0.86172721002E+02  0.11576657805E+03  0.00000000000E+00 0.  1.
         22    1    3    3    0    0 -0.49572355032E+02  0.11248479512E+03 -0.50709247083E+01  0.12302829672E+03  0.00000000000E+00 0.  1.
</event>
<event>
 7    1  0.5736319E-006  0.1189322E+03  0.7818608E-02  0.1316319E+00
          2   -1    0    0  502    0  0.00000000000E+00  0.00000000000E+00  0.25371908856E+04  0.25371908856E+04  0.00000000000E+00 0. -1.
          1   -1    0    0  501    0 -0.00000000000E+00 -0.00000000000E+00 -0.13070334999E+03  0.13070334999E+03  0.00000000000E+00 0. -1.
         25    2    1    2    0    0 -0.11999697506E+03 -0.88324093853E+02  0.41064042977E+02  0.19877692236E+03  0.12500235861E+03 0.  0.
          2    1    1    2  501    0  0.59737945678E+02  0.89265142491E+02  0.45829111128E+01  0.10750763178E+03  0.00000000000E+00 0. -1.
          1    1    1    2  502    0  0.60259029381E+02 -0.94104863811E+00  0.23608405816E+04  0.23616096815E+04  0.00000000000E+00 0. -1.
         22    1    3    3    0    0  0.23321344533E+01 -0.70770647960E+02  0.11928214401E+02  0.71806725052E+02  0.00000000000E+00 0. -1.
         22    1    3    3    0    0 -0.12232910951E+03 -0.17553445892E+02  0.29135828576E+02  0.12697019730E+03  0.00000000000E+00 0. -1.
</event>
<event>
 7    1  0.5736319E-006  0.1225234E+03  0.7818608E-02  0.1259096E+00
          2   -1    0    0  502    0  0.00000000000E+00  0.00000000000E+00  0.97113192468E+03  0.97113192468E+03  0.00000000000E+00 0. -1.
          1   -1    0    0  501    0 -0.00000000000E+00 -0.00000000000E+00 -0.54494832238E+02  0.54494832238E+02  0.00000000000E+00 0. -1.
         25    2    1    2    0    0 -0.26350132192E+02  0.66010188927E+02  0.10746788038E+03  0.17951651058E+03  0.12500063099E+03 0.  0.
          2    1    1    2  501    0  0.78637921263E+02  0.62094756750E+02  0.23433469793E+03  0.25485767033E+03  0.00000000000E+00 0. -1.
          1    1    1    2  502    0 -0.52287789071E+02 -0.12810494568E+03  0.57483451414E+03  0.59125257601E+03  0.00000000000E+00 0. -1.
         22    1    3    3    0    0 -0.61442787895E+02  0.45427217740E+02  0.14144059001E+02  0.77710377048E+02  0.00000000000E+00 0.  1.
         22    1    3    3    0    0  0.35092655702E+02  0.20582971186E+02  0.93323821381E+02  0.10180613353E+03  0.00000000000E+00 0.  1.
</event>
<event>
 7    1  0.5736319E-006  0.2081340E+03  0.7818608E-02  0.1322284E+00
          2   -1    0    0  502    0  0.00000000000E+00  0.00000000000E+00  0.16009217131E+04  0.16009217131E+04  0.00000000000E+00 0. -1.
          1   -1    0    0  501    0 -0.00000000000E+00 -0.00000000000E+00 -0.30059432056E+03  0.30059432056E+03  0.00000000000E+00 0. -1.
         25    2    1    2    0    0  0.65358638763E+02 -0.21927519109E+03  0.70395512708E+03  0.75068353867E+03  0.12497837093E+03 0.  0.
          2    1    1    2  501    0  0.14954798333E+01  0.32614252625E+02 -0.26496535802E+03  0.26696922460E+03  0.00000000000E+00 0. -1.
          1    1    1    2  502    0 -0.66854118596E+02  0.18666093846E+03  0.86133762352E+03  0.88386327043E+03  0.00000000000E+00 0. -1.
         22    1    3    3    0    0  0.80188370480E+02 -0.20086241526E+03  0.49231067232E+03  0.53772268197E+03  0.00000000000E+00 0. -1.
         22    1    3    3    0    0 -0.14829731716E+02 -0.18412775832E+02  0.21164445476E+03  0.21296085670E+03  0.00000000000E+00 0. -1.
</event>
<event>
 7    1  0.5736319E-006  0.7648496E+02  0.7818608E-02  0.1474256E+00
          2   -1    0    0  502    0  0.00000000000E+00  0.00000000000E+00  0.44780042711E+03  0.44780042711E+03  0.00000000000E+00 0. -1.
          1   -1    0    0  501    0 -0.00000000000E+00 -0.00000000000E+00 -0.38683029737E+03  0.38683029737E+03  0.00000000000E+00 0. -1.
         25    2    1    2    0    0 -0.72186098799E+02  0.68866061688E+02 -0.62992990004E+02  0.17188993196E+03  0.12499865842E+03 0.  0.
          2    1    1    2  501    0  0.57963312245E+02 -0.46515864468E+02 -0.26380234445E+03  0.27407142893E+03  0.00000000000E+00 0. -1.
          1    1    1    2  502    0  0.14222786554E+02 -0.22350197220E+02  0.38776546420E+03  0.38866936360E+03  0.00000000000E+00 0. -1.
         22    1    3    3    0    0 -0.53480366562E+01  0.33113547984E+02  0.34685080680E+02  0.48251045356E+02  0.00000000000E+00 0.  1.
         22    1    3    3    0    0 -0.66838062143E+02  0.35752513704E+02 -0.97678070685E+02  0.12363888660E+03  0.00000000000E+00 0.  1.
</event>
<event>
 7    1  0.5736319E-006  0.5760171E+02  0.7818608E-02  0.1514794E+00
          2   -1    0    0  502    0  0.00000000000E+00  0.00000000000E+00  0.82436473128E+03  0.82436473128E+03  0.00000000000E+00 0. -1.
          1   -1    0    0  501    0 -0.00000000000E+00 -0.00000000000E+00 -0.76667857252E+03  0.76667857252E+03  0.00000000000E+00 0. -1.
         25    2    1    2    0    0  0.30373268427E+02 -0.80963690593E+01  0.55561428493E+03  0.57036112526E+03  0.12496596722E+03 0.  0.
          2    1    1    2  501    0 -0.56918835419E+02  0.91709621911E+01 -0.75753185827E+03  0.75972256559E+03  0.00000000000E+00 0. -1.
          1    1    1    2  502    0  0.26545566991E+02 -0.10745931319E+01  0.25960373209E+03  0.26095961295E+03  0.00000000000E+00 0. -1.
         22    1    3    3    0    0 -0.32728681537E+02  0.36537163186E+02  0.27281621450E+03  0.27719094102E+03  0.00000000000E+00 0. -1.
         22    1    3    3    0    0  0.63101949964E+02 -0.44633532245E+02  0.28279807044E+03  0.29317018425E+03  0.00000000000E+00 0. -1.
</event>
<event>
 7    1  0.5736319E-006  0.4634522E+02  0.7818608E-02  0.1563270E+00
          2   -1    0    0  502    0  0.00000000000E+00  0.00000000000E+00  0.37664776269E+02  0.37664776269E+02  0.00000000000E+00 0. -1.
          1   -1    0    0  501    0 -0.00000000000E+00 -0.00000000000E+00 -0.36126453797E+03  0.36126453797E+03  0.00000000000E+00 0. -1.
         25    2    1    2    0    0  0.52477799102E+02  0.11294388333E+02 -0.16173547787E+03  0.21133833722E+03  0.12499618143E+03 0.  0.
          2    1    1    2  501    0 -0.44577040317E+02  0.11445227357E+02 -0.15622940444E+03  0.16286722372E+03  0.00000000000E+00 0. -1.
          1    1    1    2  502    0 -0.79007587853E+01 -0.22739615690E+02 -0.56348793977E+01  0.24723753294E+02  0.00000000000E+00 0. -1.
         22    1    3    3    0    0  0.33308016030E+01 -0.47709912052E+02 -0.10649769396E+03  0.11674368833E+03  0.00000000000E+00 0. -1.
         22    1    3    3    0    0  0.49146997499E+02  0.59004300385E+02 -0.55237783906E+02  0.94594648886E+02  0.00000000000E+00 0. -1.
</event>
<event>
 7    1  0.5788227E-006  0.4608147E+02  0.7818608E-02  0.1477110E+00
          2   -1    0    0  502    0  0.00000000000E+00  0.00000000000E+00  0.12670628569E+04  0.12670628569E+04  0.00000000000E+00 0. -1.
          1   -1    0    0  501    0 -0.00000000000E+00 -0.00000000000E+00 -0.41981416567E+03  0.41981416567E+03  0.00000000000E+00 0. -1.
         25    2    1    2    0    0  0.29142695377E+02 -0.36395817519E+02 -0.11574970341E+03  0.17662662586E+03  0.12500007559E+03 0.  0.
          2    1    1    2  501    0 -0.47219727822E+02 -0.27168739529E+01 -0.27120330904E+03  0.27529678337E+03  0.00000000000E+00 0. -1.
          1    1    1    2  502    0  0.18077032446E+02  0.39112691472E+02  0.12342017037E+04  0.12349536134E+04  0.00000000000E+00 0. -1.
         22    1    3    3    0    0  0.12384374455E+02 -0.47380851307E+01  0.26663083488E+02  0.29778216912E+02  0.00000000000E+00 0. -1.
         22    1    3    3    0    0  0.16758320922E+02 -0.31657732388E+02 -0.14241278689E+03  0.14684840895E+03  0.00000000000E+00 0. -1.
</event>
<event>
 7    1  0.5736319E-006  0.7074089E+02  0.7818608E-02  0.1455880E+00
          2   -1    0    0  502    0  0.00000000000E+00  0.00000000000E+00  0.21967302600E+04  0.21967302600E+04  0.00000000000E+00 0. -1.
          1   -1    0    0  501    0 -0.00000000000E+00 -0.00000000000E+00 -0.16443837425E+02  0.16443837425E+02  0.00000000000E+00 0. -1.
         25    2    1    2    0    0 -0.97591960276E+02  0.94978184876E+01  0.11493402051E+04  0.11602683143E+04  0.12500101961E+03 0.  0.
          2    1    1    2  501    0  0.32244725062E+02 -0.54517411865E+01  0.17017043355E+02  0.36864936468E+02  0.00000000000E+00 0. -1.
          1    1    1    2  502    0  0.65347235214E+02 -0.40460773010E+01  0.10139291741E+04  0.10160408466E+04  0.00000000000E+00 0. -1.
         22    1    3    3    0    0 -0.54488843068E+02  0.65440799337E+02  0.73963629854E+03  0.74452225377E+03  0.00000000000E+00 0.  1.
         22    1    3    3    0    0 -0.43103117208E+02 -0.55942980850E+02  0.40970390656E+03  0.41574606056E+03  0.00000000000E+00 0.  1.
</event>
<event>
 7    1  0.5736319E-006  0.6336394E+02  0.7818608E-02  0.1413978E+00
          2   -1    0    0  502    0  0.00000000000E+00  0.00000000000E+00  0.81277645575E+03  0.81277645575E+03  0.00000000000E+00 0. -1.
          1   -1    0    0  501    0 -0.00000000000E+00 -0.00000000000E+00 -0.58887083501E+03  0.58887083501E+03  0.00000000000E+00 0. -1.
         25    2    1    2    0    0  0.82148337053E+02  0.51095471342E+02 -0.26941249848E+02  0.16034080672E+03  0.12499698750E+03 0.  0.
          2    1    1    2  501    0 -0.19300180686E+02 -0.46180566561E+02 -0.49262783974E+03  0.49516394273E+03  0.00000000000E+00 0. -1.
          1    1    1    2  502    0 -0.62848156367E+02 -0.49149047802E+01  0.74347471032E+03  0.74614254130E+03  0.00000000000E+00 0. -1.
         22    1    3    3    0    0  0.16963508794E+02 -0.25576631811E+02 -0.48524900640E+02  0.57415944715E+02  0.00000000000E+00 0.  1.
         22    1    3    3    0    0  0.65184828259E+02  0.76672103153E+02  0.21583650792E+02  0.10292486200E+03  0.00000000000E+00 0.  1.
</event>
<event>
 7    1  0.5736319E-006  0.7476952E+02  0.7818608E-02  0.1471532E+00
          2   -1    0    0  502    0  0.00000000000E+00  0.00000000000E+00  0.62253806054E+02  0.62253806054E+02  0.00000000000E+00 0. -1.
          1   -1    0    0  501    0 -0.00000000000E+00 -0.00000000000E+00 -0.13744020940E+04  0.13744020940E+04  0.00000000000E+00 0. -1.
         25    2    1    2    0    0 -0.20646341948E+02 -0.98147541378E+02 -0.21443649657E+03  0.26770642557E+03  0.12499803166E+03 0.  0.
          2    1    1    2  501    0  0.90283168742E+01  0.73077282955E+02 -0.11265828343E+04  0.11289865732E+04  0.00000000000E+00 0. -1.
          1    1    1    2  502    0  0.11618025074E+02  0.25070258423E+02  0.28871042924E+02  0.39962901340E+02  0.00000000000E+00 0. -1.
         22    1    3    3    0    0  0.18311276580E+01 -0.11503415779E+03 -0.20971339846E+03  0.23919849493E+03  0.00000000000E+00 0.  1.
         22    1    3    3    0    0 -0.22477469606E+02  0.16886616409E+02 -0.47230981123E+01  0.28507930641E+02  0.00000000000E+00 0.  1.
</event>
<event>
 7    1  0.5736319E-006  0.5811635E+02  0.7818608E-02  0.1470628E+00
          2   -1    0    0  502    0  0.00000000000E+00  0.00000000000E+00  0.15520891478E+04  0.15520891478E+04  0.00000000000E+00 0. -1.
          1   -1    0    0  501    0 -0.00000000000E+00 -0.00000000000E+00 -0.39792356379E+03  0.39792356379E+03  0.00000000000E+00 0. -1.
         25    2    1    2    0    0  0.55351296371E+02  0.74736440931E+02  0.60108597720E+02  0.16699326528E+03  0.12499762204E+03 0.  0.
          2    1    1    2  501    0 -0.36261185991E+02 -0.44474938336E+02 -0.34186708308E+03  0.34664967365E+03  0.00000000000E+00 0. -1.
          1    1    1    2  502    0 -0.19090110380E+02 -0.30261502595E+02  0.14359240694E+04  0.14363697727E+04  0.00000000000E+00 0. -1.
         22    1    3    3    0    0  0.13625529984E+02  0.47336181888E+02 -0.34420993008E+02  0.60093044046E+02  0.00000000000E+00 0.  1.
         22    1    3    3    0    0  0.41725766387E+02  0.27400259043E+02  0.94529590728E+02  0.10690022123E+03  0.00000000000E+00 0.  1.
</event>
<event>
 7    1  0.5736319E-006  0.9670710E+02  0.7818608E-02  0.1339854E+00
          2   -1    0    0  502    0  0.00000000000E+00  0.00000000000E+00  0.10910697923E+04  0.10910697923E+04  0.00000000000E+00 0. -1.
          1   -1    0    0  501    0 -0.00000000000E+00 -0.00000000000E+00 -0.44183553300E+02  0.44183553300E+02  0.00000000000E+00 0. -1.
         25    2    1    2    0    0  0.89419243807E+02  0.10332010971E+03  0.23937160057E+03  0.30264687343E+03  0.12500208240E+03 0.  0.
          2    1    1    2  501    0 -0.44565769626E+02 -0.63139546005E+02  0.12177946498E+03  0.14423227164E+03  0.00000000000E+00 0. -1.
          1    1    1    2  502    0 -0.44853474181E+02 -0.40180563706E+02  0.68573517346E+03  0.68837420054E+03  0.00000000000E+00 0. -1.
         22    1    3    3    0    0 -0.14802911433E+02  0.50413423775E+02  0.13894210883E+03  0.14854477133E+03  0.00000000000E+00 0. -1.
         22    1    3    3    0    0  0.10422215524E+03  0.52906685936E+02  0.10042949173E+03  0.15410210209E+03  0.00000000000E+00 0. -1.
</event>
<event>
 7    1  0.5736319E-006  0.1140702E+03  0.7818608E-02  0.1270547E+00
          2   -1    0    0  502    0  0.00000000000E+00  0.00000000000E+00  0.43879775661E+03  0.43879775661E+03  0.00000000000E+00 0. -1.
          1   -1    0    0  501    0 -0.00000000000E+00 -0.00000000000E+00 -0.28111061088E+03  0.28111061088E+03  0.00000000000E+00 0. -1.
         25    2    1    2    0    0 -0.77925754564E+02 -0.33359753794E+01  0.20024274113E+03  0.24860811754E+03  0.12500115510E+03 0.  0.
          2    1    1    2  501    0 -0.86182663882E+02  0.42861145064E+02 -0.21156553812E+03  0.23243172380E+03  0.00000000000E+00 0. -1.
          1    1    1    2  502    0  0.16410841845E+03 -0.39525169685E+02  0.16900994272E+03  0.23886852614E+03  0.00000000000E+00 0. -1.
         22    1    3    3    0    0  0.33245790995E+02  0.98779593799E+01  0.58188977658E+02  0.67740784032E+02  0.00000000000E+00 0.  1.
         22    1    3    3    0    0 -0.11117154556E+03 -0.13213934759E+02  0.14205376347E+03  0.18086733351E+03  0.00000000000E+00 0.  1.
</event>
<event>
 7    1  0.5736319E-006  0.2064330E+03  0.7818608E-02  0.1211893E+00
          2   -1    0    0  502    0  0.00000000000E+00  0.00000000000E+00  0.17821337894E+04  0.17821337894E+04  0.00000000000E+00 0. -1.
          1   -1    0    0  501    0 -0.00000000000E+00 -0.00000000000E+00 -0.11207301976E+04  0.11207301976E+04  0.00000000000E+00 0. -1.
         25    2    1    2    0    0 -0.24315603512E+03  0.83389809070E+02  0.94704500200E+01  0.28599630905E+03  0.12500192676E+03 0.  0.
          2    1    1    2  501    0  0.84604840096E+02  0.46219470311E+02 -0.97366258027E+03  0.97842375207E+03  0.00000000000E+00 0. -1.
          1    1    1    2  502    0  0.15855119502E+03 -0.12960927938E+03  0.16255957220E+04  0.16384439258E+04  0.00000000000E+00 0. -1.
         22    1    3    3    0    0 -0.52318340306E+02  0.75703871049E+02  0.21922139037E+02  0.94598440813E+02  0.00000000000E+00 0.  1.
         22    1    3    3    0    0 -0.19083769481E+03  0.76859380210E+01 -0.12451689017E+02  0.19139786823E+03  0.00000000000E+00 0.  1.
</event>
<event>
 7    1  0.5736319E-006  0.1301487E+03  0.7818608E-02  0.1289486E+00
          2   -1    0    0  502    0  0.00000000000E+00  0.00000000000E+00  0.40123545415E+02  0.40123545415E+02  0.00000000000E+00 0. -1.
          1   -1    0    0  501    0 -0.00000000000E+00 -0.00000000000E+00 -0.23842404376E+04  0.23842404376E+04  0.00000000000E+00 0. -1.
         25    2    1    2    0    0  0.20288677672E+02  0.71332652006E+02 -0.65057878582E+03  0.66662056028E+03  0.12502094686E+03 0.  0.
          2    1    1    2  501    0  0.10526137182E+02  0.69658525455E+02 -0.15585235831E+04  0.15601150178E+04  0.00000000000E+00 0. -1.
          1    1    1    2  502    0 -0.30814814854E+02 -0.14099117746E+03 -0.13501452327E+03  0.19762840492E+03  0.00000000000E+00 0. -1.
         22    1    3    3    0    0 -0.23382938293E+02  0.64739803586E+02 -0.57482694243E+03  0.57893351752E+03  0.00000000000E+00 0. -1.
         22    1    3    3    0    0  0.43671615965E+02  0.65928484201E+01 -0.75751843391E+02  0.87687042762E+02  0.00000000000E+00 0. -1.
</event>
<event>
 7    1  0.5736319E-006  0.9480173E+02  0.7818608E-02  0.1408996E+00
          2   -1    0    0  502    0  0.00000000000E+00  0.00000000000E+00  0.90172044554E+02  0.90172044554E+02  0.00000000000E+00 0. -1.
          1   -1    0    0  501    0 -0.00000000000E+00 -0.00000000000E+00 -0.16627907327E+04  0.16627907327E+04  0.00000000000E+00 0. -1.
         25    2    1    2    0    0  0.84159440136E+02 -0.57202904605E+02 -0.19336241728E+03  0.25172745704E+03  0.12499081788E+03 0.  0.
          2    1    1    2  501    0  0.74543999110E+01  0.33968245519E+02 -0.14032838530E+04  0.14037147082E+04  0.00000000000E+00 0. -1.
          1    1    1    2  502    0 -0.91613840047E+02  0.23234659087E+02  0.24027582145E+02  0.97520612051E+02  0.00000000000E+00 0. -1.
         22    1    3    3    0    0 -0.51158705274E+01  0.32138637958E+02 -0.23903846712E+02  0.40378931000E+02  0.00000000000E+00 0. -1.
         22    1    3    3    0    0  0.89275310664E+02 -0.89341542563E+02 -0.16945857057E+03  0.21134852604E+03  0.00000000000E+00 0. -1.
</event>
<event>
 7    1  0.5736319E-006  0.8031320E+02  0.7818608E-02  0.1349134E+00
          2   -1    0    0  502    0  0.00000000000E+00  0.00000000000E+00  0.12271184489E+04  0.12271184489E+04  0.00000000000E+00 0. -1.
          1   -1    0    0  501    0 -0.00000000000E+00 -0.00000000000E+00 -0.48502079838E+03  0.48502079838E+03  0.00000000000E+00 0. -1.
         25    2    1    2    0    0  0.63730931060E+02 -0.11927731567E+03  0.55691908018E+03  0.58657654224E+03  0.12499787372E+03 0.  0.
          2    1    1    2  501    0 -0.46530545711E+02  0.48133362948E+02 -0.46574749307E+03  0.47053441916E+03  0.00000000000E+00 0. -1.
          1    1    1    2  502    0 -0.17200385349E+02  0.71143952725E+02  0.65092606338E+03  0.65502828584E+03  0.00000000000E+00 0. -1.
         22    1    3    3    0    0 -0.33155814677E+01 -0.97005628037E+02  0.19494024148E+03  0.21776772648E+03  0.00000000000E+00 0.  1.
         22    1    3    3    0    0  0.67046512527E+02 -0.22271687636E+02  0.36197883870E+03  0.36880881576E+03  0.00000000000E+00 0.  1.
</event>
<event>
 7    1  0.5736319E-006  0.8818193E+02  0.7818608E-02  0.1385831E+00
          2   -1    0    0  502    0  0.00000000000E+00  0.00000000000E+00  0.13639372626E+04  0.13639372626E+04  0.00000000000E+00 0. -1.
          1   -1    0    0  501    0 -0.00000000000E+00 -0.00000000000E+00 -0.18501713963E+03  0.18501713963E+03  0.00000000000E+00 0. -1.
         25    2    1    2    0    0 -0.11953062723E+03  0.42856945649E+02  0.17897499738E+03  0.25254981703E+03  0.12500028704E+03 0.  0.
          2    1    1    2  501    0  0.74584910452E+02 -0.42888788647E+02 -0.13526285517E+03  0.16030719587E+03  0.00000000000E+00 0. -1.
          1    1    1    2  502    0  0.44945716782E+02  0.31842998554E-01  0.11352079808E+04  0.11360973894E+04  0.00000000000E+00 0. -1.
         22    1    3    3    0    0 -0.53098695159E+02 -0.43186964070E+02  0.82621364227E+02  0.10728874647E+03  0.00000000000E+00 0. -1.
         22    1    3    3    0    0 -0.66431932074E+02  0.86043909719E+02  0.96353633150E+02  0.14526107056E+03  0.00000000000E+00 0. -1.
</event>
<event>
 7    1  0.5736319E-006  0.3929421E+02  0.7818608E-02  0.1601447E+00
          2   -1    0    0  502    0  0.00000000000E+00  0.00000000000E+00  0.14970819354E+04  0.14970819354E+04  0.00000000000E+00 0. -1.
          1   -1    0    0  501    0 -0.00000000000E+00 -0.00000000000E+00 -0.15945278815E+03  0.15945278815E+03  0.00000000000E+00 0. -1.
         25    2    1    2    0    0  0.15697984358E+02  0.17823693118E+02  0.10773705591E+03  0.16672594764E+03  0.12500463052E+03 0.  0.
          2    1    1    2  501    0 -0.81315704796E+01  0.20921120875E+02 -0.12870030343E+03  0.13064296322E+03  0.00000000000E+00 0. -1.
          1    1    1    2  502    0 -0.75664138784E+01 -0.38744813993E+02  0.13585923947E+04  0.13591658127E+04  0.00000000000E+00 0. -1.
         22    1    3    3    0    0  0.14947068470E+02 -0.28789006750E+02  0.11505147984E+03  0.11953687623E+03  0.00000000000E+00 0. -1.
         22    1    3    3    0    0  0.75091588799E+00  0.46612699868E+02 -0.73144239242E+01  0.47189071415E+02  0.00000000000E+00 0. -1.
</event>
<event>
 7    1  0.5736319E-006  0.1677772E+03  0.7818608E-02  0.1280497E+00
          2   -1    0    0  502    0  0.00000000000E+00  0.00000000000E+00  0.27971056150E+03  0.27971056150E+03  0.00000000000E+00 0. -1.
          1   -1    0    0  501    0 -0.00000000000E+00 -0.00000000000E+00 -0.11631058184E+04  0.11631058184E+04  0.00000000000E+00 0. -1.
         25    2    1    2    0    0  0.29365604839E+02 -0.13315522543E+03 -0.17293046739E+03  0.25322389818E+03  0.12499897300E+03 0.  0.
          2    1    1    2  501    0 -0.44547780232E+02 -0.39426060136E+02 -0.91761671098E+03  0.91954300998E+03  0.00000000000E+00 0. -1.
          1    1    1    2  502    0  0.15182175393E+02  0.17258128557E+03  0.20715192151E+03  0.27004947169E+03  0.00000000000E+00 0. -1.
         22    1    3    3    0    0  0.53993026365E+02 -0.72698867405E+02 -0.28843086087E+02  0.95038391364E+02  0.00000000000E+00 0. -1.
         22    1    3    3    0    0 -0.24627421526E+02 -0.60456358025E+02 -0.14408738130E+03  0.15818550681E+03  0.00000000000E+00 0. -1.
</event>
<event>
 7    1  0.5736319E-006  0.5664510E+02  0.7818608E-02  0.1421507E+00
          2   -1    0    0  502    0  0.00000000000E+00  0.00000000000E+00  0.87061572745E+03  0.87061572745E+03  0.00000000000E+00 0. -1.
          1   -1    0    0  501    0 -0.00000000000E+00 -0.00000000000E+00 -0.56837708727E+03  0.56837708727E+03  0.00000000000E+00 0. -1.
         25    2    1    2    0    0 -0.50450239635E+02  0.94421715716E+02  0.15412823842E+03  0.22548128057E+03  0.12500242771E+03 0.  0.
          2    1    1    2  501    0  0.30699747655E+02 -0.42992148428E+02 -0.53027141112E+03  0.53289639592E+03  0.00000000000E+00 0. -1.
          1    1    1    2  502    0  0.19750491981E+02 -0.51429567287E+02  0.67838181289E+03  0.68061513822E+03  0.00000000000E+00 0. -1.
         22    1    3    3    0    0 -0.60991779597E+02 -0.54898352077E+01  0.79391509644E+02  0.10026538422E+03  0.00000000000E+00 0. -1.
         22    1    3    3    0    0  0.10541539962E+02  0.99911550923E+02  0.74736728772E+02  0.12521589636E+03  0.00000000000E+00 0. -1.
</event>
<event>
 7    1  0.5736319E-006  0.2117478E+03  0.7818608E-02  0.1171367E+00
          2   -1    0    0  502    0  0.00000000000E+00  0.00000000000E+00  0.11382455757E+04  0.11382455757E+04  0.00000000000E+00 0. -1.
          1   -1    0    0  501    0 -0.00000000000E+00 -0.00000000000E+00 -0.44427576292E+03  0.44427576292E+03  0.00000000000E+00 0. -1.
         25    2    1    2    0    0  0.68495804010E+02  0.32477330667E+03  0.31746751252E+03  0.47600488183E+03  0.12500260049E+03 0.  0.
          2    1    1    2  501    0 -0.64957916645E+02 -0.13175451896E+03 -0.33685871512E+03  0.36749500426E+03  0.00000000000E+00 0. -1.
          1    1    1    2  502    0 -0.35378873655E+01 -0.19301878771E+03  0.71336101540E+03  0.73902145257E+03  0.00000000000E+00 0. -1.
         22    1    3    3    0    0  0.94748820165E+02  0.30969219986E+03  0.28257827911E+03  0.42981051802E+03  0.00000000000E+00 0. -1.
         22    1    3    3    0    0 -0.26253016155E+02  0.15081106807E+02  0.34889233410E+02  0.46194363809E+02  0.00000000000E+00 0. -1.
</event>
<event>
 7    1  0.5736319E-006  0.1470240E+03  0.7818608E-02  0.1330771E+00
          2   -1    0    0  502    0  0.00000000000E+00  0.00000000000E+00  0.46686566417E+03  0.46686566417E+03  0.00000000000E+00 0. -1.
          1   -1    0    0  501    0 -0.00000000000E+00 -0.00000000000E+00 -0.44488842419E+03  0.44488842419E+03  0.00000000000E+00 0. -1.
         25    2    1    2    0    0  0.10311037048E+03 -0.50434815813E+02 -0.64010627471E+02  0.18137805219E+03  0.12500087296E+03 0.  0.
          2    1    1    2  501    0 -0.14140788405E+03  0.69715007528E+02 -0.30165422377E+03  0.34036986157E+03  0.00000000000E+00 0. -1.
          1    1    1    2  502    0  0.38297513569E+02 -0.19280191715E+02  0.38764209122E+03  0.39000617460E+03  0.00000000000E+00 0. -1.
         22    1    3    3    0    0  0.69752796153E+02 -0.83395054090E+02 -0.90008407195E+01  0.10909263381E+03  0.00000000000E+00 0.  1.
         22    1    3    3    0    0  0.33357574330E+02  0.32960238277E+02 -0.55009786752E+02  0.72285418384E+02  0.00000000000E+00 0.  1.
</event>
<event>
 7    1  0.5736319E-006  0.9572246E+02  0.7818608E-02  0.1408452E+00
          2   -1    0    0  502    0  0.00000000000E+00  0.00000000000E+00  0.28520647089E+04  0.28520647089E+04  0.00000000000E+00 0. -1.
          1   -1    0    0  501    0 -0.00000000000E+00 -0.00000000000E+00 -0.39957250688E+02  0.39957250688E+02  0.00000000000E+00 0. -1.
         25    2    1    2    0    0 -0.23379946553E+02 -0.10426788876E+03  0.99640721031E+03  0.10098863690E+04  0.12499894007E+03 0.  0.
          2    1    1    2  501    0 -0.25518795266E+02  0.23349165024E+02 -0.22656880331E+02  0.41348840921E+02  0.00000000000E+00 0. -1.
          1    1    1    2  502    0  0.48898741819E+02  0.80918723737E+02  0.18383571283E+04  0.18407867497E+04  0.00000000000E+00 0. -1.
         22    1    3    3    0    0  0.44801862417E+02 -0.76559865021E+02  0.46241436385E+03  0.47084568991E+03  0.00000000000E+00 0.  1.
         22    1    3    3    0    0 -0.68181808970E+02 -0.27708023740E+02  0.53399284646E+03  0.53904067910E+03  0.00000000000E+00 0.  1.
</event>
<event>
 7    1  0.5736319E-006  0.6148799E+02  0.7818608E-02  0.1420043E+00
          2   -1    0    0  502    0  0.00000000000E+00  0.00000000000E+00  0.85796589096E+03  0.85796589096E+03  0.00000000000E+00 0. -1.
          1   -1    0    0  501    0 -0.00000000000E+00 -0.00000000000E+00 -0.19672182112E+03  0.19672182112E+03  0.00000000000E+00 0. -1.
         25    2    1    2    0    0 -0.19348356003E+02 -0.13224163101E+02  0.31452410713E+03  0.33926390042E+03  0.12500137119E+03 0.  0.
          2    1    1    2  501    0 -0.48980624178E+02  0.48241320878E+01 -0.17878132233E+03  0.18543229225E+03  0.00000000000E+00 0. -1.
          1    1    1    2  502    0  0.68328980181E+02  0.84000310131E+01  0.52550128504E+03  0.52999151940E+03  0.00000000000E+00 0. -1.
         22    1    3    3    0    0 -0.38238873289E+02 -0.35108168956E+02  0.46522381265E+02  0.69707438028E+02  0.00000000000E+00 0.  1.
         22    1    3    3    0    0  0.18890517286E+02  0.21884005855E+02  0.26800172586E+03  0.26955646240E+03  0.00000000000E+00 0.  1.
</event>
<event>
 7    1  0.5736319E-006  0.8371558E+02  0.7818608E-02  0.1349538E+00
          2   -1    0    0  502    0  0.00000000000E+00  0.00000000000E+00  0.12170177049E+04  0.12170177049E+04  0.00000000000E+00 0. -1.
          1   -1    0    0  501    0 -0.00000000000E+00 -0.00000000000E+00 -0.11953996231E+04  0.11953996231E+04  0.00000000000E+00 0. -1.
         25    2    1    2    0    0 -0.77573410732E+02  0.76855609310E+02 -0.13818924646E+02  0.16655456231E+03  0.12500016325E+03 0.  0.
          2    1    1    2  501    0  0.13813548140E+02 -0.82454729095E+02 -0.11027314123E+04  0.11058960910E+04  0.00000000000E+00 0. -1.
          1    1    1    2  502    0  0.63759862592E+02  0.55991197846E+01  0.11381684187E+04  0.11399666747E+04  0.00000000000E+00 0. -1.
         22    1    3    3    0    0 -0.13471096487E+02  0.89951707913E+02 -0.35488381221E+02  0.97633013877E+02  0.00000000000E+00 0.  1.
         22    1    3    3    0    0 -0.64102314245E+02 -0.13096098603E+02  0.21669456575E+02  0.68921548433E+02  0.00000000000E+00 0.  1.
</event>
<event>
 7    1  0.5736319E-006  0.1003114E+03  0.7818608E-02  0.1397824E+00
          2   -1    0    0  502    0  0.00000000000E+00  0.00000000000E+00  0.10060939398E+04  0.10060939398E+04  0.00000000000E+00 0. -1.
          1   -1    0    0  501    0 -0.00000000000E+00 -0.00000000000E+00 -0.46186606888E+03  0.46186606888E+03  0.00000000000E+00 0. -1.
         25    2    1    2    0    0  0.72973676285E+02 -0.40239132699E+02 -0.57043682907E+02  0.16069556343E+03  0.12499894846E+03 0.  0.
          2    1    1    2  501    0 -0.62189766899E+01 -0.35347656848E+02 -0.34941041928E+03  0.35124887703E+03  0.00000000000E+00 0. -1.
          1    1    1    2  502    0 -0.66754699595E+02  0.75586789547E+02  0.95068197307E+03  0.95601556817E+03  0.00000000000E+00 0. -1.
         22    1    3    3    0    0 -0.66369174101E+01 -0.38315683331E+02  0.25103534335E+02  0.46285285977E+02  0.00000000000E+00 0. -1.
         22    1    3    3    0    0  0.79610593695E+02 -0.19234493680E+01 -0.82147217242E+02  0.11441027745E+03  0.00000000000E+00 0. -1.
</event>
<event>
 7    1  0.5736319E-006  0.3114608E+02  0.7818608E-02  0.1641856E+00
          2   -1    0    0  502    0  0.00000000000E+00  0.00000000000E+00  0.93780936300E+03  0.93780936300E+03  0.00000000000E+00 0. -1.
          1   -1    0    0  501    0 -0.00000000000E+00 -0.00000000000E+00 -0.36656795052E+02  0.36656795052E+02  0.00000000000E+00 0. -1.
         25    2    1    2    0    0  0.32120231130E+02 -0.16996098533E+02  0.22013786680E+03  0.25574663894E+03  0.12500034526E+03 0.  0.
          2    1    1    2  501    0 -0.13861311216E+01  0.22310553403E+02 -0.11749612059E+02  0.25253426226E+02  0.00000000000E+00 0. -1.
          1    1    1    2  502    0 -0.30734100009E+02 -0.53144548699E+01  0.69276431321E+03  0.69346609289E+03  0.00000000000E+00 0. -1.
         22    1    3    3    0    0 -0.27214544670E+01 -0.68192230749E+02  0.11475502020E+03  0.13351517259E+03  0.00000000000E+00 0. -1.
         22    1    3    3    0    0  0.34841685597E+02  0.51196132216E+02  0.10538284660E+03  0.12223146635E+03  0.00000000000E+00 0. -1.
</event>
<event>
 7    1  0.5736319E-006  0.5347163E+02  0.7818608E-02  0.1515531E+00
          2   -1    0    0  502    0  0.00000000000E+00  0.00000000000E+00  0.85239900286E+03  0.85239900286E+03  0.00000000000E+00 0. -1.
          1   -1    0    0  501    0 -0.00000000000E+00 -0.00000000000E+00 -0.17258593868E+03  0.17258593868E+03  0.00000000000E+00 0. -1.
         25    2    1    2    0    0  0.54682523708E+02 -0.33477988188E+02  0.23442133726E+03  0.27329362673E+03  0.12500035582E+03 0.  0.
          2    1    1    2  501    0 -0.17298665290E+01  0.28425134203E+02 -0.15063116199E+03  0.15329947050E+03  0.00000000000E+00 0. -1.
          1    1    1    2  502    0 -0.52952657179E+02  0.50528539850E+01  0.59602288891E+03  0.59839184432E+03  0.00000000000E+00 0. -1.
         22    1    3    3    0    0  0.77317466734E+02 -0.49636022362E+02  0.22642511169E+03  0.24435641301E+03  0.00000000000E+00 0.  1.
         22    1    3    3    0    0 -0.22634943025E+02  0.16158034174E+02  0.79962255727E+01  0.28937213714E+02  0.00000000000E+00 0.  1.
</event>
<event>
 7    1  0.5736319E-006  0.5594977E+02  0.7818608E-02  0.1444137E+00
          2   -1    0    0  502    0  0.00000000000E+00  0.00000000000E+00  0.63543011169E+02  0.63543011169E+02  0.00000000000E+00 0. -1.
          1   -1    0    0  501    0 -0.00000000000E+00 -0.00000000000E+00 -0.49394212203E+03  0.49394212203E+03  0.00000000000E+00 0. -1.
         25    2    1    2    0    0 -0.38716395212E+02 -0.36752953406E+02 -0.57719903682E+02  0.14766352976E+03  0.12499276738E+03 0.  0.
          2    1    1    2  501    0 -0.16111490644E+01  0.56909375326E+02 -0.35786570447E+03  0.36236602385E+03  0.00000000000E+00 0. -1.
          1    1    1    2  502    0  0.40327544276E+02 -0.20156421920E+02 -0.14813502705E+02  0.47455579591E+02  0.00000000000E+00 0. -1.
         22    1    3    3    0    0  0.52040021946E-01  0.22967177984E+02 -0.71538289033E+02  0.75134684204E+02  0.00000000000E+00 0.  1.
         22    1    3    3    0    0 -0.38768435234E+02 -0.59720131390E+02  0.13818385351E+02  0.72528845555E+02  0.00000000000E+00 0.  1.
</event>
<event>
 7    1  0.5736319E-006  0.7594273E+02  0.7818608E-02  0.1396005E+00
          2   -1    0    0  502    0  0.00000000000E+00  0.00000000000E+00  0.17943952373E+04  0.17943952373E+04  0.00000000000E+00 0. -1.
          1   -1    0    0  501    0 -0.00000000000E+00 -0.00000000000E+00 -0.87573082561E+02  0.87573082561E+02  0.00000000000E+00 0. -1.
         25    2    1    2    0    0 -0.76690519917E+00  0.32268718852E+02  0.54795511451E+03  0.56295837570E+03  0.12500186755E+03 0.  0.
          2    1    1    2  501    0  0.26841304178E+02 -0.72685733577E+02 -0.60741062373E+02  0.98453786792E+02  0.00000000000E+00 0. -1.
          1    1    1    2  502    0 -0.26074398979E+02  0.40417014725E+02  0.12196081026E+04  0.12205561574E+04  0.00000000000E+00 0. -1.
         22    1    3    3    0    0 -0.28151869890E+02 -0.29707276504E+02  0.77443150871E+02  0.87592760388E+02  0.00000000000E+00 0. -1.
         22    1    3    3    0    0  0.27384964690E+02  0.61975995356E+02  0.47051196364E+03  0.47536561531E+03  0.00000000000E+00 0. -1.
</event>
<event>
 7    1  0.5736319E-006  0.1842659E+03  0.7818608E-02  0.1252225E+00
          2   -1    0    0  502    0  0.00000000000E+00  0.00000000000E+00  0.43783992317E+03  0.43783992317E+03  0.00000000000E+00 0. -1.
          1   -1    0    0  501    0 -0.00000000000E+00 -0.00000000000E+00 -0.14579402878E+04  0.14579402878E+04  0.00000000000E+00 0. -1.
         25    2    1    2    0    0 -0.17718348034E+03 -0.17703257228E+03 -0.69461376691E+03  0.74889780447E+03  0.12500047603E+03 0.  0.
          2    1    1    2  501    0  0.35898839888E+02  0.61617532236E+02 -0.71406105628E+03  0.71761315420E+03  0.00000000000E+00 0. -1.
          1    1    1    2  502    0  0.14128464045E+03  0.11541504004E+03  0.38857445858E+03  0.42926925228E+03  0.00000000000E+00 0. -1.
         22    1    3    3    0    0 -0.22441155567E+01  0.12669745512E+02 -0.74268858513E+01  0.14856552070E+02  0.00000000000E+00 0. -1.
         22    1    3    3    0    0 -0.17493936479E+03 -0.18970231779E+03 -0.68718688106E+03  0.73404125240E+03  0.00000000000E+00 0. -1.
</event>
<event>
 7    1  0.5736319E-006  0.6711026E+02  0.7818608E-02  0.1379610E+00
          2   -1    0    0  502    0  0.00000000000E+00  0.00000000000E+00  0.21247735676E+04  0.21247735676E+04  0.00000000000E+00 0. -1.
          1   -1    0    0  501    0 -0.00000000000E+00 -0.00000000000E+00 -0.23216103044E+02  0.23216103044E+02  0.00000000000E+00 0. -1.
         25    2    1    2    0    0  0.88481037437E+01 -0.16725577189E+02  0.69509559642E+03  0.70649879636E+03  0.12499850885E+03 0.  0.
          2    1    1    2  501    0  0.61653360702E+02  0.26507549807E+02  0.51327253374E+02  0.84488307011E+02  0.00000000000E+00 0. -1.
          1    1    1    2  502    0 -0.70501464446E+02 -0.97819726180E+01  0.13551346148E+04  0.13570025673E+04  0.00000000000E+00 0. -1.
         22    1    3    3    0    0  0.37973815660E+01  0.48515117663E+02  0.45671163576E+03  0.45929691376E+03  0.00000000000E+00 0. -1.
         22    1    3    3    0    0  0.50507221777E+01 -0.65240694852E+02  0.23838396066E+03  0.24720188260E+03  0.00000000000E+00 0. -1.
</event>
<event>
 7    1  0.5736319E-006  0.6954671E+02  0.7818608E-02  0.1406519E+00
          2   -1    0    0  502    0  0.00000000000E+00  0.00000000000E+00  0.43792102765E+02  0.43792102765E+02  0.00000000000E+00 0. -1.
          1   -1    0    0  501    0 -0.00000000000E+00 -0.00000000000E+00 -0.24143982051E+04  0.24143982051E+04  0.00000000000E+00 0. -1.
         25    2    1    2    0    0  0.10898890028E+02  0.20878222772E+02 -0.26028987284E+03  0.28970858510E+03  0.12500224153E+03 0.  0.
          2    1    1    2  501    0 -0.22589634837E+02 -0.67776370817E+02 -0.21182906002E+04  0.21194949858E+04  0.00000000000E+00 0. -1.
          1    1    1    2  502    0  0.11690744809E+02  0.46898148045E+02  0.79743707367E+01  0.48986736908E+02  0.00000000000E+00 0. -1.
         22    1    3    3    0    0 -0.36831038253E+02  0.56314971014E+02 -0.15049401912E+03  0.16485251327E+03  0.00000000000E+00 0.  1.
         22    1    3    3    0    0  0.47729928281E+02 -0.35436748242E+02 -0.10979585372E+03  0.12485607183E+03  0.00000000000E+00 0.  1.
</event>
<event>
 7    1  0.5736319E-006  0.4684207E+02  0.7818608E-02  0.1534223E+00
          2   -1    0    0  502    0  0.00000000000E+00  0.00000000000E+00  0.47289978107E+04  0.47289978107E+04  0.00000000000E+00 0. -1.
          1   -1    0    0  501    0 -0.00000000000E+00 -0.00000000000E+00 -0.14062525338E+02  0.14062525338E+02  0.00000000000E+00 0. -1.
         25    2    1    2    0    0 -0.49161231807E+01 -0.20342778714E+02  0.11843362381E+04  0.11911047102E+04  0.12506042141E+03 0.  0.
          2    1    1    2  501    0 -0.19272755965E+02 -0.21282735988E+02  0.90890016520E+01  0.30116505851E+02  0.00000000000E+00 0. -1.
          1    1    1    2  502    0  0.24188879146E+02  0.41625514702E+02  0.35215100456E+04  0.35218391199E+04  0.00000000000E+00 0. -1.
         22    1    3    3    0    0 -0.55047368747E+02  0.70429028460E+00  0.89583320455E+03  0.89752316918E+03  0.00000000000E+00 0.  1.
         22    1    3    3    0    0  0.50131245566E+02 -0.21047068999E+02  0.28850303352E+03  0.29358154105E+03  0.00000000000E+00 0.  1.
</event>
<event>
 7    1  0.5736319E-006  0.6689787E+02  0.7818608E-02  0.1479371E+00
          2   -1    0    0  502    0  0.00000000000E+00  0.00000000000E+00  0.14652544380E+04  0.14652544380E+04  0.00000000000E+00 0. -1.
          1   -1    0    0  501    0 -0.00000000000E+00 -0.00000000000E+00 -0.35724505317E+02  0.35724505317E+02  0.00000000000E+00 0. -1.
         25    2    1    2    0    0  0.40976346397E+02  0.94195249106E+01  0.39997729785E+03  0.42115866040E+03  0.12499996006E+03 0.  0.
          2    1    1    2  501    0  0.23197171853E+02  0.17749709926E+02 -0.15075733858E+02  0.32870027925E+02  0.00000000000E+00 0. -1.
          1    1    1    2  502    0 -0.64173518251E+02 -0.27169234836E+02  0.10446283687E+04  0.10469502550E+04  0.00000000000E+00 0. -1.
         22    1    3    3    0    0 -0.13108988052E+02  0.36097499457E+02  0.31283571213E+03  0.31518416492E+03  0.00000000000E+00 0. -1.
         22    1    3    3    0    0  0.54085334449E+02 -0.26677974547E+02  0.87141585725E+02  0.10597449547E+03  0.00000000000E+00 0. -1.
</event>
<event>
 7    1  0.5736319E-006  0.1120611E+03  0.7818608E-02  0.1453839E+00
          2   -1    0    0  502    0  0.00000000000E+00  0.00000000000E+00  0.54052519976E+03  0.54052519976E+03  0.00000000000E+00 0. -1.
          1   -1    0    0  501    0 -0.00000000000E+00 -0.00000000000E+00 -0.13880715767E+03  0.13880715767E+03  0.00000000000E+00 0. -1.
         25    2    1    2    0    0  0.68732942263E+02  0.76170201717E+02 -0.48292475936E+02  0.16877059969E+03  0.12500094043E+03 0.  0.
          2    1    1    2  501    0 -0.85311044193E+01  0.19139404079E+02 -0.18943785634E+02  0.28248248534E+02  0.00000000000E+00 0. -1.
          1    1    1    2  502    0 -0.60201837844E+02 -0.95309605796E+02  0.46895430366E+03  0.48231350920E+03  0.00000000000E+00 0. -1.
         22    1    3    3    0    0  0.65628785719E+02  0.25124669119E+02 -0.81639406429E+02  0.10771898252E+03  0.00000000000E+00 0.  1.
         22    1    3    3    0    0  0.31041565442E+01  0.51045532598E+02  0.33346930493E+02  0.61051617173E+02  0.00000000000E+00 0.  1.
</event>
<event>
 7    1  0.5736319E-006  0.9173419E+02  0.7818608E-02  0.1390747E+00
          2   -1    0    0  502    0  0.00000000000E+00  0.00000000000E+00  0.63176747858E+03  0.63176747858E+03  0.00000000000E+00 0. -1.
          1   -1    0    0  501    0 -0.00000000000E+00 -0.00000000000E+00 -0.46385337498E+03  0.46385337498E+03  0.00000000000E+00 0. -1.
         25    2    1    2    0    0 -0.59088865343E+02 -0.21444254218E+02  0.17671243939E+03  0.22539661538E+03  0.12499999177E+03 0.  0.
          2    1    1    2  501    0 -0.21996497285E+02 -0.35223609749E+02 -0.43282416481E+03  0.43481180553E+03  0.00000000000E+00 0. -1.
          1    1    1    2  502    0  0.81085362628E+02  0.56667863968E+02  0.42402582902E+03  0.43541243266E+03  0.00000000000E+00 0. -1.
         22    1    3    3    0    0  0.26520945068E+02  0.71039516929E+00  0.11384870371E+03  0.11689906982E+03  0.00000000000E+00 0.  1.
         22    1    3    3    0    0 -0.85609810411E+02 -0.22154649387E+02  0.62863735678E+02  0.10849754555E+03  0.00000000000E+00 0.  1.
</event>
<event>
 7    1  0.5736319E-006  0.7244108E+02  0.7818608E-02  0.1503357E+00
          2   -1    0    0  502    0  0.00000000000E+00  0.00000000000E+00  0.35281265716E+03  0.35281265716E+03  0.00000000000E+00 0. -1.
          1   -1    0    0  501    0 -0.00000000000E+00 -0.00000000000E+00 -0.93048483749E+02  0.93048483749E+02  0.00000000000E+00 0. -1.
         25    2    1    2    0    0  0.52035171887E+02  0.98479397161E+01  0.72382832233E+02  0.15384784326E+03  0.12500097378E+03 0.  0.
          2    1    1    2  501    0  0.22795863676E+02 -0.12478261696E+01 -0.43515620460E+02  0.49140794611E+02  0.00000000000E+00 0. -1.
          1    1    1    2  502    0 -0.74831035564E+02 -0.86001135465E+01  0.23089696163E+03  0.24287250303E+03  0.00000000000E+00 0. -1.
         22    1    3    3    0    0  0.19732066583E+02 -0.35199146783E+02  0.87529628161E+02  0.96383453932E+02  0.00000000000E+00 0. -1.
         22    1    3    3    0    0  0.32303105305E+02  0.45047086499E+02 -0.15146795928E+02  0.57464389332E+02  0.00000000000E+00 0. -1.
</event>
<event>
 7    1  0.5736319E-006  0.1132489E+03  0.7818608E-02  0.1386658E+00
          2   -1    0    0  502    0  0.00000000000E+00  0.00000000000E+00  0.10479724464E+04  0.10479724464E+04  0.00000000000E+00 0. -1.
          1   -1    0    0  501    0 -0.00000000000E+00 -0.00000000000E+00 -0.18026912498E+03  0.18026912498E+03  0.00000000000E+00 0. -1.
         25    2    1    2    0    0  0.57199482545E+02  0.12484872907E+03 -0.19888124265E+02  0.18676015208E+03  0.12499932385E+03 0.  0.
          2    1    1    2  501    0 -0.37447091015E+02 -0.96241130752E+02 -0.41822843105E+02  0.11141718933E+03  0.00000000000E+00 0. -1.
          1    1    1    2  502    0 -0.19752391530E+02 -0.28607598316E+02  0.92941428883E+03  0.93006423001E+03  0.00000000000E+00 0. -1.
         22    1    3    3    0    0 -0.39168133425E+02  0.31947926581E+02 -0.15362631285E+02  0.52828241773E+02  0.00000000000E+00 0.  1.
         22    1    3    3    0    0  0.96367615970E+02  0.92900802488E+02 -0.45254929797E+01  0.13393191030E+03  0.00000000000E+00 0.  1.
</event>
<event>
 7    1  0.5736319E-006  0.9145818E+02  0.7818608E-02  0.1337010E+00
          2   -1    0    0  502    0  0.00000000000E+00  0.00000000000E+00  0.41933645083E+03  0.41933645083E+03  0.00000000000E+00 0. -1.
          1   -1    0    0  501    0 -0.00000000000E+00 -0.00000000000E+00 -0.22557536065E+04  0.22557536065E+04  0.00000000000E+00 0. -1.
         25    2    1    2    0    0  0.90176133845E+01  0.12712964388E+03 -0.10095907361E+04  0.10252519933E+04  0.12499972672E+03 0.  0.
          2    1    1    2  501    0 -0.46153705722E+02 -0.73457105004E+02 -0.12342120793E+04  0.12372572762E+04  0.00000000000E+00 0. -1.
          1    1    1    2  502    0  0.37136092338E+02 -0.53672538875E+02  0.40738565969E+03  0.41258078785E+03  0.00000000000E+00 0. -1.
         22    1    3    3    0    0 -0.11549452006E+01  0.15134606219E+03 -0.89339389346E+03  0.90612339850E+03  0.00000000000E+00 0. -1.
         22    1    3    3    0    0  0.10172558585E+02 -0.24216418309E+02 -0.11619684267E+03  0.11912859485E+03  0.00000000000E+00 0. -1.
</event>
<event>
 7    1  0.5736319E-006  0.1379531E+03  0.7818608E-02  0.1369725E+00
          2   -1    0    0  502    0  0.00000000000E+00  0.00000000000E+00  0.84975335674E+03  0.84975335674E+03  0.00000000000E+00 0. -1.
          1   -1    0    0  501    0 -0.00000000000E+00 -0.00000000000E+00 -0.67231101643E+02  0.67231101643E+02  0.00000000000E+00 0. -1.
         25    2    1    2    0    0  0.42007851840E+02 -0.14870127346E+03  0.31262392742E+03  0.37045206902E+03  0.12499714838E+03 0.  0.
          2    1    1    2  501    0 -0.13738276706E+02  0.13211303648E+03  0.79580464182E+02  0.15484070826E+03  0.00000000000E+00 0. -1.
          1    1    1    2  502    0 -0.28269575133E+02  0.16588236982E+02  0.39031786349E+03  0.39169168110E+03  0.00000000000E+00 0. -1.
         22    1    3    3    0    0  0.60710079719E+01 -0.64284317494E+02  0.26184221680E+02  0.69677428759E+02  0.00000000000E+00 0. -1.
         22    1    3    3    0    0  0.35936843868E+02 -0.84416955964E+02  0.28643970574E+03  0.30077464026E+03  0.00000000000E+00 0. -1.
</event>
<event>
 7    1  0.5736319E-006  0.2319918E+03  0.7818608E-02  0.1237240E+00
          2   -1    0    0  502    0  0.00000000000E+00  0.00000000000E+00  0.97689434716E+03  0.97689434716E+03  0.00000000000E+00 0. -1.
          1   -1    0    0  501    0 -0.00000000000E+00 -0.00000000000E+00 -0.12473596583E+04  0.12473596583E+04  0.00000000000E+00 0. -1.
         25    2    1    2    0    0  0.27137768531E+03 -0.11866886976E+03  0.61883809885E+03  0.69736229101E+03  0.12500169442E+03 0.  0.
          2    1    1    2  501    0 -0.20831285218E+03  0.99636869580E+02 -0.11935056798E+04  0.12156387448E+04  0.00000000000E+00 0. -1.
          1    1    1    2  502    0 -0.63064833129E+02  0.19032000175E+02  0.30420226976E+03  0.31125296968E+03  0.00000000000E+00 0. -1.
         22    1    3    3    0    0  0.18648972445E+03 -0.30957463922E+02  0.45777019631E+03  0.49526794215E+03  0.00000000000E+00 0.  1.
         22    1    3    3    0    0  0.84887960859E+02 -0.87711405833E+02  0.16106790254E+03  0.20209434886E+03  0.00000000000E+00 0.  1.
</event>
<event>
 7    1  0.5736319E-006  0.2286324E+03  0.7818608E-02  0.1320498E+00
          2   -1    0    0  502    0  0.00000000000E+00  0.00000000000E+00  0.39080872807E+03  0.39080872807E+03  0.00000000000E+00 0. -1.
          1   -1    0    0  501    0 -0.00000000000E+00 -0.00000000000E+00 -0.20889651944E+04  0.20889651944E+04  0.00000000000E+00 0. -1.
         25    2    1    2    0    0  0.17670390177E+03 -0.15041263835E+03  0.12743641453E+03  0.29277793448E+03  0.12502259194E+03 0.  0.
          2    1    1    2  501    0  0.13370528764E+02  0.27077290474E+02 -0.19351017094E+04  0.19353373289E+04  0.00000000000E+00 0. -1.
          1    1    1    2  502    0 -0.19007443053E+03  0.12333534787E+03  0.10950882856E+03  0.25165865912E+03  0.00000000000E+00 0. -1.
         22    1    3    3    0    0  0.11875652208E+03 -0.34369652722E+02  0.21888307263E+02  0.12555270829E+03  0.00000000000E+00 0.  1.
         22    1    3    3    0    0  0.57947379687E+02 -0.11604298563E+03  0.10554810726E+03  0.16722522619E+03  0.00000000000E+00 0.  1.
</event>
<event>
 7    1  0.5736319E-006  0.6329010E+02  0.7818608E-02  0.1401764E+00
          2   -1    0    0  502    0  0.00000000000E+00  0.00000000000E+00  0.16773359515E+04  0.16773359515E+04  0.00000000000E+00 0. -1.
          1   -1    0    0  501    0 -0.00000000000E+00 -0.00000000000E+00 -0.10785310491E+04  0.10785310491E+04  0.00000000000E+00 0. -1.
         25    2    1    2    0    0  0.69684471919E+01  0.90920518254E+01  0.12493676639E+03  0.17710210289E+03  0.12499893836E+03 0.  0.
          2    1    1    2  501    0  0.83311807708E+00  0.55130576445E+02 -0.10510399008E+04  0.10524851294E+04  0.00000000000E+00 0. -1.
          1    1    1    2  502    0 -0.78015652690E+01 -0.64222628271E+02  0.15249080368E+04  0.15262797683E+04  0.00000000000E+00 0. -1.
         22    1    3    3    0    0 -0.54412216021E+02  0.27551233700E+02  0.53550186673E+02  0.81162689848E+02  0.00000000000E+00 0. -1.
         22    1    3    3    0    0  0.61380663213E+02 -0.18459181875E+02  0.71386579715E+02  0.95939413044E+02  0.00000000000E+00 0. -1.
</event>
<event>
 7    1  0.5736319E-006  0.5306570E+02  0.7818608E-02  0.1482515E+00
          2   -1    0    0  502    0  0.00000000000E+00  0.00000000000E+00  0.33109924054E+03  0.33109924054E+03  0.00000000000E+00 0. -1.
          1   -1    0    0  501    0 -0.00000000000E+00 -0.00000000000E+00 -0.70717692540E+03  0.70717692540E+03  0.00000000000E+00 0. -1.
         25    2    1    2    0    0  0.33429502186E+02  0.34075402750E+02  0.51952338247E+02  0.14353775055E+03  0.12500150276E+03 0.  0.
          2    1    1    2  501    0 -0.29949673670E+02  0.20002282808E+02 -0.65773895335E+03  0.65872422532E+03  0.00000000000E+00 0. -1.
          1    1    1    2  502    0 -0.34798285154E+01 -0.54077685558E+02  0.22970893024E+03  0.23601419007E+03  0.00000000000E+00 0. -1.
         22    1    3    3    0    0 -0.19328849612E+02  0.23236562895E+02  0.78042619619E+02  0.83691055433E+02  0.00000000000E+00 0.  1.
         22    1    3    3    0    0  0.52758351797E+02  0.10838839855E+02 -0.26090281372E+02  0.59846695112E+02  0.00000000000E+00 0.  1.
</event>
<event>
 7    1  0.5736319E-006  0.2276436E+03  0.7818608E-02  0.1216334E+00
          2   -1    0    0  502    0  0.00000000000E+00  0.00000000000E+00  0.87182392758E+03  0.87182392758E+03  0.00000000000E+00 0. -1.
          1   -1    0    0  501    0 -0.00000000000E+00 -0.00000000000E+00 -0.11821189274E+04  0.11821189274E+04  0.00000000000E+00 0. -1.
         25    2    1    2    0    0  0.25305015170E+03  0.11707522753E+03  0.29068266548E+03  0.42172982291E+03  0.12497457076E+03 0.  0.
          2    1    1    2  501    0 -0.46593070063E+02 -0.69174266434E+02 -0.10931603222E+04  0.10963373036E+04  0.00000000000E+00 0. -1.
          1    1    1    2  502    0 -0.20645708164E+03 -0.47900961094E+02  0.49218265688E+03  0.53587572847E+03  0.00000000000E+00 0. -1.
         22    1    3    3    0    0  0.28224140194E+01 -0.33056916543E+01 -0.10928128984E+02  0.11760851215E+02  0.00000000000E+00 0. -1.
         22    1    3    3    0    0  0.25022773768E+03  0.12038091918E+03  0.30161079447E+03  0.40996897169E+03  0.00000000000E+00 0. -1.
</event>
<event>
 7    1  0.5736319E-006  0.8798108E+02  0.7818608E-02  0.1389245E+00
          2   -1    0    0  502    0  0.00000000000E+00  0.00000000000E+00  0.28621655812E+04  0.28621655812E+04  0.00000000000E+00 0. -1.
          1   -1    0    0  501    0 -0.00000000000E+00 -0.00000000000E+00 -0.29635333008E+04  0.29635333008E+04  0.00000000000E+00 0. -1.
         25    2    1    2    0    0 -0.63984002013E+02  0.10689492206E+02 -0.16700962113E+04  0.16760235225E+04  0.12500109981E+03 0.  0.
          2    1    1    2  501    0 -0.19194787136E+02 -0.39397790494E+02 -0.12894240589E+04  0.12901686050E+04  0.00000000000E+00 0. -1.
          1    1    1    2  502    0  0.83178789150E+02  0.28708298287E+02  0.28581525506E+04  0.28595067546E+04  0.00000000000E+00 0. -1.
         22    1    3    3    0    0 -0.80887371547E+02 -0.16888007665E+02 -0.62645563068E+03  0.63188181560E+03  0.00000000000E+00 0. -1.
         22    1    3    3    0    0  0.16903369534E+02  0.27577499872E+02 -0.10436405807E+04  0.10441417069E+04  0.00000000000E+00 0. -1.
</event>
<event>
 7    1  0.5736319E-006  0.4169219E+02  0.7818608E-02  0.1610276E+00
          2   -1    0    0  502    0  0.00000000000E+00  0.00000000000E+00  0.48371843415E+03  0.48371843415E+03  0.00000000000E+00 0. -1.
          1   -1    0    0  501    0 -0.00000000000E+00 -0.00000000000E+00 -0.18869161942E+03  0.18869161942E+03  0.00000000000E+00 0. -1.
         25    2    1    2    0    0 -0.25085019138E+02 -0.11226562691E+02  0.10203116079E+03  0.16367737514E+03  0.12499852585E+03 0.  0.
          2    1    1    2  501    0  0.42036567741E+02  0.48458078442E+00 -0.15477539395E+03  0.16038307398E+03  0.00000000000E+00 0. -1.
          1    1    1    2  502    0 -0.16951548603E+02  0.10741981906E+02  0.34777104789E+03  0.34834960446E+03  0.00000000000E+00 0. -1.
         22    1    3    3    0    0  0.38960641848E+02 -0.18454185512E+02  0.87594253459E+02  0.97628079030E+02  0.00000000000E+00 0. -1.
         22    1    3    3    0    0 -0.64045660986E+02  0.72276228214E+01  0.14436907329E+02  0.66049296105E+02  0.00000000000E+00 0. -1.
</event>
<event>
 7    1  0.5736319E-006  0.7027307E+02  0.7818608E-02  0.1411214E+00
          2   -1    0    0  502    0  0.00000000000E+00  0.00000000000E+00  0.68310489398E+02  0.68310489398E+02  0.00000000000E+00 0. -1.
          1   -1    0    0  501    0 -0.00000000000E+00 -0.00000000000E+00 -0.28210421803E+04  0.28210421803E+04  0.00000000000E+00 0. -1.
         25    2    1    2    0    0  0.48492820181E+02 -0.70326725469E+01 -0.94063003658E+02  0.16392871527E+03  0.12499505167E+03 0.  0.
          2    1    1    2  501    0  0.13787979802E+02 -0.44000653174E+02 -0.26429906757E+04  0.26433928724E+04  0.00000000000E+00 0. -1.
          1    1    1    2  502    0 -0.62280799983E+02  0.51033325721E+02 -0.15678011571E+02  0.82031082081E+02  0.00000000000E+00 0. -1.
         22    1    3    3    0    0  0.67293529839E+02  0.25549683334E+02 -0.10262234877E+03  0.12534971856E+03  0.00000000000E+00 0. -1.
         22    1    3    3    0    0 -0.18800709659E+02 -0.32582355881E+02  0.85593451105E+01  0.38578996710E+02  0.00000000000E+00 0. -1.
</event>
<event>
 7    1  0.5736319E-006  0.7988231E+02  0.7818608E-02  0.1382289E+00
          2   -1    0    0  502    0  0.00000000000E+00  0.00000000000E+00  0.16922664397E+04  0.16922664397E+04  0.00000000000E+00 0. -1.
          1   -1    0    0  501    0 -0.00000000000E+00 -0.00000000000E+00 -0.39937241799E+02  0.39937241799E+02  0.00000000000E+00 0. -1.
         25    2    1    2    0    0  0.79349201178E+02 -0.81536428188E+02  0.84415551754E+03  0.86091083476E+03  0.12499777105E+03 0.  0.
          2    1    1    2  501    0 -0.29044539371E+02  0.72782860933E+02  0.19217473536E+02  0.80686066963E+02  0.00000000000E+00 0. -1.
          1    1    1    2  502    0 -0.50304661807E+02  0.87535672550E+01  0.78895620684E+03  0.79060677979E+03  0.00000000000E+00 0. -1.
         22    1    3    3    0    0 -0.14611964315E+01  0.56939733825E+01 -0.21748564644E+01  0.62678886822E+01  0.00000000000E+00 0. -1.
         22    1    3    3    0    0  0.80810397609E+02 -0.87230401570E+02  0.84633037400E+03  0.85464294608E+03  0.00000000000E+00 0. -1.
</event>
<event>
 7    1  0.5736319E-006  0.1089763E+03  0.7818608E-02  0.1364978E+00
          2   -1    0    0  502    0  0.00000000000E+00  0.00000000000E+00  0.67306061074E+03  0.67306061074E+03  0.00000000000E+00 0. -1.
          1   -1    0    0  501    0 -0.00000000000E+00 -0.00000000000E+00 -0.87025586288E+03  0.87025586288E+03  0.00000000000E+00 0. -1.
         25    2    1    2    0    0  0.22221476713E+02  0.95412878824E+02  0.28257262096E+01  0.15884246131E+03  0.12500212524E+03 0.  0.
          2    1    1    2  501    0  0.42688717478E+02 -0.63775429348E+01 -0.78652566180E+03  0.78770909372E+03  0.00000000000E+00 0. -1.
          1    1    1    2  502    0 -0.64910194192E+02 -0.89035335890E+02  0.58650468345E+03  0.59676491859E+03  0.00000000000E+00 0. -1.
         22    1    3    3    0    0 -0.48861484852E+02  0.34832324108E+02 -0.18977181131E+02  0.62935434442E+02  0.00000000000E+00 0. -1.
         22    1    3    3    0    0  0.71082961565E+02  0.60580554716E+02  0.21802907340E+02  0.95907026870E+02  0.00000000000E+00 0. -1.
</event>
<event>
 7    1  0.5736319E-006  0.6536790E+02  0.7818608E-02  0.1413454E+00
          2   -1    0    0  502    0  0.00000000000E+00  0.00000000000E+00  0.40422242080E+02  0.40422242080E+02  0.00000000000E+00 0. -1.
          1   -1    0    0  501    0 -0.00000000000E+00 -0.00000000000E+00 -0.74655319044E+03  0.74655319044E+03  0.00000000000E+00 0. -1.
         25    2    1    2    0    0 -0.56316708239E+02  0.75059873863E+02 -0.29652724283E+03  0.33519976657E+03  0.12499968591E+03 0.  0.
          2    1    1    2  501    0  0.46812408409E+02 -0.13480091971E+02 -0.37943143602E+03  0.38254585228E+03  0.00000000000E+00 0. -1.
          1    1    1    2  502    0  0.95042998292E+01 -0.61579781892E+02 -0.30172269516E+02  0.69229813670E+02  0.00000000000E+00 0. -1.
         22    1    3    3    0    0 -0.76550205709E+02 -0.17652098923E+01 -0.13539035121E+03  0.15554291099E+03  0.00000000000E+00 0. -1.
         22    1    3    3    0    0  0.20233497471E+02  0.76825083755E+02 -0.16113689162E+03  0.17965685557E+03  0.00000000000E+00 0. -1.
</event>
<event>
 7    1  0.5736319E-006  0.1180184E+03  0.7818608E-02  0.1407587E+00
          2   -1    0    0  502    0  0.00000000000E+00  0.00000000000E+00  0.46278560859E+03  0.46278560859E+03  0.00000000000E+00 0. -1.
          1   -1    0    0  501    0 -0.00000000000E+00 -0.00000000000E+00 -0.16327866988E+04  0.16327866988E+04  0.00000000000E+00 0. -1.
         25    2    1    2    0    0 -0.91577331343E+02 -0.34467024678E+02  0.57828295432E+02  0.16894667609E+03  0.12499793680E+03 0.  0.
          2    1    1    2  501    0  0.10160575298E+03  0.60871784470E+02 -0.15744285190E+04  0.15788775331E+04  0.00000000000E+00 0. -1.
          1    1    1    2  502    0 -0.10028421642E+02 -0.26404759791E+02  0.34659913332E+03  0.34774809820E+03  0.00000000000E+00 0. -1.
         22    1    3    3    0    0 -0.58308463279E+02  0.11005619827E+02  0.87147814479E+02  0.10543121988E+03  0.00000000000E+00 0.  1.
         22    1    3    3    0    0 -0.33268868063E+02 -0.45472644505E+02 -0.29319519047E+02  0.63515456210E+02  0.00000000000E+00 0.  1.
</event>
<event>
 7    1  0.5736319E-006  0.4644171E+02  0.7818608E-02  0.1562533E+00
          2   -1    0    0  502    0  0.00000000000E+00  0.00000000000E+00  0.14766367585E+04  0.14766367585E+04  0.00000000000E+00 0. -1.
          1   -1    0    0  501    0 -0.00000000000E+00 -0.00000000000E+00 -0.53908702971E+03  0.53908702971E+03  0.00000000000E+00 0. -1.
         25    2    1    2    0    0 -0.57274744265E+02 -0.32021770564E+02  0.62160000217E+03  0.63743038681E+03  0.12500058085E+03 0.  0.
          2    1    1    2  501    0  0.13865665185E+02  0.19754620600E+02 -0.53029666025E+03  0.53084559863E+03  0.00000000000E+00 0. -1.
          1    1    1    2  502    0  0.43409079080E+02  0.12267149964E+02  0.84624638690E+03  0.84744780280E+03  0.00000000000E+00 0. -1.
         22    1    3    3    0    0  0.25434568197E+01 -0.31684216984E+02  0.33073885327E+02  0.45872003107E+02  0.00000000000E+00 0. -1.
         22    1    3    3    0    0 -0.59818201085E+02 -0.33755357989E+00  0.58852611684E+03  0.59155838370E+03  0.00000000000E+00 0. -1.
</event>
<event>
 7    1  0.5736319E-006  0.1279419E+03  0.7818608E-02  0.1287245E+00
          2   -1    0    0  502    0  0.00000000000E+00  0.00000000000E+00  0.19502960595E+04  0.19502960595E+04  0.00000000000E+00 0. -1.
          1   -1    0    0  501    0 -0.00000000000E+00 -0.00000000000E+00 -0.26446462838E+03  0.26446462838E+03  0.00000000000E+00 0. -1.
         25    2    1    2    0    0 -0.15928233705E+03  0.10054577656E+03  0.71304244864E+03  0.74802126706E+03  0.12500386529E+03 0.  0.
          2    1    1    2  501    0  0.51438728557E+02 -0.52063194019E+02 -0.23861074004E+03  0.24958286045E+03  0.00000000000E+00 0. -1.
          1    1    1    2  502    0  0.10784360850E+03 -0.48482582543E+02  0.12113997225E+04  0.12171565603E+04  0.00000000000E+00 0. -1.
         22    1    3    3    0    0 -0.16417657371E+03  0.12012710132E+03  0.67454889773E+03  0.70455708304E+03  0.00000000000E+00 0. -1.
         22    1    3    3    0    0  0.48942366555E+01 -0.19581324758E+02  0.38493550905E+02  0.43464184025E+02  0.00000000000E+00 0. -1.
</event>
<event>
 7    1  0.5736319E-006  0.2136010E+03  0.7818608E-02  0.1164892E+00
          2   -1    0    0  502    0  0.00000000000E+00  0.00000000000E+00  0.13995269450E+04  0.13995269450E+04  0.00000000000E+00 0. -1.
          1   -1    0    0  501    0 -0.00000000000E+00 -0.00000000000E+00 -0.20822476202E+04  0.20822476202E+04  0.00000000000E+00 0. -1.
         25    2    1    2    0    0  0.88192693400E+01  0.36718495720E+03  0.15138909731E+03  0.41646755528E+03  0.12499597398E+03 0.  0.
          2    1    1    2  501    0 -0.12543945657E+01 -0.21051368665E+03 -0.19384678596E+04  0.19498654386E+04  0.00000000000E+00 0. -1.
          1    1    1    2  502    0 -0.75648747744E+01 -0.15667127055E+03  0.11043580872E+04  0.11154415713E+04  0.00000000000E+00 0. -1.
         22    1    3    3    0    0 -0.22296810808E+02  0.49549700383E+01  0.53004745518E+00  0.22846891486E+02  0.00000000000E+00 0. -1.
         22    1    3    3    0    0  0.31116080148E+02  0.36222998716E+03  0.15085904985E+03  0.39362066379E+03  0.00000000000E+00 0. -1.
</event>
<event>
 7    1  0.5736319E-006  0.1192326E+03  0.7818608E-02  0.1445592E+00
          2   -1    0    0  502    0  0.00000000000E+00  0.00000000000E+00  0.15500751687E+04  0.15500751687E+04  0.00000000000E+00 0. -1.
          1   -1    0    0  501    0 -0.00000000000E+00 -0.00000000000E+00 -0.62803429474E+02  0.62803429474E+02  0.00000000000E+00 0. -1.
         25    2    1    2    0    0 -0.10438205228E+03 -0.13558380854E+02  0.12172936107E+04  0.12282133559E+04  0.12499948158E+03 0.  0.
          2    1    1    2  501    0  0.12000018824E+03 -0.37278860882E+00  0.63086559306E+01  0.12016648155E+03  0.00000000000E+00 0. -1.
          1    1    1    2  502    0 -0.15618135958E+02  0.13931169463E+02  0.26366947259E+03  0.26449876073E+03  0.00000000000E+00 0. -1.
         22    1    3    3    0    0  0.40102513268E+01 -0.48653999466E+02  0.41780372770E+03  0.42064622744E+03  0.00000000000E+00 0. -1.
         22    1    3    3    0    0 -0.10839230361E+03  0.35095618612E+02  0.79948988298E+03  0.80756712843E+03  0.00000000000E+00 0. -1.
</event>
<event>
 7    1  0.5736319E-006  0.4576286E+03  0.7818608E-02  0.1240675E+00
          2   -1    0    0  502    0  0.00000000000E+00  0.00000000000E+00  0.92834632476E+03  0.92834632476E+03  0.00000000000E+00 0. -1.
          1   -1    0    0  501    0 -0.00000000000E+00 -0.00000000000E+00 -0.12632989061E+04  0.12632989061E+04  0.00000000000E+00 0. -1.
         25    2    1    2    0    0  0.35687601525E+03 -0.32023946754E+03 -0.10553339502E+03  0.50663154452E+03  0.12499767039E+03 0.  0.
          2    1    1    2  501    0 -0.32531320630E+03  0.31362863586E+03 -0.90347995424E+03  0.10101819792E+04  0.00000000000E+00 0. -1.
          1    1    1    2  502    0 -0.31562808953E+02  0.66108316800E+01  0.67406076795E+03  0.67483170709E+03  0.00000000000E+00 0. -1.
         22    1    3    3    0    0  0.33829509071E+02 -0.15393805266E+02 -0.44981064430E+02  0.58349816468E+02  0.00000000000E+00 0.  1.
         22    1    3    3    0    0  0.32304650618E+03 -0.30484566228E+03 -0.60552330593E+02  0.44828172805E+03  0.00000000000E+00 0.  1.
</event>
<event>
 7    1  0.5736319E-006  0.1007152E+03  0.7818608E-02  0.1282592E+00
          2   -1    0    0  502    0  0.00000000000E+00  0.00000000000E+00  0.64321507813E+03  0.64321507813E+03  0.00000000000E+00 0. -1.
          1   -1    0    0  501    0 -0.00000000000E+00 -0.00000000000E+00 -0.30698750974E+03  0.30698750974E+03  0.00000000000E+00 0. -1.
         25    2    1    2    0    0 -0.46709244687E+02 -0.12835918486E+02 -0.72234109874E+02  0.15229377693E+03  0.12501645300E+03 0.  0.
          2    1    1    2  501    0  0.13077787715E+03 -0.35851346523E+02 -0.16653634898E+03  0.21476156018E+03  0.00000000000E+00 0. -1.
          1    1    1    2  502    0 -0.84068632465E+02  0.48687265009E+02  0.57499802724E+03  0.58314725076E+03  0.00000000000E+00 0. -1.
         22    1    3    3    0    0 -0.39663449662E+02  0.40414719820E+02  0.64828264486E+01  0.56996191592E+02  0.00000000000E+00 0. -1.
         22    1    3    3    0    0 -0.70457950249E+01 -0.53250638306E+02 -0.78716936322E+02  0.95297585339E+02  0.00000000000E+00 0. -1.
</event>
<event>
 7    1  0.5736319E-006  0.1376803E+03  0.7818608E-02  0.1357755E+00
          2   -1    0    0  502    0  0.00000000000E+00  0.00000000000E+00  0.73958053868E+03  0.73958053868E+03  0.00000000000E+00 0. -1.
          1   -1    0    0  501    0 -0.00000000000E+00 -0.00000000000E+00 -0.80998884790E+03  0.80998884790E+03  0.00000000000E+00 0. -1.
         25    2    1    2    0    0 -0.10921415087E+03  0.82292369530E+02 -0.25474197195E+03  0.31498937850E+03  0.12500028585E+03 0.  0.
          2    1    1    2  501    0 -0.18732795602E+02 -0.31089412952E+02 -0.51778934921E+03  0.51905999594E+03  0.00000000000E+00 0. -1.
          1    1    1    2  502    0  0.12794694648E+03 -0.51202956577E+02  0.70212301194E+03  0.71552001214E+03  0.00000000000E+00 0. -1.
         22    1    3    3    0    0 -0.18732066826E+02  0.48829885937E+02 -0.19414299536E+03  0.20106404636E+03  0.00000000000E+00 0.  1.
         22    1    3    3    0    0 -0.90482084047E+02  0.33462483593E+02 -0.60598976585E+02  0.11392533215E+03  0.00000000000E+00 0.  1.
</event>
<event>
 7    1  0.5736319E-006  0.9176424E+02  0.7818608E-02  0.1386162E+00
          2   -1    0    0  502    0  0.00000000000E+00  0.00000000000E+00  0.19148440989E+02  0.19148440989E+02  0.00000000000E+00 0. -1.
          1   -1    0    0  501    0 -0.00000000000E+00 -0.00000000000E+00 -0.38456412367E+04  0.38456412367E+04  0.00000000000E+00 0. -1.
         25    2    1    2    0    0  0.33205918478E+01 -0.95348334106E+02 -0.32722724927E+04  0.32760463261E+04  0.12493971778E+03 0.  0.
          2    1    1    2  501    0  0.40566702424E+02  0.14487032748E+02 -0.43987886474E+03  0.44198297151E+03  0.00000000000E+00 0. -1.
          1    1    1    2  502    0 -0.43887294271E+02  0.80861301359E+02 -0.11434143827E+03  0.14676038008E+03  0.00000000000E+00 0. -1.
         22    1    3    3    0    0 -0.33584767991E+02 -0.11011623498E+03 -0.21625898548E+04  0.21656519577E+04  0.00000000000E+00 0. -1.
         22    1    3    3    0    0  0.36905359838E+02  0.14767900872E+02 -0.11096826379E+04  0.11103943684E+04  0.00000000000E+00 0. -1.
</event>
<event>
 7    1  0.5736319E-006  0.2363067E+02  0.7818608E-02  0.1705506E+00
          2   -1    0    0  502    0  0.00000000000E+00  0.00000000000E+00  0.51108393875E+03  0.51108393875E+03  0.00000000000E+00 0. -1.
          1   -1    0    0  501    0 -0.00000000000E+00 -0.00000000000E+00 -0.27930019243E+03  0.27930019243E+03  0.00000000000E+00 0. -1.
         25    2    1    2    0    0 -0.20980957688E+02 -0.12644797417E+02  0.24247855505E+01  0.12740029700E+03  0.12499945842E+03 0.  0.
          2    1    1    2  501    0 -0.12631572372E+01  0.20741667053E+02 -0.21599947005E+03  0.21699673587E+03  0.00000000000E+00 0. -1.
          1    1    1    2  502    0  0.22244114925E+02 -0.80968696364E+01  0.44535843082E+03  0.44598709830E+03  0.00000000000E+00 0. -1.
         22    1    3    3    0    0 -0.40274416645E+02 -0.14636251963E+02  0.55946949281E+02  0.70472048654E+02  0.00000000000E+00 0.  1.
         22    1    3    3    0    0  0.19293458958E+02  0.19914545462E+01 -0.53522163731E+02  0.56928248350E+02  0.00000000000E+00 0.  1.
</event>
<event>
 7    1  0.5736319E-006  0.2195626E+03  0.7818608E-02  0.1140336E+00
          2   -1    0    0  502    0  0.00000000000E+00  0.00000000000E+00  0.23967798407E+04  0.23967798407E+04  0.00000000000E+00 0. -1.
          1   -1    0    0  501    0 -0.00000000000E+00 -0.00000000000E+00 -0.37019541723E+03  0.37019541723E+03  0.00000000000E+00 0. -1.
         25    2    1    2    0    0  0.59776968660E+01  0.10048114643E+03 -0.61746428623E+01  0.16056389861E+03  0.12494176913E+03 0.  0.
          2    1    1    2  501    0 -0.20269361604E+03  0.21698025099E+02 -0.24397565729E+03  0.31793022447E+03  0.00000000000E+00 0. -1.
          1    1    1    2  502    0  0.19671591918E+03 -0.12217917153E+03  0.22767347236E+04  0.22884811348E+04  0.00000000000E+00 0. -1.
         22    1    3    3    0    0  0.70394977869E+01  0.81116820790E+02  0.53760751882E+02  0.97569009358E+02  0.00000000000E+00 0.  1.
         22    1    3    3    0    0 -0.10618009209E+01  0.19364325644E+02 -0.59935394744E+02  0.62994889253E+02  0.00000000000E+00 0.  1.
</event>
<event>
 7    1  0.5736319E-006  0.7201239E+02  0.7818608E-02  0.1508003E+00
          2   -1    0    0  502    0  0.00000000000E+00  0.00000000000E+00  0.75310521940E+03  0.75310521940E+03  0.00000000000E+00 0. -1.
          1   -1    0    0  501    0 -0.00000000000E+00 -0.00000000000E+00 -0.22610769822E+03  0.22610769822E+03  0.00000000000E+00 0. -1.
         25    2    1    2    0    0  0.50157827961E+02 -0.24584896866E+02  0.20415824093E+03  0.24581433272E+03  0.12499549580E+03 0.  0.
          2    1    1    2  501    0  0.87549952449E+01 -0.20454975923E+02 -0.20206272737E+03  0.20328404211E+03  0.00000000000E+00 0. -1.
          1    1    1    2  502    0 -0.58912823206E+02  0.45039872790E+02  0.52490200762E+03  0.53011454280E+03  0.00000000000E+00 0. -1.
         22    1    3    3    0    0  0.32076048844E+00 -0.36771320912E+02  0.15437985273E+01  0.36805111639E+02  0.00000000000E+00 0. -1.
         22    1    3    3    0    0  0.49837067473E+02  0.12186424046E+02  0.20261444241E+03  0.20900922108E+03  0.00000000000E+00 0. -1.
</event>
<event>
 7    1  0.5736319E-006  0.7157291E+02  0.7818608E-02  0.1517443E+00
          2   -1    0    0  502    0  0.00000000000E+00  0.00000000000E+00  0.15135589840E+04  0.15135589840E+04  0.00000000000E+00 0. -1.
          1   -1    0    0  501    0 -0.00000000000E+00 -0.00000000000E+00 -0.16887975009E+03  0.16887975009E+03  0.00000000000E+00 0. -1.
         25    2    1    2    0    0 -0.85998913704E+02 -0.29395881809E+02  0.12577453140E+03  0.19925941472E+03  0.12500060233E+03 0.  0.
          2    1    1    2  501    0  0.65150075402E+02  0.26847901614E+02 -0.12265496891E+03  0.14145523512E+03  0.00000000000E+00 0. -1.
          1    1    1    2  502    0  0.20848838302E+02  0.25479801948E+01  0.13415596714E+04  0.13417240842E+04  0.00000000000E+00 0. -1.
         22    1    3    3    0    0 -0.35922915151E+02 -0.43322775438E+02 -0.69632579541E+01  0.56708074080E+02  0.00000000000E+00 0. -1.
         22    1    3    3    0    0 -0.50075998554E+02  0.13926893629E+02  0.13273778935E+03  0.14255134064E+03  0.00000000000E+00 0. -1.
</event>
<event>
 7    1  0.5736319E-006  0.1975341E+03  0.7818608E-02  0.1347581E+00
          2   -1    0    0  502    0  0.00000000000E+00  0.00000000000E+00  0.19856525700E+04  0.19856525700E+04  0.00000000000E+00 0. -1.
          1   -1    0    0  501    0 -0.00000000000E+00 -0.00000000000E+00 -0.12788773852E+03  0.12788773852E+03  0.00000000000E+00 0. -1.
         25    2    1    2    0    0 -0.19972933740E+02 -0.22076649961E+03  0.77684146327E+03  0.81746389775E+03  0.12501119809E+03 0.  0.
          2    1    1    2  501    0  0.23645530706E+02  0.19342888160E+03 -0.19013112421E+02  0.19579413118E+03  0.00000000000E+00 0. -1.
          1    1    1    2  502    0 -0.36725969658E+01  0.27337618004E+02  0.10999364807E+04  0.11002822796E+04  0.00000000000E+00 0. -1.
         22    1    3    3    0    0 -0.76300579138E+01 -0.15079737746E+03  0.68448333056E+03  0.70093901065E+03  0.00000000000E+00 0. -1.
         22    1    3    3    0    0 -0.12342875826E+02 -0.69969122147E+02  0.92358132702E+02  0.11652488710E+03  0.00000000000E+00 0. -1.
</event>
<event>
 7    1  0.5736319E-006  0.4471337E+02  0.7818608E-02  0.1493422E+00
          2   -1    0    0  502    0  0.00000000000E+00  0.00000000000E+00  0.26182784117E+03  0.26182784117E+03  0.00000000000E+00 0. -1.
          1   -1    0    0  501    0 -0.00000000000E+00 -0.00000000000E+00 -0.16315757497E+04  0.16315757497E+04  0.00000000000E+00 0. -1.
         25    2    1    2    0    0 -0.60100293872E+02  0.30668059231E+02 -0.43790118962E+03  0.46036318193E+03  0.12499692887E+03 0.  0.
          2    1    1    2  501    0  0.15795301704E+02 -0.36320810788E+02 -0.11801185641E+04  0.11807830106E+04  0.00000000000E+00 0. -1.
          1    1    1    2  502    0  0.44304992168E+02  0.56527515576E+01  0.24827184515E+03  0.25225739836E+03  0.00000000000E+00 0. -1.
         22    1    3    3    0    0  0.20757509376E+02  0.48594944452E+02 -0.24149723412E+03  0.24721095629E+03  0.00000000000E+00 0. -1.
         22    1    3    3    0    0 -0.80857803249E+02 -0.17926885221E+02 -0.19640395550E+03  0.21315222564E+03  0.00000000000E+00 0. -1.
</event>
<event>
 7    1  0.5736319E-006  0.6006128E+02  0.7818608E-02  0.1545862E+00
          2   -1    0    0  502    0  0.00000000000E+00  0.00000000000E+00  0.31979428175E+03  0.31979428175E+03  0.00000000000E+00 0. -1.
          1   -1    0    0  501    0 -0.00000000000E+00 -0.00000000000E+00 -0.86193648197E+03  0.86193648197E+03  0.00000000000E+00 0. -1.
         25    2    1    2    0    0 -0.27916456394E+02 -0.71292707301E+02  0.41783912837E+02  0.15242577140E+03  0.12500296702E+03 0.  0.
          2    1    1    2  501    0  0.11333780834E+02  0.58804405482E+02 -0.80501709832E+03  0.80724156315E+03  0.00000000000E+00 0. -1.
          1    1    1    2  502    0  0.16582675560E+02  0.12488301819E+02  0.22109098526E+03  0.22206342917E+03  0.00000000000E+00 0. -1.
         22    1    3    3    0    0 -0.60710212358E+02 -0.19862185683E+02 -0.18667451622E+02  0.66548554114E+02  0.00000000000E+00 0.  1.
         22    1    3    3    0    0  0.32793755964E+02 -0.51430521618E+02  0.60451364459E+02  0.85877217288E+02  0.00000000000E+00 0.  1.
</event>
<event>
 7    1  0.8381535E-006  0.1081453E+03  0.7818608E-02  0.1389572E+00
          2   -1    0    0  502    0  0.00000000000E+00  0.00000000000E+00  0.61632684924E+03  0.61632684924E+03  0.00000000000E+00 0. -1.
          1   -1    0    0  501    0 -0.00000000000E+00 -0.00000000000E+00 -0.25246519869E+04  0.25246519869E+04  0.00000000000E+00 0. -1.
         25    2    1    2    0    0  0.61318604532E+02 -0.43579895597E+02 -0.53206650532E+03  0.55170578992E+03  0.12500133592E+03 0.  0.
          2    1    1    2  501    0  0.35008991912E+02 -0.62360098231E+01 -0.19777570442E+04  0.19780767031E+04  0.00000000000E+00 0. -1.
          1    1    1    2  502    0 -0.96327596445E+02  0.49815905420E+02  0.60149841192E+03  0.61119634310E+03  0.00000000000E+00 0. -1.
         22    1    3    3    0    0  0.71644182623E+02 -0.53363132107E+02 -0.52982803235E+03  0.53730648296E+03  0.00000000000E+00 0.  1.
         22    1    3    3    0    0 -0.10325578091E+02  0.97832365099E+01 -0.22384729722E+01  0.14399306954E+02  0.00000000000E+00 0.  1.
</event>
<event>
 7    1  0.5736319E-006  0.3958992E+03  0.7818608E-02  0.1204912E+00
          2   -1    0    0  502    0  0.00000000000E+00  0.00000000000E+00  0.13053872590E+04  0.13053872590E+04  0.00000000000E+00 0. -1.
          1   -1    0    0  501    0 -0.00000000000E+00 -0.00000000000E+00 -0.68814904912E+03  0.68814904912E+03  0.00000000000E+00 0. -1.
         25    2    1    2    0    0  0.42759839553E+03  0.87860113559E+01 -0.98689018673E+02  0.45637920873E+03  0.12499951159E+03 0.  0.
          2    1    1    2  501    0 -0.38010706843E+03  0.17271261596E+02 -0.32160832474E+03  0.49820838460E+03  0.00000000000E+00 0. -1.
          1    1    1    2  502    0 -0.47491327104E+02 -0.26057272952E+02  0.10375355533E+04  0.10389487148E+04  0.00000000000E+00 0. -1.
         22    1    3    3    0    0  0.13895458911E+03 -0.55893478199E+02 -0.34150753294E+02  0.15361879016E+03  0.00000000000E+00 0.  1.
         22    1    3    3    0    0  0.28864380642E+03  0.64679489555E+02 -0.64538265380E+02  0.30276041857E+03  0.00000000000E+00 0.  1.
</event>
<event>
 7    1  0.5736319E-006  0.1380440E+03  0.7818608E-02  0.1392216E+00
          2   -1    0    0  502    0  0.00000000000E+00  0.00000000000E+00  0.33250539939E+03  0.33250539939E+03  0.00000000000E+00 0. -1.
          1   -1    0    0  501    0 -0.00000000000E+00 -0.00000000000E+00 -0.32771099186E+03  0.32771099186E+03  0.00000000000E+00 0. -1.
         25    2    1    2    0    0 -0.14034410204E+03  0.74174446082E+01 -0.33105997175E+02  0.19097594439E+03  0.12499727527E+03 0.  0.
          2    1    1    2  501    0  0.13370438175E+03 -0.33870188723E+02 -0.19273179005E+03  0.23700125375E+03  0.00000000000E+00 0. -1.
          1    1    1    2  502    0  0.66397202891E+01  0.26452744115E+02  0.23063219475E+03  0.23223919310E+03  0.00000000000E+00 0. -1.
         22    1    3    3    0    0 -0.23892487011E+01  0.10562206008E+02  0.35326163254E+02  0.36948701132E+02  0.00000000000E+00 0. -1.
         22    1    3    3    0    0 -0.13795485334E+03 -0.31447614000E+01 -0.68432160429E+02  0.15402724326E+03  0.00000000000E+00 0. -1.
</event>
<event>
 7    1  0.8247168E-006  0.4219028E+02  0.7818608E-02  0.1521034E+00
          2   -1    0    0  502    0  0.00000000000E+00  0.00000000000E+00  0.12362712148E+04  0.12362712148E+04  0.00000000000E+00 0. -1.
          1   -1    0    0  501    0 -0.00000000000E+00 -0.00000000000E+00 -0.11918709065E+04  0.11918709065E+04  0.00000000000E+00 0. -1.
         25    2    1    2    0    0 -0.76808274502E+01  0.56717435633E+02 -0.53872464428E+03  0.55599064588E+03  0.12500197330E+03 0.  0.
          2    1    1    2  501    0 -0.20576497952E+02 -0.36430654129E+02 -0.64358741726E+03  0.64494600432E+03  0.00000000000E+00 0. -1.
          1    1    1    2  502    0  0.28257325402E+02 -0.20286781504E+02  0.12267123699E+04  0.12272054711E+04  0.00000000000E+00 0. -1.
         22    1    3    3    0    0 -0.37815313889E+01  0.67370747966E+02 -0.54033543146E+03  0.54453236465E+03  0.00000000000E+00 0.  1.
         22    1    3    3    0    0 -0.38992960612E+01 -0.10653312333E+02  0.16107871722E+01  0.11458281230E+02  0.00000000000E+00 0.  1.
</event>
<event>
 7    1  0.5736319E-006  0.1183268E+03  0.7818608E-02  0.1264673E+00
          2   -1    0    0  502    0  0.00000000000E+00  0.00000000000E+00  0.66025493806E+03  0.66025493806E+03  0.00000000000E+00 0. -1.
          1   -1    0    0  501    0 -0.00000000000E+00 -0.00000000000E+00 -0.48091578907E+03  0.48091578907E+03  0.00000000000E+00 0. -1.
         25    2    1    2    0    0  0.12620586948E+03  0.11926946534E+03  0.14704633882E+03  0.25961451682E+03  0.12499577884E+03 0.  0.
          2    1    1    2  501    0 -0.14225695296E+02 -0.97199123979E+02 -0.41163336093E+03  0.42319270308E+03  0.00000000000E+00 0. -1.
          1    1    1    2  502    0 -0.11198017419E+03 -0.22070341366E+02  0.44392617110E+03  0.45836350723E+03  0.00000000000E+00 0. -1.
         22    1    3    3    0    0  0.13863193890E+03  0.75685171215E+02  0.14473936450E+03  0.21423478537E+03  0.00000000000E+00 0. -1.
         22    1    3    3    0    0 -0.12426069419E+02  0.43584294130E+02  0.23069743209E+01  0.45379731450E+02  0.00000000000E+00 0. -1.
</event>
<event>
 7    1  0.5736319E-006  0.1792917E+03  0.7818608E-02  0.1343321E+00
          2   -1    0    0  502    0  0.00000000000E+00  0.00000000000E+00  0.13342903081E+04  0.13342903081E+04  0.00000000000E+00 0. -1.
          1   -1    0    0  501    0 -0.00000000000E+00 -0.00000000000E+00 -0.50474386498E+03  0.50474386498E+03  0.00000000000E+00 0. -1.
         25    2    1    2    0    0 -0.12126013595E+03  0.12987534703E+03  0.45964690320E+03  0.50839472415E+03  0.12497317146E+03 0.  0.
          2    1    1    2  501    0 -0.23207836031E+02 -0.21332213688E+02 -0.47023563929E+03  0.47129101780E+03  0.00000000000E+00 0. -1.
          1    1    1    2  502    0  0.14446797198E+03 -0.10854313334E+03  0.84013517923E+03  0.85934843114E+03  0.00000000000E+00 0. -1.
         22    1    3    3    0    0 -0.14373326572E+03  0.11598957701E+03  0.35152889307E+03  0.39709620536E+03  0.00000000000E+00 0.  1.
         22    1    3    3    0    0  0.22473129764E+02  0.13885770016E+02  0.10811801013E+03  0.11129851879E+03  0.00000000000E+00 0.  1.
</event>
<event>
 7    1  0.5736319E-006  0.5824197E+02  0.7818608E-02  0.1484986E+00
          2   -1    0    0  502    0  0.00000000000E+00  0.00000000000E+00  0.45838042569E+03  0.45838042569E+03  0.00000000000E+00 0. -1.
          1   -1    0    0  501    0 -0.00000000000E+00 -0.00000000000E+00 -0.10477885126E+03  0.10477885126E+03  0.00000000000E+00 0. -1.
         25    2    1    2    0    0  0.20442226152E+02 -0.19133791466E+02  0.13916652075E+02  0.12884981670E+03  0.12499846188E+03 0.  0.
          2    1    1    2  501    0  0.15392915984E+02 -0.28338561227E+02 -0.39213353986E+02  0.50771084740E+02  0.00000000000E+00 0. -1.
          1    1    1    2  502    0 -0.35835142136E+02  0.47472352693E+02  0.37889827633E+03  0.38353837551E+03  0.00000000000E+00 0. -1.
         22    1    3    3    0    0 -0.17034427673E+02 -0.26187410632E+01  0.62774676190E+02  0.65097538369E+02  0.00000000000E+00 0.  1.
         22    1    3    3    0    0  0.37476653825E+02 -0.16515050403E+02 -0.48858024116E+02  0.63752278330E+02  0.00000000000E+00 0.  1.
</event>
<event>
 7    1  0.5736319E-006  0.1241226E+03  0.7818608E-02  0.1299916E+00
          2   -1    0    0  502    0  0.00000000000E+00  0.00000000000E+00  0.47431164584E+03  0.47431164584E+03  0.00000000000E+00 0. -1.
          1   -1    0    0  501    0 -0.00000000000E+00 -0.00000000000E+00 -0.64785809580E+03  0.64785809580E+03  0.00000000000E+00 0. -1.
         25    2    1    2    0    0 -0.16069984652E+02 -0.80789939301E+02 -0.21542503956E+03  0.26233232646E+03  0.12500017256E+03 0.  0.
          2    1    1    2  501    0  0.13832395354E+02  0.14779702572E+03 -0.39285485674E+03  0.41996456331E+03  0.00000000000E+00 0. -1.
          1    1    1    2  502    0  0.22375892979E+01 -0.67007086422E+02  0.43473344634E+03  0.43987285186E+03  0.00000000000E+00 0. -1.
         22    1    3    3    0    0 -0.25715608333E+02 -0.11296862781E+03 -0.17312242326E+03  0.20831365010E+03  0.00000000000E+00 0. -1.
         22    1    3    3    0    0  0.96456236812E+01  0.32178688511E+02 -0.42302616299E+02  0.54018676365E+02  0.00000000000E+00 0. -1.
</event>
<event>
 7    1  0.5736319E-006  0.1655654E+03  0.7818608E-02  0.1402190E+00
          2   -1    0    0  502    0  0.00000000000E+00  0.00000000000E+00  0.70046896365E+03  0.70046896365E+03  0.00000000000E+00 0. -1.
          1   -1    0    0  501    0 -0.00000000000E+00 -0.00000000000E+00 -0.38577994905E+03  0.38577994905E+03  0.00000000000E+00 0. -1.
         25    2    1    2    0    0  0.14500147140E+03 -0.82687217818E+02  0.87021162253E+02  0.22596445053E+03  0.12499859009E+03 0.  0.
          2    1    1    2  501    0 -0.13233820016E+03  0.99447221709E+02 -0.29442405091E+03  0.33777014504E+03  0.00000000000E+00 0. -1.
          1    1    1    2  502    0 -0.12663271235E+02 -0.16760003890E+02  0.52209190326E+03  0.52251431714E+03  0.00000000000E+00 0. -1.
         22    1    3    3    0    0  0.45319886088E+02  0.23644475352E+02 -0.83364162400E+01  0.51792365513E+02  0.00000000000E+00 0.  1.
         22    1    3    3    0    0  0.99681585311E+02 -0.10633169317E+03  0.95357578493E+02  0.17417208502E+03  0.00000000000E+00 0.  1.
</event>
<event>
 7    1  0.5736319E-006  0.9866759E+02  0.7818608E-02  0.1461313E+00
          2   -1    0    0  502    0  0.00000000000E+00  0.00000000000E+00  0.19016526723E+04  0.19016526723E+04  0.00000000000E+00 0. -1.
          1   -1    0    0  501    0 -0.00000000000E+00 -0.00000000000E+00 -0.43544782957E+03  0.43544782957E+03  0.00000000000E+00 0. -1.
         25    2    1    2    0    0  0.11725413977E+03 -0.20783419443E+02  0.28225840577E+03  0.33087108885E+03  0.12500154395E+03 0.  0.
          2    1    1    2  501    0 -0.95088172627E+02  0.24857572124E+02 -0.40518676050E+03  0.41693641043E+03  0.00000000000E+00 0. -1.
          1    1    1    2  502    0 -0.22165967147E+02 -0.40741526802E+01  0.15891331975E+04  0.15892930026E+04  0.00000000000E+00 0. -1.
         22    1    3    3    0    0  0.10661095320E+03  0.28359869585E+02  0.24369861805E+03  0.26750550272E+03  0.00000000000E+00 0.  1.
         22    1    3    3    0    0  0.10643186574E+02 -0.49143289028E+02  0.38559787725E+02  0.63365586136E+02  0.00000000000E+00 0.  1.
</event>
<event>
 7    1  0.5736319E-006  0.2715453E+02  0.7818608E-02  0.1644932E+00
          2   -1    0    0  502    0  0.00000000000E+00  0.00000000000E+00  0.10926710284E+04  0.10926710284E+04  0.00000000000E+00 0. -1.
          1   -1    0    0  501    0 -0.00000000000E+00 -0.00000000000E+00 -0.37758969455E+03  0.37758969455E+03  0.00000000000E+00 0. -1.
         25    2    1    2    0    0 -0.11853778851E+02 -0.13399608083E+02  0.34691751836E+03  0.36918199814E+03  0.12499408638E+03 0.  0.
          2    1    1    2  501    0  0.26175320375E+02 -0.73281667449E+01 -0.36573694848E+03  0.36674564061E+03  0.00000000000E+00 0. -1.
          1    1    1    2  502    0 -0.14321541524E+02  0.20727774828E+02  0.73390076394E+03  0.73433308417E+03  0.00000000000E+00 0. -1.
         22    1    3    3    0    0  0.10552440545E+02 -0.64838593546E+02  0.23469468225E+03  0.24371497921E+03  0.00000000000E+00 0. -1.
         22    1    3    3    0    0 -0.22406219396E+02  0.51438985463E+02  0.11222283611E+03  0.12546701893E+03  0.00000000000E+00 0. -1.
</event>
<event>
 7    1  0.5736319E-006  0.6679545E+02  0.7818608E-02  0.1532208E+00
          2   -1    0    0  502    0  0.00000000000E+00  0.00000000000E+00  0.11495957623E+03  0.11495957623E+03  0.00000000000E+00 0. -1.
          1   -1    0    0  501    0 -0.00000000000E+00 -0.00000000000E+00 -0.19701402259E+03  0.19701402259E+03  0.00000000000E+00 0. -1.
         25    2    1    2    0    0  0.42669822264E+02 -0.61489115041E+02 -0.12014226439E+02  0.14618710544E+03  0.12499881264E+03 0.  0.
          2    1    1    2  501    0 -0.50378045007E+02  0.42597679354E+02 -0.10575988652E+03  0.12465016367E+03  0.00000000000E+00 0. -1.
          1    1    1    2  502    0  0.77082227432E+01  0.18891435687E+02  0.35719666603E+02  0.41136329715E+02  0.00000000000E+00 0. -1.
         22    1    3    3    0    0  0.32711488589E+02 -0.65614639020E+02 -0.61404764269E+02  0.95634028537E+02  0.00000000000E+00 0. -1.
         22    1    3    3    0    0  0.99583336748E+01  0.41255239791E+01  0.49390537830E+02  0.50553076907E+02  0.00000000000E+00 0. -1.
</event>
<event>
 7    1  0.5736319E-006  0.5876491E+02  0.7818608E-02  0.1457458E+00
          2   -1    0    0  502    0  0.00000000000E+00  0.00000000000E+00  0.56861232452E+03  0.56861232452E+03  0.00000000000E+00 0. -1.
          1   -1    0    0  501    0 -0.00000000000E+00 -0.00000000000E+00 -0.46538148118E+03  0.46538148118E+03  0.00000000000E+00 0. -1.
         25    2    1    2    0    0  0.12608466386E+02 -0.17595510613E+02  0.46668385699E+03  0.48363362809E+03  0.12505634098E+03 0.  0.
          2    1    1    2  501    0  0.58313611427E+02 -0.72689539802E+01 -0.43951850956E+03  0.44342962825E+03  0.00000000000E+00 0. -1.
          1    1    1    2  502    0 -0.70922077812E+02  0.24864464593E+02  0.76065495903E+02  0.10693054937E+03  0.00000000000E+00 0. -1.
         22    1    3    3    0    0  0.64339508119E+02 -0.30395766720E+02  0.31252447537E+03  0.32052304542E+03  0.00000000000E+00 0.  1.
         22    1    3    3    0    0 -0.51731041733E+02  0.12800256107E+02  0.15415938162E+03  0.16311058267E+03  0.00000000000E+00 0.  1.
</event>
<event>
 7    1  0.5736319E-006  0.8562089E+02  0.7818608E-02  0.1338040E+00
          2   -1    0    0  502    0  0.00000000000E+00  0.00000000000E+00  0.50630976036E+03  0.50630976036E+03  0.00000000000E+00 0. -1.
          1   -1    0    0  501    0 -0.00000000000E+00 -0.00000000000E+00 -0.11790822523E+04  0.11790822523E+04  0.00000000000E+00 0. -1.
         25    2    1    2    0    0  0.11541722205E+02 -0.54023554835E+02 -0.17499516651E+02  0.13777921172E+03  0.12500048908E+03 0.  0.
          2    1    1    2  501    0 -0.78627323452E+02  0.37479676171E+02 -0.10970311442E+04  0.11004836725E+04  0.00000000000E+00 0. -1.
          1    1    1    2  502    0  0.67085601247E+02  0.16543878664E+02  0.44175816884E+03  0.44712912850E+03  0.00000000000E+00 0. -1.
         22    1    3    3    0    0  0.27972544608E+02 -0.84025803696E+02 -0.39646201753E+02  0.97028966046E+02  0.00000000000E+00 0.  1.
         22    1    3    3    0    0 -0.16430822403E+02  0.30002248860E+02  0.22146685101E+02  0.40750245674E+02  0.00000000000E+00 0.  1.
</event>
<event>
 7    1  0.5736319E-006  0.5613804E+02  0.7818608E-02  0.1472694E+00
          2   -1    0    0  502    0  0.00000000000E+00  0.00000000000E+00  0.80008022508E+02  0.80008022508E+02  0.00000000000E+00 0. -1.
          1   -1    0    0  501    0 -0.00000000000E+00 -0.00000000000E+00 -0.92299678063E+03  0.92299678063E+03  0.00000000000E+00 0. -1.
         25    2    1    2    0    0  0.42191521371E+02 -0.27146086572E+02 -0.47809936836E+03  0.49671073657E+03  0.12500206119E+03 0.  0.
          2    1    1    2  501    0 -0.24899131421E+02 -0.26685668977E+02 -0.42337562881E+03  0.42494589625E+03  0.00000000000E+00 0. -1.
          1    1    1    2  502    0 -0.17292389950E+02  0.53831755549E+02  0.58486239049E+02  0.81348170316E+02  0.00000000000E+00 0. -1.
         22    1    3    3    0    0 -0.91172454135E+01  0.21302309681E+02 -0.13571366488E+02  0.26853203720E+02  0.00000000000E+00 0.  1.
         22    1    3    3    0    0  0.51308766785E+02 -0.48448396253E+02 -0.46452800187E+03  0.46985753285E+03  0.00000000000E+00 0.  1.
</event>
<event>
 7    1  0.5736319E-006  0.5032290E+02  0.7818608E-02  0.1471478E+00
          2   -1    0    0  502    0  0.00000000000E+00  0.00000000000E+00  0.34055206779E+03  0.34055206779E+03  0.00000000000E+00 0. -1.
          1   -1    0    0  501    0 -0.00000000000E+00 -0.00000000000E+00 -0.70365113810E+03  0.70365113810E+03  0.00000000000E+00 0. -1.
         25    2    1    2    0    0  0.43961862903E+02  0.34109760800E+02 -0.38560727631E+03  0.40916274790E+03  0.12500024621E+03 0.  0.
          2    1    1    2  501    0 -0.67338836155E+01 -0.51455265564E+02 -0.30276727050E+03  0.30718237193E+03  0.00000000000E+00 0. -1.
          1    1    1    2  502    0 -0.37227979287E+02  0.17345504765E+02  0.32527547650E+03  0.32785808605E+03  0.00000000000E+00 0. -1.
         22    1    3    3    0    0  0.69494090288E+02  0.71811145339E+01 -0.35273812940E+03  0.35959030148E+03  0.00000000000E+00 0.  1.
         22    1    3    3    0    0 -0.25532227385E+02  0.26928646266E+02 -0.32869146918E+02  0.49572446420E+02  0.00000000000E+00 0.  1.
</event>
<event>
 7    1  0.5736319E-006  0.8099933E+02  0.7818608E-02  0.1473401E+00
          2   -1    0    0  502    0  0.00000000000E+00  0.00000000000E+00  0.64564097722E+03  0.64564097722E+03  0.00000000000E+00 0. -1.
          1   -1    0    0  501    0 -0.00000000000E+00 -0.00000000000E+00 -0.54618573091E+03  0.54618573091E+03  0.00000000000E+00 0. -1.
         25    2    1    2    0    0 -0.63428902444E+02  0.23263915743E+02  0.29100231450E+03  0.32383967828E+03  0.12500141897E+03 0.  0.
          2    1    1    2  501    0 -0.21824360830E+02 -0.12535506785E+02 -0.52400272425E+03  0.52460680197E+03  0.00000000000E+00 0. -1.
          1    1    1    2  502    0  0.85253263274E+02 -0.10728408957E+02  0.33245565605E+03  0.34338022788E+03  0.00000000000E+00 0. -1.
         22    1    3    3    0    0 -0.96823612869E+02  0.32919046662E+02  0.24985352870E+03  0.26997270500E+03  0.00000000000E+00 0.  1.
         22    1    3    3    0    0  0.33394710425E+02 -0.96551309195E+01  0.41148785802E+02  0.53866973281E+02  0.00000000000E+00 0.  1.
</event>
<event>
 7    1  0.5736319E-006  0.8116543E+02  0.7818608E-02  0.1338632E+00
          2   -1    0    0  502    0  0.00000000000E+00  0.00000000000E+00  0.24197881936E+04  0.24197881936E+04  0.00000000000E+00 0. -1.
          1   -1    0    0  501    0 -0.00000000000E+00 -0.00000000000E+00 -0.24866167993E+02  0.24866167993E+02  0.00000000000E+00 0. -1.
         25    2    1    2    0    0  0.10113340565E+02 -0.52452793374E+02  0.27849898847E+03  0.30990484211E+03  0.12500299753E+03 0.  0.
          2    1    1    2  501    0 -0.29434415492E+02  0.12234542312E+03  0.46472288781E+03  0.48145835732E+03  0.00000000000E+00 0. -1.
          1    1    1    2  502    0  0.19321074927E+02 -0.69892629747E+02  0.16517001494E+04  0.16532911622E+04  0.00000000000E+00 0. -1.
         22    1    3    3    0    0  0.25312782894E+02  0.18751709103E+02  0.12116927138E+02  0.33751792477E+02  0.00000000000E+00 0. -1.
         22    1    3    3    0    0 -0.15199442329E+02 -0.71204502477E+02  0.26638206134E+03  0.27615304963E+03  0.00000000000E+00 0. -1.
</event>
<event>
 7    1  0.5736319E-006  0.6332464E+02  0.7818608E-02  0.1526824E+00
          2   -1    0    0  502    0  0.00000000000E+00  0.00000000000E+00  0.12644622935E+04  0.12644622935E+04  0.00000000000E+00 0. -1.
          1   -1    0    0  501    0 -0.00000000000E+00 -0.00000000000E+00 -0.68817345443E+02  0.68817345443E+02  0.00000000000E+00 0. -1.
         25    2    1    2    0    0  0.46946333289E+02 -0.46448361198E+02  0.75845928943E+03  0.77152199360E+03  0.12499713760E+03 0.  0.
          2    1    1    2  501    0  0.10512887071E+02  0.19666941075E+02 -0.58203149535E+02  0.62329094183E+02  0.00000000000E+00 0. -1.
          1    1    1    2  502    0 -0.57459220361E+02  0.26781420124E+02  0.49538880814E+03  0.49942855115E+03  0.00000000000E+00 0. -1.
         22    1    3    3    0    0  0.49198756619E+02 -0.25959889587E+02  0.11515005363E+03  0.12788263514E+03  0.00000000000E+00 0. -1.
         22    1    3    3    0    0 -0.22524233292E+01 -0.20488471612E+02  0.64330923581E+03  0.64363935846E+03  0.00000000000E+00 0. -1.
</event>
<event>
 7    1  0.5736319E-006  0.9445183E+02  0.7818608E-02  0.1354206E+00
          2   -1    0    0  502    0  0.00000000000E+00  0.00000000000E+00  0.15519194213E+04  0.15519194213E+04  0.00000000000E+00 0. -1.
          1   -1    0    0  501    0 -0.00000000000E+00 -0.00000000000E+00 -0.57542033185E+02  0.57542033185E+02  0.00000000000E+00 0. -1.
         25    2    1    2    0    0  0.71939495959E+02  0.95336234927E+02  0.30312154498E+03  0.34895825624E+03  0.12499961921E+03 0.  0.
          2    1    1    2  501    0 -0.81531122879E+02 -0.41665443155E+02  0.27683354439E+02  0.95654070819E+02  0.00000000000E+00 0. -1.
          1    1    1    2  502    0  0.95916269202E+01 -0.53670791773E+02  0.11635724887E+04  0.11648491275E+04  0.00000000000E+00 0. -1.
         22    1    3    3    0    0 -0.32635531973E+02  0.38722477241E+01  0.43714228959E+02  0.54690091086E+02  0.00000000000E+00 0.  1.
         22    1    3    3    0    0  0.10457502793E+03  0.91463987203E+02  0.25940731602E+03  0.29426816516E+03  0.00000000000E+00 0.  1.
</event>
<event>
 7    1  0.5736319E-006  0.1595566E+03  0.7818608E-02  0.1203199E+00
          2   -1    0    0  502    0  0.00000000000E+00  0.00000000000E+00  0.21253298567E+04  0.21253298567E+04  0.00000000000E+00 0. -1.
          1   -1    0    0  501    0 -0.00000000000E+00 -0.00000000000E+00 -0.92443424725E+03  0.92443424725E+03  0.00000000000E+00 0. -1.
         25    2    1    2    0    0  0.15029389115E+03 -0.23092946615E+03 -0.79217738475E+02  0.31275955728E+03  0.12500567399E+03 0.  0.
          2    1    1    2  501    0 -0.42728853358E+02  0.14622067118E+03 -0.71811304327E+03  0.73409303396E+03  0.00000000000E+00 0. -1.
          1    1    1    2  502    0 -0.10756503779E+03  0.84708794972E+02  0.19982263912E+04  0.20029115127E+04  0.00000000000E+00 0. -1.
         22    1    3    3    0    0  0.25096527551E+02 -0.15219616821E+03 -0.32272007207E+02  0.15759121727E+03  0.00000000000E+00 0.  1.
         22    1    3    3    0    0  0.12519736360E+03 -0.78733297942E+02 -0.46945731269E+02  0.15516834001E+03  0.00000000000E+00 0.  1.
</event>
<event>
 7    1  0.5736319E-006  0.5959099E+02  0.7818608E-02  0.1473541E+00
          2   -1    0    0  502    0  0.00000000000E+00  0.00000000000E+00  0.58355804724E+03  0.58355804724E+03  0.00000000000E+00 0. -1.
          1   -1    0    0  501    0 -0.00000000000E+00 -0.00000000000E+00 -0.12646860027E+03  0.12646860027E+03  0.00000000000E+00 0. -1.
         25    2    1    2    0    0  0.37291939190E+02  0.10405582253E+02  0.23256683386E+03  0.26685264387E+03  0.12499614577E+03 0.  0.
          2    1    1    2  501    0 -0.41110664732E+02 -0.44367668486E+02 -0.99992899568E+02  0.11686383840E+03  0.00000000000E+00 0. -1.
          1    1    1    2  502    0  0.38187255423E+01  0.33962086233E+02  0.32451551268E+03  0.32631016523E+03  0.00000000000E+00 0. -1.
         22    1    3    3    0    0  0.26887499084E+02 -0.31231031078E+02  0.21749703718E+03  0.22136683602E+03  0.00000000000E+00 0.  1.
         22    1    3    3    0    0  0.10404440106E+02  0.41636613331E+02  0.15069796684E+02  0.45485807849E+02  0.00000000000E+00 0.  1.
</event>
<event>
 7    1  0.5736319E-006  0.1419871E+03  0.7818608E-02  0.1358032E+00
          2   -1    0    0  502    0  0.00000000000E+00  0.00000000000E+00  0.32762250318E+03  0.32762250318E+03  0.00000000000E+00 0. -1.
          1   -1    0    0  501    0 -0.00000000000E+00 -0.00000000000E+00 -0.10287161041E+04  0.10287161041E+04  0.00000000000E+00 0. -1.
         25    2    1    2    0    0  0.68198347731E+02 -0.15082431226E+03 -0.41714465568E+03  0.46586872245E+03  0.12500005998E+03 0.  0.
          2    1    1    2  501    0 -0.41289816497E+02  0.12826523587E+03 -0.57842245721E+03  0.59391022780E+03  0.00000000000E+00 0. -1.
          1    1    1    2  502    0 -0.26908531234E+02  0.22559076393E+02  0.29447351193E+03  0.29655965708E+03  0.00000000000E+00 0. -1.
         22    1    3    3    0    0  0.87050169366E+02 -0.15494661749E+03 -0.31288061498E+03  0.35983394154E+03  0.00000000000E+00 0.  1.
         22    1    3    3    0    0 -0.18851821635E+02  0.41223052244E+01 -0.10426404070E+03  0.10603478091E+03  0.00000000000E+00 0.  1.
</event>
<event>
 7    1  0.5736319E-006  0.4024670E+02  0.7818608E-02  0.1561107E+00
          2   -1    0    0  502    0  0.00000000000E+00  0.00000000000E+00  0.12584328844E+04  0.12584328844E+04  0.00000000000E+00 0. -1.
          1   -1    0    0  501    0 -0.00000000000E+00 -0.00000000000E+00 -0.10010519493E+04  0.10010519493E+04  0.00000000000E+00 0. -1.
         25    2    1    2    0    0  0.65154857694E+01  0.12678579086E+02 -0.39433134254E+03  0.41391603072E+03  0.12500429933E+03 0.  0.
          2    1    1    2  501    0 -0.23176935257E+02 -0.35309109457E+02 -0.59602273087E+03  0.59751736314E+03  0.00000000000E+00 0. -1.
          1    1    1    2  502    0  0.16661449487E+02  0.22630530371E+02  0.12477350085E+04  0.12480514398E+04  0.00000000000E+00 0. -1.
         22    1    3    3    0    0 -0.19472661779E+02 -0.50420869321E+02 -0.12723124358E+03  0.13823616734E+03  0.00000000000E+00 0. -1.
         22    1    3    3    0    0  0.25988147548E+02  0.63099448407E+02 -0.26710009897E+03  0.27567986337E+03  0.00000000000E+00 0. -1.
</event>
<event>
 7    1  0.5736319E-006  0.8110105E+02  0.7818608E-02  0.1347246E+00
          2   -1    0    0  502    0  0.00000000000E+00  0.00000000000E+00  0.11668094001E+04  0.11668094001E+04  0.00000000000E+00 0. -1.
          1   -1    0    0  501    0 -0.00000000000E+00 -0.00000000000E+00 -0.72029637055E+03  0.72029637055E+03  0.00000000000E+00 0. -1.
         25    2    1    2    0    0  0.88003550702E+01 -0.13767314326E+03 -0.36500069033E+03  0.40973270219E+03  0.12499617065E+03 0.  0.
          2    1    1    2  501    0 -0.12211592421E+02  0.70383621062E+02 -0.32809133074E+03  0.33577804932E+03  0.00000000000E+00 0. -1.
          1    1    1    2  502    0  0.34112373510E+01  0.67289522194E+02  0.11396050506E+04  0.11415950191E+04  0.00000000000E+00 0. -1.
         22    1    3    3    0    0 -0.28671524053E+01  0.23835108688E+02 -0.40711291524E+02  0.47262482231E+02  0.00000000000E+00 0. -1.
         22    1    3    3    0    0  0.11667507476E+02 -0.16150825194E+03 -0.32428939881E+03  0.36247021996E+03  0.00000000000E+00 0. -1.
</event>
<event>
 7    1  0.5736319E-006  0.1834198E+03  0.7818608E-02  0.1249355E+00
          2   -1    0    0  502    0  0.00000000000E+00  0.00000000000E+00  0.49832786720E+03  0.49832786720E+03  0.00000000000E+00 0. -1.
          1   -1    0    0  501    0 -0.00000000000E+00 -0.00000000000E+00 -0.12044870950E+03  0.12044870950E+03  0.00000000000E+00 0. -1.
         25    2    1    2    0    0  0.16031505650E+03  0.70608207646E+01  0.22059527633E+03  0.30006798062E+03  0.12501097760E+03 0.  0.
          2    1    1    2  501    0 -0.19257326242E+03  0.59229259044E+02  0.97682166022E+02  0.22390706127E+03  0.00000000000E+00 0. -1.
          1    1    1    2  502    0  0.32258205918E+02 -0.66290079809E+02  0.59601715357E+02  0.94801534816E+02  0.00000000000E+00 0. -1.
         22    1    3    3    0    0  0.69208554357E+02  0.39113354700E+01  0.92921138086E+01  0.69939015724E+02  0.00000000000E+00 0.  1.
         22    1    3    3    0    0  0.91106502145E+02  0.31494852946E+01  0.21130316252E+03  0.23012896489E+03  0.00000000000E+00 0.  1.
</event>
<event>
 7    1  0.5736319E-006  0.5147852E+02  0.7818608E-02  0.1505071E+00
          2   -1    0    0  502    0  0.00000000000E+00  0.00000000000E+00  0.65991329986E+03  0.65991329986E+03  0.00000000000E+00 0. -1.
          1   -1    0    0  501    0 -0.00000000000E+00 -0.00000000000E+00 -0.87210634243E+03  0.87210634243E+03  0.00000000000E+00 0. -1.
         25    2    1    2    0    0 -0.40476968968E+02  0.18337840254E+02 -0.10489428298E+03  0.16911848377E+03  0.12499435807E+03 0.  0.
          2    1    1    2  501    0  0.24514400719E+02 -0.45786496146E+02 -0.73378003140E+03  0.73561572411E+03  0.00000000000E+00 0. -1.
          1    1    1    2  502    0  0.15962568249E+02  0.27448655892E+02  0.62648127181E+03  0.62728543441E+03  0.00000000000E+00 0. -1.
         22    1    3    3    0    0 -0.41540773446E+02 -0.25097817167E+02  0.70451823175E+01  0.49042541522E+02  0.00000000000E+00 0. -1.
         22    1    3    3    0    0  0.10638044776E+01  0.43435657421E+02 -0.11193946530E+03  0.12007594225E+03  0.00000000000E+00 0. -1.
</event>
<event>
 7    1  0.5736319E-006  0.7414826E+02  0.7818608E-02  0.1387371E+00
          2   -1    0    0  502    0  0.00000000000E+00  0.00000000000E+00  0.11922492281E+03  0.11922492281E+03  0.00000000000E+00 0. -1.
          1   -1    0    0  501    0 -0.00000000000E+00 -0.00000000000E+00 -0.59830874290E+03  0.59830874290E+03  0.00000000000E+00 0. -1.
         25    2    1    2    0    0 -0.69964747435E+02  0.32846235313E+01 -0.22934755087E+03  0.27042478971E+03  0.12499365249E+03 0.  0.
          2    1    1    2  501    0  0.56384023442E+02 -0.54299773137E+02 -0.33653361880E+03  0.34551772754E+03  0.00000000000E+00 0. -1.
          1    1    1    2  502    0  0.13580723994E+02  0.51015149605E+02  0.86797349573E+02  0.10159114846E+03  0.00000000000E+00 0. -1.
         22    1    3    3    0    0 -0.35422212709E+02  0.60459243922E+02 -0.15715412908E+03  0.17206822372E+03  0.00000000000E+00 0.  1.
         22    1    3    3    0    0 -0.34542534726E+02 -0.57174620391E+02 -0.72193421796E+02  0.98356565987E+02  0.00000000000E+00 0.  1.
</event>
<event>
 7    1  0.5736319E-006  0.1477047E+03  0.7818608E-02  0.1376368E+00
          2   -1    0    0  502    0  0.00000000000E+00  0.00000000000E+00  0.36330756631E+03  0.36330756631E+03  0.00000000000E+00 0. -1.
          1   -1    0    0  501    0 -0.00000000000E+00 -0.00000000000E+00 -0.11284755164E+03  0.11284755164E+03  0.00000000000E+00 0. -1.
         25    2    1    2    0    0 -0.14664335771E+03 -0.79509382563E+02  0.19253646540E+03  0.28376089795E+03  0.12499576160E+03 0.  0.
          2    1    1    2  501    0  0.12999619881E+03  0.55784836645E+02  0.17332154825E+02  0.14251794025E+03  0.00000000000E+00 0. -1.
          1    1    1    2  502    0  0.16647158909E+02  0.23724545919E+02  0.40591394450E+02  0.49876279755E+02  0.00000000000E+00 0. -1.
         22    1    3    3    0    0 -0.11502398004E+03  0.71430530240E+00  0.72519589995E+02  0.13597837015E+03  0.00000000000E+00 0.  1.
         22    1    3    3    0    0 -0.31619377675E+02 -0.80223687866E+02  0.12001687540E+03  0.14778252779E+03  0.00000000000E+00 0.  1.
</event>
<event>
 7    1  0.5736319E-006  0.2301129E+03  0.7818608E-02  0.1245940E+00
          2   -1    0    0  502    0  0.00000000000E+00  0.00000000000E+00  0.19182671922E+04  0.19182671922E+04  0.00000000000E+00 0. -1.
          1   -1    0    0  501    0 -0.00000000000E+00 -0.00000000000E+00 -0.21100632525E+03  0.21100632525E+03  0.00000000000E+00 0. -1.
         25    2    1    2    0    0 -0.19217498432E+03 -0.41899597616E+02  0.16407535886E+03  0.28501318069E+03  0.12499995562E+03 0.  0.
          2    1    1    2  501    0 -0.43040406197E+02  0.42958579905E+02 -0.13584455086E+03  0.14883433123E+03  0.00000000000E+00 0. -1.
          1    1    1    2  502    0  0.23521539052E+03 -0.10589822895E+01  0.16790300589E+04  0.16954260055E+04  0.00000000000E+00 0. -1.
         22    1    3    3    0    0 -0.91475732277E+02  0.42430599480E+02  0.59176418271E+02  0.11691883444E+03  0.00000000000E+00 0.  1.
         22    1    3    3    0    0 -0.10069925204E+03 -0.84330197096E+02  0.10489894059E+03  0.16809434625E+03  0.00000000000E+00 0.  1.
</event>
<event>
 7    1  0.5736319E-006  0.6617083E+02  0.7818608E-02  0.1452693E+00
          2   -1    0    0  502    0  0.00000000000E+00  0.00000000000E+00  0.25675910573E+03  0.25675910573E+03  0.00000000000E+00 0. -1.
          1   -1    0    0  501    0 -0.00000000000E+00 -0.00000000000E+00 -0.35499141762E+03  0.35499141762E+03  0.00000000000E+00 0. -1.
         25    2    1    2    0    0 -0.43997433271E+02 -0.56989935664E+02  0.13214814263E+03  0.19563288329E+03  0.12500186608E+03 0.  0.
          2    1    1    2  501    0  0.34668253912E+02 -0.88761479952E+01 -0.31017378370E+03  0.31223140445E+03  0.00000000000E+00 0. -1.
          1    1    1    2  502    0  0.93291793589E+01  0.65866083660E+02  0.79793329184E+02  0.10388623560E+03  0.00000000000E+00 0. -1.
         22    1    3    3    0    0 -0.59784760107E+02 -0.84000262988E+02  0.12755173597E+03  0.16401130166E+03  0.00000000000E+00 0. -1.
         22    1    3    3    0    0  0.15787326836E+02  0.27010327324E+02  0.45964066556E+01  0.31621581632E+02  0.00000000000E+00 0. -1.
</event>
<event>
 7    1  0.5736319E-006  0.1144248E+03  0.7818608E-02  0.1315466E+00
          2   -1    0    0  502    0  0.00000000000E+00  0.00000000000E+00  0.23671167280E+03  0.23671167280E+03  0.00000000000E+00 0. -1.
          1   -1    0    0  501    0 -0.00000000000E+00 -0.00000000000E+00 -0.21871508747E+04  0.21871508747E+04  0.00000000000E+00 0. -1.
         25    2    1    2    0    0 -0.14967453794E+03 -0.65018099608E+02 -0.19645099509E+03  0.28433704834E+03  0.12499897199E+03 0.  0.
          2    1    1    2  501    0  0.39263708382E+02  0.49425498110E+02 -0.19300724706E+04  0.19311044147E+04  0.00000000000E+00 0. -1.
          1    1    1    2  502    0  0.11041082956E+03  0.15592601498E+02  0.17608426379E+03  0.20842108449E+03  0.00000000000E+00 0. -1.
         22    1    3    3    0    0 -0.10147607452E+03 -0.23373557897E+02 -0.19448589172E+03  0.22060933567E+03  0.00000000000E+00 0. -1.
         22    1    3    3    0    0 -0.48198463417E+02 -0.41644541711E+02 -0.19651033759E+01  0.63727712663E+02  0.00000000000E+00 0. -1.
</event>
<event>
 7    1  0.5736319E-006  0.3362250E+02  0.7818608E-02  0.1589691E+00
          2   -1    0    0  502    0  0.00000000000E+00  0.00000000000E+00  0.28781294861E+03  0.28781294861E+03  0.00000000000E+00 0. -1.
          1   -1    0    0  501    0 -0.00000000000E+00 -0.00000000000E+00 -0.57658046545E+03  0.57658046545E+03  0.00000000000E+00 0. -1.
         25    2    1    2    0    0  0.29454335236E+02  0.27327862647E+02 -0.38036955573E+02  0.13669764198E+03  0.12500026158E+03 0.  0.
          2    1    1    2  501    0  0.42246842853E+01 -0.27847504812E+02 -0.48761539606E+03  0.48842819938E+03  0.00000000000E+00 0. -1.
          1    1    1    2  502    0 -0.33679019522E+02  0.51964216500E+00  0.23688483479E+03  0.23926757269E+03  0.00000000000E+00 0. -1.
         22    1    3    3    0    0  0.19646651018E+02  0.14657569426E+02 -0.84272253695E+02  0.87764730847E+02  0.00000000000E+00 0. -1.
         22    1    3    3    0    0  0.98076842185E+01  0.12670293221E+02  0.46235298122E+02  0.48932911138E+02  0.00000000000E+00 0. -1.
</event>
<event>
 7    1  0.5736319E-006  0.8676201E+02  0.7818608E-02  0.1348204E+00
          2   -1    0    0  502    0  0.00000000000E+00  0.00000000000E+00  0.41896996233E+04  0.41896996233E+04  0.00000000000E+00 0. -1.
          1   -1    0    0  501    0 -0.00000000000E+00 -0.00000000000E+00 -0.15929269296E+03  0.15929269296E+03  0.00000000000E+00 0. -1.
         25    2    1    2    0    0 -0.17537553348E+02  0.26589079259E+02  0.17394689713E+03  0.21655615763E+03  0.12499800588E+03 0.  0.
          2    1    1    2  501    0 -0.61037455381E+02  0.13280519264E+02 -0.13040692258E+03  0.14459567285E+03  0.00000000000E+00 0. -1.
          1    1    1    2  502    0  0.78575008729E+02 -0.39869598523E+02  0.39868669558E+04  0.39878404858E+04  0.00000000000E+00 0. -1.
         22    1    3    3    0    0  0.17268148855E+02 -0.40161155125E+02  0.26817235210E+02  0.51286172114E+02  0.00000000000E+00 0.  1.
         22    1    3    3    0    0 -0.34805702203E+02  0.66750234384E+02  0.14712966192E+03  0.16526998551E+03  0.00000000000E+00 0.  1.
</event>
<event>
 7    1  0.5736319E-006  0.3019629E+02  0.7818608E-02  0.1647967E+00
          2   -1    0    0  502    0  0.00000000000E+00  0.00000000000E+00  0.83048666192E+03  0.83048666192E+03  0.00000000000E+00 0. -1.
          1   -1    0    0  501    0 -0.00000000000E+00 -0.00000000000E+00 -0.38573941462E+03  0.38573941462E+03  0.00000000000E+00 0. -1.
         25    2    1    2    0    0  0.23465074704E+02  0.23651682315E+02  0.21125614366E+03  0.24771774642E+03  0.12499964740E+03 0.  0.
          2    1    1    2  501    0 -0.21279918713E+02  0.65653111843E+01 -0.36678888463E+03  0.36746431683E+03  0.00000000000E+00 0. -1.
          1    1    1    2  502    0 -0.21851559912E+01 -0.30216993500E+02  0.60027998826E+03  0.60104401329E+03  0.00000000000E+00 0. -1.
         22    1    3    3    0    0  0.27209109474E+02  0.63439373895E+02  0.60610469680E+02  0.91861411013E+02  0.00000000000E+00 0.  1.
         22    1    3    3    0    0 -0.37440347698E+01 -0.39787691580E+02  0.15064567398E+03  0.15585633541E+03  0.00000000000E+00 0.  1.
</event>
<event>
 7    1  0.5736319E-006  0.2267829E+03  0.7818608E-02  0.1335508E+00
          2   -1    0    0  502    0  0.00000000000E+00  0.00000000000E+00  0.21634918774E+04  0.21634918774E+04  0.00000000000E+00 0. -1.
          1   -1    0    0  501    0 -0.00000000000E+00 -0.00000000000E+00 -0.23367455823E+03  0.23367455823E+03  0.00000000000E+00 0. -1.
         25    2    1    2    0    0 -0.23544449092E+03 -0.74537825404E+02  0.45394086768E+03  0.53167510334E+03  0.12500443368E+03 0.  0.
          2    1    1    2  501    0  0.26473719058E+02 -0.32134738308E+01 -0.18641510258E+03  0.18831297004E+03  0.00000000000E+00 0. -1.
          1    1    1    2  502    0  0.20897077187E+03  0.77751299235E+02  0.16622915541E+04  0.16771783623E+04  0.00000000000E+00 0. -1.
         22    1    3    3    0    0 -0.82136331430E+02  0.27369947099E+02  0.20085739156E+03  0.21872170146E+03  0.00000000000E+00 0.  1.
         22    1    3    3    0    0 -0.15330815949E+03 -0.10190777250E+03  0.25308347612E+03  0.31295340188E+03  0.00000000000E+00 0.  1.
</event>
<event>
 7    1  0.5736319E-006  0.1777805E+03  0.7818608E-02  0.1238801E+00
          2   -1    0    0  502    0  0.00000000000E+00  0.00000000000E+00  0.63805641126E+03  0.63805641126E+03  0.00000000000E+00 0. -1.
          1   -1    0    0  501    0 -0.00000000000E+00 -0.00000000000E+00 -0.49713811854E+03  0.49713811854E+03  0.00000000000E+00 0. -1.
         25    2    1    2    0    0  0.27637450177E+02  0.16369109030E+03  0.36138721564E+03  0.41687468198E+03  0.12500071662E+03 0.  0.
          2    1    1    2  501    0 -0.76575097862E+02  0.35975401181E+02 -0.42202368999E+03  0.43042068958E+03  0.00000000000E+00 0. -1.
          1    1    1    2  502    0  0.48937647684E+02 -0.19966649148E+03  0.20155476707E+03  0.28789915823E+03  0.00000000000E+00 0. -1.
         22    1    3    3    0    0 -0.19243386422E+02  0.11769002651E+03  0.13029363492E+03  0.17662865442E+03  0.00000000000E+00 0. -1.
         22    1    3    3    0    0  0.46880836599E+02  0.46001063787E+02  0.23109358072E+03  0.24024602756E+03  0.00000000000E+00 0. -1.
</event>
<event>
 7    1  0.5736319E-006  0.9620005E+02  0.7818608E-02  0.1370299E+00
          2   -1    0    0  502    0  0.00000000000E+00  0.00000000000E+00  0.10208656628E+04  0.10208656628E+04  0.00000000000E+00 0. -1.
          1   -1    0    0  501    0 -0.00000000000E+00 -0.00000000000E+00 -0.12154247368E+04  0.12154247368E+04  0.00000000000E+00 0. -1.
         25    2    1    2    0    0 -0.13255056927E+03 -0.41087433809E+02  0.52696260720E+03  0.55908116841E+03  0.12499733135E+03 0.  0.
          2    1    1    2  501    0  0.95178968714E+02  0.12949165305E+02 -0.11962907959E+04  0.12001409856E+04  0.00000000000E+00 0. -1.
          1    1    1    2  502    0  0.37371600558E+02  0.28138268504E+02  0.47476911465E+03  0.47706824555E+03  0.00000000000E+00 0. -1.
         22    1    3    3    0    0 -0.13086511084E+03 -0.14941481584E+02  0.26618332196E+03  0.29698903346E+03  0.00000000000E+00 0. -1.
         22    1    3    3    0    0 -0.16854584319E+01 -0.26145952224E+02  0.26077928525E+03  0.26209213495E+03  0.00000000000E+00 0. -1.
</event>
<event>
 7    1  0.5736319E-006  0.1108532E+03  0.7818608E-02  0.1272262E+00
          2   -1    0    0  502    0  0.00000000000E+00  0.00000000000E+00  0.20083670430E+03  0.20083670430E+03  0.00000000000E+00 0. -1.
          1   -1    0    0  501    0 -0.00000000000E+00 -0.00000000000E+00 -0.15760931085E+04  0.15760931085E+04  0.00000000000E+00 0. -1.
         25    2    1    2    0    0  0.83910112821E+02  0.86787407929E+02 -0.63028851834E+03  0.65380514031E+03  0.12499833574E+03 0.  0.
          2    1    1    2  501    0 -0.94317136971E+02  0.24394748137E+02 -0.91474349399E+03  0.91991656462E+03  0.00000000000E+00 0. -1.
          1    1    1    2  502    0  0.10407024151E+02 -0.11118215607E+03  0.16977560814E+03  0.20320810785E+03  0.00000000000E+00 0. -1.
         22    1    3    3    0    0  0.81168311215E+02  0.70391709234E+01 -0.19620253784E+03  0.21244594731E+03  0.00000000000E+00 0.  1.
         22    1    3    3    0    0  0.27418016056E+01  0.79748237005E+02 -0.43408598050E+03  0.44135919300E+03  0.00000000000E+00 0.  1.
</event>
<event>
 7    1  0.5736319E-006  0.7757727E+02  0.7818608E-02  0.1356271E+00
          2   -1    0    0  502    0  0.00000000000E+00  0.00000000000E+00  0.16414745082E+04  0.16414745082E+04  0.00000000000E+00 0. -1.
          1   -1    0    0  501    0 -0.00000000000E+00 -0.00000000000E+00 -0.34570937520E+03  0.34570937520E+03  0.00000000000E+00 0. -1.
         25    2    1    2    0    0 -0.76643738569E+02 -0.25949897451E+02  0.53431995695E+03  0.55468017839E+03  0.12499849623E+03 0.  0.
          2    1    1    2  501    0  0.62026996155E+01  0.64934450949E+02 -0.33086338714E+03  0.33723217129E+03  0.00000000000E+00 0. -1.
          1    1    1    2  502    0  0.70441038954E+02 -0.38984553498E+02  0.10923085632E+04  0.10952715337E+04  0.00000000000E+00 0. -1.
         22    1    3    3    0    0  0.21390795301E+02 -0.43221565160E+02  0.20785568303E+03  0.21337679064E+03  0.00000000000E+00 0.  1.
         22    1    3    3    0    0 -0.98034533871E+02  0.17271667708E+02  0.32646427393E+03  0.34130338775E+03  0.00000000000E+00 0.  1.
</event>
<event>
 7    1  0.5736319E-006  0.1122779E+03  0.7818608E-02  0.1372385E+00
          2   -1    0    0  502    0  0.00000000000E+00  0.00000000000E+00  0.12049537114E+03  0.12049537114E+03  0.00000000000E+00 0. -1.
          1   -1    0    0  501    0 -0.00000000000E+00 -0.00000000000E+00 -0.49963600727E+03  0.49963600727E+03  0.00000000000E+00 0. -1.
         25    2    1    2    0    0 -0.41199923293E+02 -0.93799664443E+02 -0.92296331371E+02  0.18611928240E+03  0.12500385502E+03 0.  0.
          2    1    1    2  501    0  0.79274413154E+02  0.83678162343E+02 -0.34501228735E+03  0.36375808699E+03  0.00000000000E+00 0. -1.
          1    1    1    2  502    0 -0.38074489861E+02  0.10121502100E+02  0.58167982595E+02  0.70254009011E+02  0.00000000000E+00 0. -1.
         22    1    3    3    0    0 -0.21815518244E+02 -0.61911549782E+02  0.19322489681E+02  0.68427446541E+02  0.00000000000E+00 0.  1.
         22    1    3    3    0    0 -0.19384405050E+02 -0.31888114661E+02 -0.11161882105E+03  0.11769183586E+03  0.00000000000E+00 0.  1.
</event>
<event>
 7    1  0.5736319E-006  0.6439996E+02  0.7818608E-02  0.1431852E+00
          2   -1    0    0  502    0  0.00000000000E+00  0.00000000000E+00  0.24104624087E+04  0.24104624087E+04  0.00000000000E+00 0. -1.
          1   -1    0    0  501    0 -0.00000000000E+00 -0.00000000000E+00 -0.31991609298E+02  0.31991609298E+02  0.00000000000E+00 0. -1.
         25    2    1    2    0    0  0.53552381688E+02 -0.54338687409E+02  0.17039947594E+03  0.22468445053E+03  0.12500628134E+03 0.  0.
          2    1    1    2  501    0  0.96446923165E+01  0.41848932631E+02  0.10147628180E+03  0.11018978637E+03  0.00000000000E+00 0. -1.
          1    1    1    2  502    0 -0.63197074005E+02  0.12489754778E+02  0.21065950417E+04  0.21075797811E+04  0.00000000000E+00 0. -1.
         22    1    3    3    0    0  0.42829589352E+02 -0.14149418856E+02 -0.41034902921E+01  0.45292586706E+02  0.00000000000E+00 0.  1.
         22    1    3    3    0    0  0.10722792337E+02 -0.40189268554E+02  0.17450296623E+03  0.17939186382E+03  0.00000000000E+00 0.  1.
</event>
<event>
 7    1  0.5736319E-006  0.5177117E+02  0.7818608E-02  0.1567196E+00
          2   -1    0    0  502    0  0.00000000000E+00  0.00000000000E+00  0.23579632208E+04  0.23579632208E+04  0.00000000000E+00 0. -1.
          1   -1    0    0  501    0 -0.00000000000E+00 -0.00000000000E+00 -0.12872318206E+03  0.12872318206E+03  0.00000000000E+00 0. -1.
         25    2    1    2    0    0 -0.53933890627E+02  0.20442507491E+02  0.18876889782E+04  0.18927021845E+04  0.12500047965E+03 0.  0.
          2    1    1    2  501    0  0.51763457305E+02  0.46919225909E+00 -0.12065986780E+03  0.13129538968E+03  0.00000000000E+00 0. -1.
          1    1    1    2  502    0  0.21704333226E+01 -0.20911699750E+02  0.46221092826E+03  0.46268882866E+03  0.00000000000E+00 0. -1.
         22    1    3    3    0    0 -0.60501896017E+02 -0.20636915293E+02  0.46145938162E+03  0.46586599209E+03  0.00000000000E+00 0. -1.
         22    1    3    3    0    0  0.65680053893E+01  0.41079422783E+02  0.14262295966E+04  0.14268361924E+04  0.00000000000E+00 0. -1.
</event>
<event>
 7    1  0.5736319E-006  0.3448222E+02  0.7818608E-02  0.1625502E+00
          2   -1    0    0  502    0  0.00000000000E+00  0.00000000000E+00  0.91283802408E+03  0.91283802408E+03  0.00000000000E+00 0. -1.
          1   -1    0    0  501    0 -0.00000000000E+00 -0.00000000000E+00 -0.60174962844E+03  0.60174962844E+03  0.00000000000E+00 0. -1.
         25    2    1    2    0    0  0.20609341335E+02  0.36743199828E+02 -0.32411515923E+02  0.13583181294E+03  0.12499986943E+03 0.  0.
          2    1    1    2  501    0  0.14569379432E+01 -0.34435486640E+02 -0.51691106761E+03  0.51805885499E+03  0.00000000000E+00 0. -1.
          1    1    1    2  502    0 -0.22066279278E+02 -0.23077131881E+01  0.86041097917E+03  0.86069698460E+03  0.00000000000E+00 0. -1.
         22    1    3    3    0    0 -0.34940243504E+02  0.57580458670E+02 -0.36046111614E+02  0.76391439306E+02  0.00000000000E+00 0.  1.
         22    1    3    3    0    0  0.55549584839E+02 -0.20837258842E+02  0.36345956916E+01  0.59440373633E+02  0.00000000000E+00 0.  1.
</event>
<event>
 7    1  0.5736319E-006  0.3000825E+02  0.7818608E-02  0.1600498E+00
          2   -1    0    0  502    0  0.00000000000E+00  0.00000000000E+00  0.72001988436E+03  0.72001988436E+03  0.00000000000E+00 0. -1.
          1   -1    0    0  501    0 -0.00000000000E+00 -0.00000000000E+00 -0.13212168574E+03  0.13212168574E+03  0.00000000000E+00 0. -1.
         25    2    1    2    0    0 -0.15382446725E+02 -0.34837542044E+02  0.18535423202E+03  0.22678552024E+03  0.12500082743E+03 0.  0.
          2    1    1    2  501    0  0.28829395498E+02  0.85133599580E+01 -0.10894377855E+03  0.11301485843E+03  0.00000000000E+00 0. -1.
          1    1    1    2  502    0 -0.13446948773E+02  0.26324182086E+02  0.51148774514E+03  0.51234119142E+03  0.00000000000E+00 0. -1.
         22    1    3    3    0    0  0.12840062437E+02 -0.62616695151E+02  0.17433047790E+03  0.18567938292E+03  0.00000000000E+00 0.  1.
         22    1    3    3    0    0 -0.28222509162E+02  0.27779153108E+02  0.11023754121E+02  0.41106137324E+02  0.00000000000E+00 0.  1.
</event>
<event>
 7    1  0.5736319E-006  0.1134989E+03  0.7818608E-02  0.1362265E+00
          2   -1    0    0  502    0  0.00000000000E+00  0.00000000000E+00  0.62023736348E+03  0.62023736348E+03  0.00000000000E+00 0. -1.
          1   -1    0    0  501    0 -0.00000000000E+00 -0.00000000000E+00 -0.14275002482E+04  0.14275002482E+04  0.00000000000E+00 0. -1.
         25    2    1    2    0    0  0.13607651363E+03  0.30494425137E+02 -0.67952704850E+03  0.70486082052E+03  0.12500015656E+03 0.  0.
          2    1    1    2  501    0 -0.96285555878E+02 -0.45117293861E+02 -0.73071408536E+03  0.73841015230E+03  0.00000000000E+00 0. -1.
          1    1    1    2  502    0 -0.39790957748E+02  0.14622868724E+02  0.60297824912E+03  0.60446663888E+03  0.00000000000E+00 0. -1.
         22    1    3    3    0    0 -0.62083308946E+01 -0.56820040125E+01 -0.26447231413E+03  0.26460618565E+03  0.00000000000E+00 0.  1.
         22    1    3    3    0    0  0.14228484452E+03  0.36176429150E+02 -0.41505473437E+03  0.44025463488E+03  0.00000000000E+00 0.  1.
</event>
<event>
 7    1  0.5736319E-006  0.1360516E+03  0.7818608E-02  0.1246550E+00
          2   -1    0    0  502    0  0.00000000000E+00  0.00000000000E+00  0.18870768713E+04  0.18870768713E+04  0.00000000000E+00 0. -1.
          1   -1    0    0  501    0 -0.00000000000E+00 -0.00000000000E+00 -0.85732508604E+03  0.85732508604E+03  0.00000000000E+00 0. -1.
         25    2    1    2    0    0  0.12860598834E+03 -0.11607784788E+03  0.40420189701E+02  0.21742246527E+03  0.12500067865E+03 0.  0.
          2    1    1    2  501    0 -0.10080811956E+03 -0.16952285296E+02 -0.76278294516E+03  0.76960215591E+03  0.00000000000E+00 0. -1.
          1    1    1    2  502    0 -0.27797868776E+02  0.13303013318E+03  0.17521145407E+04  0.17573773361E+04  0.00000000000E+00 0. -1.
         22    1    3    3    0    0  0.78513093541E+02 -0.78195540351E+02  0.85628228879E+02  0.14003943005E+03  0.00000000000E+00 0.  1.
         22    1    3    3    0    0  0.50092894797E+02 -0.37882307533E+02 -0.45208039179E+02  0.77383035218E+02  0.00000000000E+00 0.  1.
</event>
<event>
 7    1  0.5736319E-006  0.8247033E+02  0.7818608E-02  0.1452661E+00
          2   -1    0    0  502    0  0.00000000000E+00  0.00000000000E+00  0.71117514128E+03  0.71117514128E+03  0.00000000000E+00 0. -1.
          1   -1    0    0  501    0 -0.00000000000E+00 -0.00000000000E+00 -0.56662991789E+03  0.56662991789E+03  0.00000000000E+00 0. -1.
         25    2    1    2    0    0  0.80276344203E+02  0.38569768237E+02  0.26662842631E+03  0.30763273458E+03  0.12496104675E+03 0.  0.
          2    1    1    2  501    0 -0.58873905435E+02 -0.57721802738E+02 -0.54252318022E+03  0.54875253469E+03  0.00000000000E+00 0. -1.
          1    1    1    2  502    0 -0.21402438768E+02  0.19152034501E+02  0.42043997730E+03  0.42141978990E+03  0.00000000000E+00 0. -1.
         22    1    3    3    0    0  0.82210357486E+01  0.72945015965E+02  0.13575741611E+03  0.15433287664E+03  0.00000000000E+00 0.  1.
         22    1    3    3    0    0  0.72055308454E+02 -0.34375247728E+02  0.13087101020E+03  0.15329985794E+03  0.00000000000E+00 0.  1.
</event>
<event>
 7    1  0.5736319E-006  0.1477560E+03  0.7818608E-02  0.1303804E+00
          2   -1    0    0  502    0  0.00000000000E+00  0.00000000000E+00  0.70748371039E+03  0.70748371039E+03  0.00000000000E+00 0. -1.
          1   -1    0    0  501    0 -0.00000000000E+00 -0.00000000000E+00 -0.92734784163E+03  0.92734784163E+03  0.00000000000E+00 0. -1.
         25    2    1    2    0    0  0.10489059164E+03 -0.10666635751E+03 -0.72847654442E+02  0.20811412550E+03  0.12499984175E+03 0.  0.
          2    1    1    2  501    0 -0.59252217740E+02  0.13616811806E+03 -0.77868343281E+03  0.79271714389E+03  0.00000000000E+00 0. -1.
          1    1    1    2  502    0 -0.45638373900E+02 -0.29501760545E+02  0.63166695602E+03  0.63400028263E+03  0.00000000000E+00 0. -1.
         22    1    3    3    0    0  0.10226547766E+03 -0.16238152140E+02 -0.49012386727E+02  0.11456054974E+03  0.00000000000E+00 0. -1.
         22    1    3    3    0    0  0.26251139852E+01 -0.90428205371E+02 -0.23835267715E+02  0.93553575758E+02  0.00000000000E+00 0. -1.
</event>
<event>
 7    1  0.5736319E-006  0.7586995E+02  0.7818608E-02  0.1468956E+00
          2   -1    0    0  502    0  0.00000000000E+00  0.00000000000E+00  0.98671599824E+03  0.98671599824E+03  0.00000000000E+00 0. -1.
          1   -1    0    0  501    0 -0.00000000000E+00 -0.00000000000E+00 -0.29983066378E+03  0.29983066378E+03  0.00000000000E+00 0. -1.
         25    2    1    2    0    0  0.31525456926E+02 -0.65862212214E+02  0.11939407208E+03  0.18765270884E+03  0.12500763679E+03 0.  0.
          2    1    1    2  501    0 -0.56797547324E+01  0.75930967639E+02 -0.26000903631E+03  0.27092890290E+03  0.00000000000E+00 0. -1.
          1    1    1    2  502    0 -0.25845702193E+02 -0.10068755425E+02  0.82750029870E+03  0.82796505029E+03  0.00000000000E+00 0. -1.
         22    1    3    3    0    0 -0.41594552977E+02 -0.37154083198E+02  0.16424249273E+02  0.58140250255E+02  0.00000000000E+00 0. -1.
         22    1    3    3    0    0  0.73120009902E+02 -0.28708129016E+02  0.10296982281E+03  0.12951245858E+03  0.00000000000E+00 0. -1.
</event>
<event>
 7    1  0.5736319E-006  0.8100196E+02  0.7818608E-02  0.1416092E+00
          2   -1    0    0  502    0  0.00000000000E+00  0.00000000000E+00  0.81541695421E+03  0.81541695421E+03  0.00000000000E+00 0. -1.
          1   -1    0    0  501    0 -0.00000000000E+00 -0.00000000000E+00 -0.16537192440E+03  0.16537192440E+03  0.00000000000E+00 0. -1.
         25    2    1    2    0    0 -0.30820884533E+02  0.53220454411E+02  0.63905636642E+03  0.65406398607E+03  0.12499725888E+03 0.  0.
          2    1    1    2  501    0  0.68300403389E+02 -0.44342407549E+02 -0.14486421761E+03  0.16618313920E+03  0.00000000000E+00 0. -1.
          1    1    1    2  502    0 -0.37479518856E+02 -0.88780468619E+01  0.15585288101E+03  0.16054175335E+03  0.00000000000E+00 0. -1.
         22    1    3    3    0    0  0.20560047631E+02  0.70766584672E+02  0.23252851269E+03  0.24392649360E+03  0.00000000000E+00 0.  1.
         22    1    3    3    0    0 -0.51380932165E+02 -0.17546130261E+02  0.40652785372E+03  0.41013749247E+03  0.00000000000E+00 0.  1.
</event>
<event>
 7    1  0.5736319E-006  0.9819799E+02  0.7818608E-02  0.1290423E+00
          2   -1    0    0  502    0  0.00000000000E+00  0.00000000000E+00  0.28291971163E+04  0.28291971163E+04  0.00000000000E+00 0. -1.
          1   -1    0    0  501    0 -0.00000000000E+00 -0.00000000000E+00 -0.26040702535E+03  0.26040702535E+03  0.00000000000E+00 0. -1.
         25    2    1    2    0    0 -0.68848632402E+02 -0.46304447781E+02  0.97632414150E+02  0.17899181541E+03  0.12498698182E+03 0.  0.
          2    1    1    2  501    0 -0.20376355101E+02  0.90285339162E+02 -0.20901662274E+03  0.22859262214E+03  0.00000000000E+00 0. -1.
          1    1    1    2  502    0  0.89224987503E+02 -0.43980891381E+02  0.26801742995E+04  0.26820197041E+04  0.00000000000E+00 0. -1.
         22    1    3    3    0    0 -0.44129451561E+02 -0.85254494633E+02  0.91201460326E+02  0.13241391058E+03  0.00000000000E+00 0. -1.
         22    1    3    3    0    0 -0.24719180841E+02  0.38950046852E+02  0.64309538237E+01  0.46577904830E+02  0.00000000000E+00 0. -1.
</event>
<event>
 7    1  0.5736319E-006  0.1112562E+03  0.7818608E-02  0.1356650E+00
          2   -1    0    0  502    0  0.00000000000E+00  0.00000000000E+00  0.23079957775E+04  0.23079957775E+04  0.00000000000E+00 0. -1.
          1   -1    0    0  501    0 -0.00000000000E+00 -0.00000000000E+00 -0.47409454369E+03  0.47409454369E+03  0.00000000000E+00 0. -1.
         25    2    1    2    0    0 -0.94164314755E+02  0.32228240295E+02 -0.33315746121E+03  0.36949166858E+03  0.12499848617E+03 0.  0.
          2    1    1    2  501    0  0.12600258700E+02  0.43552370892E+02 -0.11718159271E+03  0.12564673175E+03  0.00000000000E+00 0. -1.
          1    1    1    2  502    0  0.81564056054E+02 -0.75780611187E+02  0.22842402877E+04  0.22869519208E+04  0.00000000000E+00 0. -1.
         22    1    3    3    0    0 -0.10427407991E+03  0.59953921338E+01 -0.14198636046E+03  0.17626444628E+03  0.00000000000E+00 0. -1.
         22    1    3    3    0    0  0.10109765153E+02  0.26232848162E+02 -0.19117110075E+03  0.19322722230E+03  0.00000000000E+00 0. -1.
</event>
<event>
 7    1  0.5736319E-006  0.9712243E+02  0.7818608E-02  0.1328858E+00
          2   -1    0    0  502    0  0.00000000000E+00  0.00000000000E+00  0.12907318494E+04  0.12907318494E+04  0.00000000000E+00 0. -1.
          1   -1    0    0  501    0 -0.00000000000E+00 -0.00000000000E+00 -0.45202091733E+03  0.45202091733E+03  0.00000000000E+00 0. -1.
         25    2    1    2    0    0 -0.33916088540E+02  0.75664041884E+01  0.43883437184E+02  0.13696188902E+03  0.12500100580E+03 0.  0.
          2    1    1    2  501    0 -0.65929805845E+02 -0.32195974035E+01 -0.40069642243E+03  0.40609694416E+03  0.00000000000E+00 0. -1.
          1    1    1    2  502    0  0.99845894386E+02 -0.43468067849E+01  0.11955239174E+04  0.11996939336E+04  0.00000000000E+00 0. -1.
         22    1    3    3    0    0 -0.48829186879E+02  0.56387926190E+02  0.42596344491E+02  0.85897242536E+02  0.00000000000E+00 0.  1.
         22    1    3    3    0    0  0.14913098339E+02 -0.48821522002E+02  0.12870926923E+01  0.51064646481E+02  0.00000000000E+00 0.  1.
</event>
<event>
 7    1  0.5736319E-006  0.1178429E+03  0.7818608E-02  0.1295601E+00
          2   -1    0    0  502    0  0.00000000000E+00  0.00000000000E+00  0.58041205009E+03  0.58041205009E+03  0.00000000000E+00 0. -1.
          1   -1    0    0  501    0 -0.00000000000E+00 -0.00000000000E+00 -0.41350396002E+03  0.41350396002E+03  0.00000000000E+00 0. -1.
         25    2    1    2    0    0 -0.94213225970E+02  0.16295249664E+03  0.20719804606E+03  0.30657115005E+03  0.12500076657E+03 0.  0.
          2    1    1    2  501    0  0.51329981791E+02 -0.10326826158E+03 -0.35027313845E+03  0.36876872481E+03  0.00000000000E+00 0. -1.
          1    1    1    2  502    0  0.42883244180E+02 -0.59684235058E+02  0.30998318246E+03  0.31857613525E+03  0.00000000000E+00 0. -1.
         22    1    3    3    0    0 -0.95584257467E+02  0.77249417773E+02  0.61250396100E+02  0.13731508964E+03  0.00000000000E+00 0. -1.
         22    1    3    3    0    0  0.13710314965E+01  0.85703078865E+02  0.14594764996E+03  0.16925606041E+03  0.00000000000E+00 0. -1.
</event>
<event>
 7    1  0.5736319E-006  0.1526716E+03  0.7818608E-02  0.1334359E+00
          2   -1    0    0  502    0  0.00000000000E+00  0.00000000000E+00  0.51658463723E+03  0.51658463723E+03  0.00000000000E+00 0. -1.
          1   -1    0    0  501    0 -0.00000000000E+00 -0.00000000000E+00 -0.54100091789E+03  0.54100091789E+03  0.00000000000E+00 0. -1.
         25    2    1    2    0    0 -0.12500156973E+03 -0.40806345453E+02 -0.27507779183E+03  0.32952006711E+03  0.12500053121E+03 0.  0.
          2    1    1    2  501    0 -0.28158551208E+02  0.28427545340E+02 -0.22482967139E+03  0.22836245417E+03  0.00000000000E+00 0. -1.
          1    1    1    2  502    0  0.15316012094E+03  0.12378800113E+02  0.47549118255E+03  0.49970303384E+03  0.00000000000E+00 0. -1.
         22    1    3    3    0    0 -0.13333651556E+03 -0.52662990815E+02 -0.16536952347E+03  0.21885862166E+03  0.00000000000E+00 0.  1.
         22    1    3    3    0    0  0.83349458262E+01  0.11856645362E+02 -0.10970826837E+03  0.11066144545E+03  0.00000000000E+00 0.  1.
</event>
<event>
 7    1  0.5736319E-006  0.7941530E+02  0.7818608E-02  0.1430640E+00
          2   -1    0    0  502    0  0.00000000000E+00  0.00000000000E+00  0.87718137059E+03  0.87718137059E+03  0.00000000000E+00 0. -1.
          1   -1    0    0  501    0 -0.00000000000E+00 -0.00000000000E+00 -0.13626145083E+03  0.13626145083E+03  0.00000000000E+00 0. -1.
         25    2    1    2    0    0 -0.59282897277E+02 -0.10823849457E+02  0.94455998793E+02  0.16786449446E+03  0.12499974066E+03 0.  0.
          2    1    1    2  501    0 -0.78297551425E+01 -0.34263625072E+02 -0.94185147451E+02  0.10052931448E+03  0.00000000000E+00 0. -1.
          1    1    1    2  502    0  0.67112652419E+02  0.45087474528E+02  0.74064906841E+03  0.74504901249E+03  0.00000000000E+00 0. -1.
         22    1    3    3    0    0 -0.46204087650E+02  0.36480219784E+02 -0.27899191031E+01  0.58935624199E+02  0.00000000000E+00 0. -1.
         22    1    3    3    0    0 -0.13078809627E+02 -0.47304069241E+02  0.97245917896E+02  0.10892887026E+03  0.00000000000E+00 0. -1.
</event>
<event>
 7    1  0.5736319E-006  0.2654048E+03  0.7818608E-02  0.1318518E+00
          2   -1    0    0  502    0  0.00000000000E+00  0.00000000000E+00  0.34976480259E+03  0.34976480259E+03  0.00000000000E+00 0. -1.
          1   -1    0    0  501    0 -0.00000000000E+00 -0.00000000000E+00 -0.70385254216E+03  0.70385254216E+03  0.00000000000E+00 0. -1.
         25    2    1    2    0    0  0.22345354148E+03 -0.10871079767E+03 -0.28828844918E+03  0.40060643943E+03  0.12500306654E+03 0.  0.
          2    1    1    2  501    0  0.95764963950E+01 -0.24686589609E+02 -0.29730338663E+03  0.29848021826E+03  0.00000000000E+00 0. -1.
          1    1    1    2  502    0 -0.23303003788E+03  0.13339738728E+03  0.23150409625E+03  0.35453068706E+03  0.00000000000E+00 0. -1.
         22    1    3    3    0    0  0.69188758067E+02 -0.73630892283E+02 -0.45469486696E+02  0.11079741315E+03  0.00000000000E+00 0.  1.
         22    1    3    3    0    0  0.15426478342E+03 -0.35079905388E+02 -0.24281896249E+03  0.28980902627E+03  0.00000000000E+00 0.  1.
</event>
<event>
 7    1  0.5736319E-006  0.9113803E+02  0.7818608E-02  0.1344478E+00
          2   -1    0    0  502    0  0.00000000000E+00  0.00000000000E+00  0.14548219424E+04  0.14548219424E+04  0.00000000000E+00 0. -1.
          1   -1    0    0  501    0 -0.00000000000E+00 -0.00000000000E+00 -0.13097425148E+03  0.13097425148E+03  0.00000000000E+00 0. -1.
         25    2    1    2    0    0  0.14408387296E+03  0.17670622871E+02  0.13872991599E+03  0.23652347364E+03  0.12499980253E+03 0.  0.
          2    1    1    2  501    0 -0.84826961974E+02 -0.15978162334E+01 -0.59191549653E+02  0.10344953381E+03  0.00000000000E+00 0. -1.
          1    1    1    2  502    0 -0.59256910990E+02 -0.16072806637E+02  0.12443093246E+04  0.12458231864E+04  0.00000000000E+00 0. -1.
         22    1    3    3    0    0  0.10312317641E+03 -0.12409023667E+02  0.15190878292E+03  0.18402350858E+03  0.00000000000E+00 0.  1.
         22    1    3    3    0    0  0.40960696557E+02  0.30079646538E+02 -0.13178866933E+02  0.52499965066E+02  0.00000000000E+00 0.  1.
</event>
<event>
 7    1  0.5736319E-006  0.9036326E+02  0.7818608E-02  0.1363039E+00
          2   -1    0    0  502    0  0.00000000000E+00  0.00000000000E+00  0.16984904141E+04  0.16984904141E+04  0.00000000000E+00 0. -1.
          1   -1    0    0  501    0 -0.00000000000E+00 -0.00000000000E+00 -0.33593823884E+03  0.33593823884E+03  0.00000000000E+00 0. -1.
         25    2    1    2    0    0 -0.31917503869E+02 -0.10966686323E+03  0.10648239153E+03  0.20002149726E+03  0.12499820685E+03 0.  0.
          2    1    1    2  501    0 -0.16470695332E+02  0.88282670950E+02 -0.28173017870E+03  0.29569749303E+03  0.00000000000E+00 0. -1.
          1    1    1    2  502    0  0.48388199201E+02  0.21384192282E+02  0.15377999624E+04  0.15387096626E+04  0.00000000000E+00 0. -1.
         22    1    3    3    0    0 -0.88161499720E+01  0.27519240690E+02  0.28269774159E+02  0.40425403393E+02  0.00000000000E+00 0. -1.
         22    1    3    3    0    0 -0.23101353897E+02 -0.13718610392E+03  0.78212617374E+02  0.15959609387E+03  0.00000000000E+00 0. -1.
</event>
<event>
 7    1  0.5736319E-006  0.4807750E+02  0.7818608E-02  0.1491774E+00
          2   -1    0    0  502    0  0.00000000000E+00  0.00000000000E+00  0.61330659586E+03  0.61330659586E+03  0.00000000000E+00 0. -1.
          1   -1    0    0  501    0 -0.00000000000E+00 -0.00000000000E+00 -0.18267807096E+04  0.18267807096E+04  0.00000000000E+00 0. -1.
         25    2    1    2    0    0  0.18570169151E+02  0.20236124427E+02  0.98393766884E+02  0.16143499420E+03  0.12500228828E+03 0.  0.
          2    1    1    2  501    0 -0.23689980722E+02  0.28758087474E+02 -0.17938111291E+04  0.17941980408E+04  0.00000000000E+00 0. -1.
          1    1    1    2  502    0  0.51198115712E+01 -0.48994211901E+02  0.48194324855E+03  0.48445427038E+03  0.00000000000E+00 0. -1.
         22    1    3    3    0    0  0.69874391714E+02  0.10639892270E+01  0.73025715279E+02  0.10107580216E+03  0.00000000000E+00 0.  1.
         22    1    3    3    0    0 -0.51304222564E+02  0.19172135200E+02  0.25368051605E+02  0.60359192036E+02  0.00000000000E+00 0.  1.
</event>
<event>
 7    1  0.5736319E-006  0.5522388E+02  0.7818608E-02  0.1491690E+00
          2   -1    0    0  502    0  0.00000000000E+00  0.00000000000E+00  0.98497781659E+03  0.98497781659E+03  0.00000000000E+00 0. -1.
          1   -1    0    0  501    0 -0.00000000000E+00 -0.00000000000E+00 -0.44530938903E+03  0.44530938903E+03  0.00000000000E+00 0. -1.
         25    2    1    2    0    0  0.19958813833E+02 -0.41172391552E+02  0.84275257219E+02  0.15754694826E+03  0.12500080740E+03 0.  0.
          2    1    1    2  501    0  0.28969774442E+02  0.14634457732E+02 -0.40713062359E+03  0.40842228128E+03  0.00000000000E+00 0. -1.
          1    1    1    2  502    0 -0.48928588275E+02  0.26537933821E+02  0.86252379393E+03  0.86431797608E+03  0.00000000000E+00 0. -1.
         22    1    3    3    0    0 -0.12436549044E+02  0.39858890982E+02  0.99622493542E+01  0.42926045178E+02  0.00000000000E+00 0. -1.
         22    1    3    3    0    0  0.32395362877E+02 -0.81031282534E+02  0.74313007865E+02  0.11462090308E+03  0.00000000000E+00 0. -1.
</event>
<event>
 7    1  0.5736319E-006  0.5512877E+02  0.7818608E-02  0.1425215E+00
          2   -1    0    0  502    0  0.00000000000E+00  0.00000000000E+00  0.23376027870E+04  0.23376027870E+04  0.00000000000E+00 0. -1.
          1   -1    0    0  501    0 -0.00000000000E+00 -0.00000000000E+00 -0.92754936167E+01  0.92754936167E+01  0.00000000000E+00 0. -1.
         25    2    1    2    0    0 -0.10302367168E+02  0.75898117791E+02  0.84410808519E+03  0.85674389340E+03  0.12499990531E+03 0.  0.
          2    1    1    2  501    0  0.42395847542E+02 -0.31407861306E+02  0.29712413209E+03  0.30177244989E+03  0.00000000000E+00 0. -1.
          1    1    1    2  502    0 -0.32093480374E+02 -0.44490256485E+02  0.11870950761E+04  0.11883619373E+04  0.00000000000E+00 0. -1.
         22    1    3    3    0    0 -0.32814029022E+02  0.79820188908E+02  0.81585412061E+03  0.82040597827E+03  0.00000000000E+00 0.  1.
         22    1    3    3    0    0  0.22511661854E+02 -0.39220711166E+01  0.28253964583E+02  0.36337915129E+02  0.00000000000E+00 0.  1.
</event>
<event>
 7    1  0.5736319E-006  0.1586430E+03  0.7818608E-02  0.1282390E+00
          2   -1    0    0  502    0  0.00000000000E+00  0.00000000000E+00  0.30136160143E+03  0.30136160143E+03  0.00000000000E+00 0. -1.
          1   -1    0    0  501    0 -0.00000000000E+00 -0.00000000000E+00 -0.31364345584E+03  0.31364345584E+03  0.00000000000E+00 0. -1.
         25    2    1    2    0    0  0.11156853937E+03  0.36491711589E+02 -0.13068729752E+03  0.21559871204E+03  0.12499780362E+03 0.  0.
          2    1    1    2  501    0  0.54114437140E+02 -0.29834021111E+02 -0.10461232408E+03  0.12149970977E+03  0.00000000000E+00 0. -1.
          1    1    1    2  502    0 -0.16568297651E+03 -0.66576904775E+01  0.22301776719E+03  0.27790663546E+03  0.00000000000E+00 0. -1.
         22    1    3    3    0    0  0.12776860945E+03  0.57924160739E+02 -0.89434322180E+02  0.16636863870E+03  0.00000000000E+00 0.  1.
         22    1    3    3    0    0 -0.16200070084E+02 -0.21432449151E+02 -0.41252975336E+02  0.49230073344E+02  0.00000000000E+00 0.  1.
</event>
<event>
 7    1  0.5736319E-006  0.1128940E+03  0.7818608E-02  0.1326838E+00
          2   -1    0    0  502    0  0.00000000000E+00  0.00000000000E+00  0.97321764220E+03  0.97321764220E+03  0.00000000000E+00 0. -1.
          1   -1    0    0  501    0 -0.00000000000E+00 -0.00000000000E+00 -0.14613069920E+03  0.14613069920E+03  0.00000000000E+00 0. -1.
         25    2    1    2    0    0  0.58371684414E+02  0.14132111788E+03  0.10249656434E+03  0.22250736593E+03  0.12500028115E+03 0.  0.
          2    1    1    2  501    0 -0.13591877981E+02 -0.10476176787E+03 -0.52248293377E+02  0.11785436486E+03  0.00000000000E+00 0. -1.
          1    1    1    2  502    0 -0.44779806433E+02 -0.36559350009E+02  0.77683867205E+03  0.77898661062E+03  0.00000000000E+00 0. -1.
         22    1    3    3    0    0 -0.20928552476E+01  0.94194310755E+02  0.11074861079E+03  0.14540358666E+03  0.00000000000E+00 0. -1.
         22    1    3    3    0    0  0.60464539661E+02  0.47126807126E+02 -0.82520464491E+01  0.77103779265E+02  0.00000000000E+00 0. -1.
</event>
<event>
 7    1  0.5736319E-006  0.1063119E+03  0.7818608E-02  0.1345246E+00
          2   -1    0    0  502    0  0.00000000000E+00  0.00000000000E+00  0.27834658556E+04  0.27834658556E+04  0.00000000000E+00 0. -1.
          1   -1    0    0  501    0 -0.00000000000E+00 -0.00000000000E+00 -0.42240358706E+02  0.42240358706E+02  0.00000000000E+00 0. -1.
         25    2    1    2    0    0 -0.13557471865E+03  0.23618505876E+02  0.15029410345E+04  0.15143961245E+04  0.12500212115E+03 0.  0.
          2    1    1    2  501    0  0.10359010816E+03  0.17746064309E+02  0.40888159559E+02  0.11277266911E+03  0.00000000000E+00 0. -1.
          1    1    1    2  502    0  0.31984610492E+02 -0.41364570186E+02  0.11973963028E+04  0.11985374208E+04  0.00000000000E+00 0. -1.
         22    1    3    3    0    0  0.74391787489E+01 -0.23692001366E+02  0.87298278454E+02  0.90761455091E+02  0.00000000000E+00 0. -1.
         22    1    3    3    0    0 -0.14301389740E+03  0.47310507243E+02  0.14156427561E+04  0.14236346694E+04  0.00000000000E+00 0. -1.
</event>
<event>
 7    1  0.7063688E-006  0.1129395E+03  0.7818608E-02  0.1360722E+00
          2   -1    0    0  502    0  0.00000000000E+00  0.00000000000E+00  0.13661540365E+04  0.13661540365E+04  0.00000000000E+00 0. -1.
          1   -1    0    0  501    0 -0.00000000000E+00 -0.00000000000E+00 -0.80889714110E+03  0.80889714110E+03  0.00000000000E+00 0. -1.
         25    2    1    2    0    0 -0.12226137371E+03 -0.24176677878E+02 -0.11565303471E+03  0.21102872134E+03  0.12500056614E+03 0.  0.
          2    1    1    2  501    0  0.10766645575E+02  0.41792905817E+02 -0.64241496890E+03  0.64386299777E+03  0.00000000000E+00 0. -1.
          1    1    1    2  502    0  0.11149472813E+03 -0.17616227939E+02  0.13153248990E+04  0.13201594585E+04  0.00000000000E+00 0. -1.
         22    1    3    3    0    0 -0.10731367035E+03 -0.58843334031E+02 -0.12192935641E+03  0.17275858809E+03  0.00000000000E+00 0. -1.
         22    1    3    3    0    0 -0.14947703359E+02  0.34666656153E+02  0.62763217010E+01  0.38270133245E+02  0.00000000000E+00 0. -1.
</event>
<event>
 7    1  0.5736319E-006  0.5093813E+02  0.7818608E-02  0.1464405E+00
          2   -1    0    0  502    0  0.00000000000E+00  0.00000000000E+00  0.22989335798E+02  0.22989335798E+02  0.00000000000E+00 0. -1.
          1   -1    0    0  501    0 -0.00000000000E+00 -0.00000000000E+00 -0.16974747063E+04  0.16974747063E+04  0.00000000000E+00 0. -1.
         25    2    1    2    0    0  0.26415114084E+02  0.15453772288E+02 -0.77834960482E+03  0.78891719325E+03  0.12500261257E+03 0.  0.
          2    1    1    2  501    0 -0.21414192696E+02  0.36929706169E+02 -0.87303465750E+03  0.87407773341E+03  0.00000000000E+00 0. -1.
          1    1    1    2  502    0 -0.50009213888E+01 -0.52383478457E+02 -0.23101108177E+02  0.57469115436E+02  0.00000000000E+00 0. -1.
         22    1    3    3    0    0 -0.32879748673E+02  0.11829209525E+02 -0.59832145207E+03  0.59934094477E+03  0.00000000000E+00 0.  1.
         22    1    3    3    0    0  0.59294862757E+02  0.36245627622E+01 -0.18002815276E+03  0.18957624848E+03  0.00000000000E+00 0.  1.
</event>
<event>
 7    1  0.5736319E-006  0.1331829E+03  0.7818608E-02  0.1243288E+00
          2   -1    0    0  502    0  0.00000000000E+00  0.00000000000E+00  0.26192088260E+03  0.26192088260E+03  0.00000000000E+00 0. -1.
          1   -1    0    0  501    0 -0.00000000000E+00 -0.00000000000E+00 -0.16203432603E+04  0.16203432603E+04  0.00000000000E+00 0. -1.
         25    2    1    2    0    0  0.92027976919E+02 -0.17710058145E+02 -0.77551340359E+03  0.79109318755E+03  0.12499839018E+03 0.  0.
          2    1    1    2  501    0 -0.19370673519E+03 -0.18440306702E+02 -0.81356935162E+03  0.83651505310E+03  0.00000000000E+00 0. -1.
          1    1    1    2  502    0  0.10167875827E+03  0.36150364847E+02  0.23066037755E+03  0.25465590221E+03  0.00000000000E+00 0. -1.
         22    1    3    3    0    0  0.51924874181E+02 -0.36440487236E+02 -0.70493936990E+03  0.70778783326E+03  0.00000000000E+00 0. -1.
         22    1    3    3    0    0  0.40103102738E+02  0.18730429091E+02 -0.70574033684E+02  0.83305354291E+02  0.00000000000E+00 0. -1.
</event>
<event>
 7    1  0.5736319E-006  0.1928399E+03  0.7818608E-02  0.1255132E+00
          2   -1    0    0  502    0  0.00000000000E+00  0.00000000000E+00  0.23108413503E+04  0.23108413503E+04  0.00000000000E+00 0. -1.
          1   -1    0    0  501    0 -0.00000000000E+00 -0.00000000000E+00 -0.31813464147E+03  0.31813464147E+03  0.00000000000E+00 0. -1.
         25    2    1    2    0    0  0.10184930151E+03 -0.11621433406E+03  0.40371847120E+01  0.19879568498E+03  0.12499749536E+03 0.  0.
          2    1    1    2  501    0 -0.11138626482E+03  0.18172719804E+03 -0.16867874607E+03  0.27181647094E+03  0.00000000000E+00 0. -1.
          1    1    1    2  502    0  0.95369633092E+01 -0.65512863974E+02  0.21573482702E+04  0.21583638359E+04  0.00000000000E+00 0. -1.
         22    1    3    3    0    0  0.11122064571E+02 -0.10128755577E+03 -0.19815476056E+02  0.10380521357E+03  0.00000000000E+00 0. -1.
         22    1    3    3    0    0  0.90727236937E+02 -0.14926778298E+02  0.23852660768E+02  0.94990471408E+02  0.00000000000E+00 0. -1.
</event>
<event>
 7    1  0.5736319E-006  0.7011095E+02  0.7818608E-02  0.1454702E+00
          2   -1    0    0  502    0  0.00000000000E+00  0.00000000000E+00  0.83729755648E+03  0.83729755648E+03  0.00000000000E+00 0. -1.
          1   -1    0    0  501    0 -0.00000000000E+00 -0.00000000000E+00 -0.85057155721E+02  0.85057155721E+02  0.00000000000E+00 0. -1.
         25    2    1    2    0    0  0.75651769245E+02  0.28067861877E+02  0.19729529918E+03  0.24710525777E+03  0.12499831310E+03 0.  0.
          2    1    1    2  501    0 -0.25914939017E+02  0.20882570470E+02 -0.53395916331E+02  0.62918913647E+02  0.00000000000E+00 0. -1.
          1    1    1    2  502    0 -0.49736830228E+02 -0.48950432348E+02  0.60834101791E+03  0.61233054078E+03  0.00000000000E+00 0. -1.
         22    1    3    3    0    0  0.92559468496E+02  0.28017782089E+02  0.20637784498E+03  0.22791240909E+03  0.00000000000E+00 0.  1.
         22    1    3    3    0    0 -0.16907699251E+02  0.50079788601E-01 -0.90825457991E+01  0.19192848672E+02  0.00000000000E+00 0.  1.
</event>
<event>
 7    1  0.6140143E-006  0.5000622E+02  0.7818608E-02  0.1509416E+00
          2   -1    0    0  502    0  0.00000000000E+00  0.00000000000E+00  0.15501437898E+04  0.15501437898E+04  0.00000000000E+00 0. -1.
          1   -1    0    0  501    0 -0.00000000000E+00 -0.00000000000E+00 -0.70348739667E+03  0.70348739667E+03  0.00000000000E+00 0. -1.
         25    2    1    2    0    0  0.78573697644E+02 -0.12669973931E+02 -0.21532755821E+03  0.26140010062E+03  0.12501880290E+03 0.  0.
          2    1    1    2  501    0 -0.48304763994E+02  0.31345559856E+01 -0.46369867112E+03  0.46621843943E+03  0.00000000000E+00 0. -1.
          1    1    1    2  502    0 -0.30268933650E+02  0.95354179452E+01  0.15256826224E+04  0.15260126464E+04  0.00000000000E+00 0. -1.
         22    1    3    3    0    0  0.29146783262E+02 -0.66607078846E+02 -0.13046657547E+03  0.14935717338E+03  0.00000000000E+00 0. -1.
         22    1    3    3    0    0  0.49426914382E+02  0.53937104915E+02 -0.84860982746E+02  0.11204292724E+03  0.00000000000E+00 0. -1.
</event>
<event>
 7    1  0.5736319E-006  0.1368079E+03  0.7818608E-02  0.1238441E+00
          2   -1    0    0  502    0  0.00000000000E+00  0.00000000000E+00  0.17935308886E+04  0.17935308886E+04  0.00000000000E+00 0. -1.
          1   -1    0    0  501    0 -0.00000000000E+00 -0.00000000000E+00 -0.57842856466E+03  0.57842856466E+03  0.00000000000E+00 0. -1.
         25    2    1    2    0    0  0.11076826895E+03  0.14617828303E+03  0.17871618960E+03  0.28496066594E+03  0.12500161947E+03 0.  0.
          2    1    1    2  501    0 -0.85911251755E+00 -0.13635723239E+03 -0.51446364707E+03  0.53222821896E+03  0.00000000000E+00 0. -1.
          1    1    1    2  502    0 -0.10990915644E+03 -0.98210506427E+01  0.15508497814E+04  0.15547705683E+04  0.00000000000E+00 0. -1.
         22    1    3    3    0    0 -0.20906246168E+02  0.60961593625E+02  0.42271190309E+02  0.77072956063E+02  0.00000000000E+00 0.  1.
         22    1    3    3    0    0  0.13167451512E+03  0.85216689407E+02  0.13644499929E+03  0.20788770988E+03  0.00000000000E+00 0.  1.
</event>
<event>
 7    1  0.5736319E-006  0.8846087E+02  0.7818608E-02  0.1367619E+00
          2   -1    0    0  502    0  0.00000000000E+00  0.00000000000E+00  0.39452270068E+03  0.39452270068E+03  0.00000000000E+00 0. -1.
          1   -1    0    0  501    0 -0.00000000000E+00 -0.00000000000E+00 -0.12805643178E+04  0.12805643178E+04  0.00000000000E+00 0. -1.
         25    2    1    2    0    0  0.37976624774E+02 -0.14351537931E+02 -0.17285740005E+03  0.21714925816E+03  0.12500371554E+03 0.  0.
          2    1    1    2  501    0  0.34084892984E+02 -0.39292203105E+02 -0.10795073850E+04  0.10807598491E+04  0.00000000000E+00 0. -1.
          1    1    1    2  502    0 -0.72061517758E+02  0.53643741036E+02  0.36632316797E+03  0.37717791118E+03  0.00000000000E+00 0. -1.
         22    1    3    3    0    0  0.40950555062E+02  0.10767575755E+02  0.10945680017E+00  0.42342657313E+02  0.00000000000E+00 0. -1.
         22    1    3    3    0    0 -0.29739302875E+01 -0.25119113686E+02 -0.17296685685E+03  0.17480660085E+03  0.00000000000E+00 0. -1.
</event>
<event>
 7    1  0.5736319E-006  0.5776887E+02  0.7818608E-02  0.1499419E+00
          2   -1    0    0  502    0  0.00000000000E+00  0.00000000000E+00  0.89438218447E+02  0.89438218447E+02  0.00000000000E+00 0. -1.
          1   -1    0    0  501    0 -0.00000000000E+00 -0.00000000000E+00 -0.18941018247E+04  0.18941018247E+04  0.00000000000E+00 0. -1.
         25    2    1    2    0    0 -0.13254710273E+02 -0.56637453151E+02 -0.45173726323E+01  0.13794427285E+03  0.12499890925E+03 0.  0.
          2    1    1    2  501    0 -0.26929223749E+02  0.11827740591E+02 -0.17826821664E+04  0.17829247839E+04  0.00000000000E+00 0. -1.
          1    1    1    2  502    0  0.40183934022E+02  0.44809712560E+02 -0.17464067193E+02  0.62670986398E+02  0.00000000000E+00 0. -1.
         22    1    3    3    0    0  0.26196298418E+02 -0.54874229275E+02  0.44242536161E+02  0.75198597695E+02  0.00000000000E+00 0.  1.
         22    1    3    3    0    0 -0.39451008691E+02 -0.17632238758E+01 -0.48759908793E+02  0.62745675155E+02  0.00000000000E+00 0.  1.
</event>
<event>
 7    1  0.5736319E-006  0.1314809E+03  0.7818608E-02  0.1423217E+00
          2   -1    0    0  502    0  0.00000000000E+00  0.00000000000E+00  0.20244603200E+03  0.20244603200E+03  0.00000000000E+00 0. -1.
          1   -1    0    0  501    0 -0.00000000000E+00 -0.00000000000E+00 -0.67173632167E+03  0.67173632167E+03  0.00000000000E+00 0. -1.
         25    2    1    2    0    0 -0.11419630232E+03  0.40834810600E+02 -0.12525622424E+03  0.21452831005E+03  0.12499998752E+03 0.  0.
          2    1    1    2  501    0 -0.16660921773E+02 -0.15066832668E+02 -0.47335123455E+03  0.47388393834E+03  0.00000000000E+00 0. -1.
          1    1    1    2  502    0  0.13085722410E+03 -0.25767977932E+02  0.12931716913E+03  0.18577010528E+03  0.00000000000E+00 0. -1.
         22    1    3    3    0    0 -0.61122053078E+02  0.53697936788E+02 -0.13637207769E+03  0.15879772467E+03  0.00000000000E+00 0. -1.
         22    1    3    3    0    0 -0.53074249246E+02 -0.12863126188E+02  0.11115853447E+02  0.55730585375E+02  0.00000000000E+00 0. -1.
</event>
<event>
 7    1  0.5736319E-006  0.8989792E+02  0.7818608E-02  0.1324316E+00
          2   -1    0    0  502    0  0.00000000000E+00  0.00000000000E+00  0.29194785237E+03  0.29194785237E+03  0.00000000000E+00 0. -1.
          1   -1    0    0  501    0 -0.00000000000E+00 -0.00000000000E+00 -0.37150626130E+04  0.37150626130E+04  0.00000000000E+00 0. -1.
         25    2    1    2    0    0  0.86923579045E+02 -0.61993521101E+02 -0.41277891029E+03  0.44430879254E+03  0.12499987637E+03 0.  0.
          2    1    1    2  501    0 -0.89504867353E+02 -0.12197221404E+02 -0.32808973747E+04  0.32821406851E+04  0.00000000000E+00 0. -1.
          1    1    1    2  502    0  0.25812883086E+01  0.74190742504E+02  0.27056152440E+03  0.28056098768E+03  0.00000000000E+00 0. -1.
         22    1    3    3    0    0  0.44362643833E+02  0.16758358450E+02 -0.28117300812E+03  0.28514408155E+03  0.00000000000E+00 0. -1.
         22    1    3    3    0    0  0.42560935212E+02 -0.78751879550E+02 -0.13160590217E+03  0.15916471099E+03  0.00000000000E+00 0. -1.
</event>
<event>
 7    1  0.5736319E-006  0.1129717E+03  0.7818608E-02  0.1320597E+00
          2   -1    0    0  502    0  0.00000000000E+00  0.00000000000E+00  0.23165184955E+04  0.23165184955E+04  0.00000000000E+00 0. -1.
          1   -1    0    0  501    0 -0.00000000000E+00 -0.00000000000E+00 -0.10568948316E+04  0.10568948316E+04  0.00000000000E+00 0. -1.
         25    2    1    2    0    0  0.70411516844E+02 -0.66113227498E+02  0.92405982002E+02  0.18300824619E+03  0.12499764842E+03 0.  0.
          2    1    1    2  501    0 -0.11171386780E+03  0.21139453947E+02 -0.10079692230E+04  0.10143612864E+04  0.00000000000E+00 0. -1.
          1    1    1    2  502    0  0.41302350953E+02  0.44973773550E+02  0.21751869049E+04  0.21760437945E+04  0.00000000000E+00 0. -1.
         22    1    3    3    0    0  0.33762769651E+02  0.17840805745E+02 -0.15719379061E+02  0.41295494212E+02  0.00000000000E+00 0.  1.
         22    1    3    3    0    0  0.36648747193E+02 -0.83954033243E+02  0.10812536106E+03  0.14171275198E+03  0.00000000000E+00 0.  1.
</event>
<event>
 7    1  0.5736319E-006  0.4937787E+02  0.7818608E-02  0.1454224E+00
          2   -1    0    0  502    0  0.00000000000E+00  0.00000000000E+00  0.68340152791E+03  0.68340152791E+03  0.00000000000E+00 0. -1.
          1   -1    0    0  501    0 -0.00000000000E+00 -0.00000000000E+00 -0.34914507733E+03  0.34914507733E+03  0.00000000000E+00 0. -1.
         25    2    1    2    0    0  0.19552275355E+02 -0.27391669142E+02  0.77004166226E+02  0.15062594416E+03  0.12500375366E+03 0.  0.
          2    1    1    2  501    0  0.30020978749E+02  0.36709344966E+02 -0.30940738944E+03  0.31302039520E+03  0.00000000000E+00 0. -1.
          1    1    1    2  502    0 -0.49573254105E+02 -0.93176758240E+01  0.56665967379E+03  0.56890026587E+03  0.00000000000E+00 0. -1.
         22    1    3    3    0    0 -0.57349112319E+01 -0.48095291029E+02 -0.16819516515E+02  0.51273212907E+02  0.00000000000E+00 0.  1.
         22    1    3    3    0    0  0.25287186587E+02  0.20703621888E+02  0.93823682741E+02  0.99352731255E+02  0.00000000000E+00 0.  1.
</event>
<event>
 7    1  0.5736319E-006  0.1145709E+03  0.7818608E-02  0.1301232E+00
          2   -1    0    0  502    0  0.00000000000E+00  0.00000000000E+00  0.13140062759E+04  0.13140062759E+04  0.00000000000E+00 0. -1.
          1   -1    0    0  501    0 -0.00000000000E+00 -0.00000000000E+00 -0.22373615227E+03  0.22373615227E+03  0.00000000000E+00 0. -1.
         25    2    1    2    0    0  0.50369756120E+02 -0.12032495571E+03  0.12573863449E+03  0.22011555969E+03  0.12500179244E+03 0.  0.
          2    1    1    2  501    0  0.44793023780E+02  0.56061386010E+02 -0.16622616476E+03  0.18105367114E+03  0.00000000000E+00 0. -1.
          1    1    1    2  502    0 -0.95162779900E+02  0.64263569701E+02  0.11307576539E+04  0.11365731973E+04  0.00000000000E+00 0. -1.
         22    1    3    3    0    0  0.54537695089E+02  0.52583182339E+01  0.33198780626E+02  0.64063789549E+02  0.00000000000E+00 0. -1.
         22    1    3    3    0    0 -0.41679389693E+01 -0.12558327394E+03  0.92539853868E+02  0.15605177014E+03  0.00000000000E+00 0. -1.
</event>
<event>
 7    1  0.5736319E-006  0.1404828E+03  0.7818608E-02  0.1248124E+00
          2   -1    0    0  502    0  0.00000000000E+00  0.00000000000E+00  0.20472048422E+03  0.20472048422E+03  0.00000000000E+00 0. -1.
          1   -1    0    0  501    0 -0.00000000000E+00 -0.00000000000E+00 -0.37417291501E+03  0.37417291501E+03  0.00000000000E+00 0. -1.
         25    2    1    2    0    0 -0.65853811048E+02 -0.10543302940E+02 -0.16059276563E+03  0.21415624177E+03  0.12499989540E+03 0.  0.
          2    1    1    2  501    0 -0.86526664665E+02  0.44825881079E+02 -0.13324030222E+03  0.16507332143E+03  0.00000000000E+00 0. -1.
          1    1    1    2  502    0  0.15238047571E+03 -0.34282578140E+02  0.12438063706E+03  0.19966383603E+03  0.00000000000E+00 0. -1.
         22    1    3    3    0    0 -0.68136708271E+02  0.47778083239E+02 -0.98210609401E+02  0.12872715351E+03  0.00000000000E+00 0. -1.
         22    1    3    3    0    0  0.22828972227E+01 -0.58321386179E+02 -0.62382156227E+02  0.85429088261E+02  0.00000000000E+00 0. -1.
</event>
<event>
 7    1  0.5736319E-006  0.4885278E+02  0.7818608E-02  0.1552095E+00
          2   -1    0    0  502    0  0.00000000000E+00  0.00000000000E+00  0.37409183516E+03  0.37409183516E+03  0.00000000000E+00 0. -1.
          1   -1    0    0  501    0 -0.00000000000E+00 -0.00000000000E+00 -0.30066064311E+04  0.30066064311E+04  0.00000000000E+00 0. -1.
         25    2    1    2    0    0 -0.31602248180E+02 -0.16737045884E+02 -0.77213026077E+03  0.78300016264E+03  0.12500113718E+03 0.  0.
          2    1    1    2  501    0  0.49721835922E+02  0.21847921774E+00 -0.22283558935E+04  0.22289105628E+04  0.00000000000E+00 0. -1.
          1    1    1    2  502    0 -0.18119587742E+02  0.16518566666E+02  0.36797155837E+03  0.36878754083E+03  0.00000000000E+00 0. -1.
         22    1    3    3    0    0 -0.39895338989E+02 -0.65664848279E+02 -0.55356968473E+03  0.55887646777E+03  0.00000000000E+00 0. -1.
         22    1    3    3    0    0  0.82930908090E+01  0.48927802396E+02 -0.21856057604E+03  0.22412369487E+03  0.00000000000E+00 0. -1.
</event>
<event>
 7    1  0.5736319E-006  0.2121545E+03  0.7818608E-02  0.1333372E+00
          2   -1    0    0  502    0  0.00000000000E+00  0.00000000000E+00  0.17679268976E+04  0.17679268976E+04  0.00000000000E+00 0. -1.
          1   -1    0    0  501    0 -0.00000000000E+00 -0.00000000000E+00 -0.11573956402E+04  0.11573956402E+04  0.00000000000E+00 0. -1.
         25    2    1    2    0    0  0.14164994082E+03  0.12298606759E+03 -0.18877905962E+03  0.29402726471E+03  0.12499688190E+03 0.  0.
          2    1    1    2  501    0  0.86330895808E+01  0.27730909365E+02 -0.90915726988E+03  0.90962106118E+03  0.00000000000E+00 0. -1.
          1    1    1    2  502    0 -0.15028303040E+03 -0.15071697696E+03  0.17084675869E+04  0.17216742119E+04  0.00000000000E+00 0. -1.
         22    1    3    3    0    0  0.56715992001E+02  0.12609250409E+03 -0.13625041682E+03  0.19411388260E+03  0.00000000000E+00 0.  1.
         22    1    3    3    0    0  0.84933948815E+02 -0.31064364952E+01 -0.52528642800E+02  0.99913382104E+02  0.00000000000E+00 0.  1.
</event>
<event>
 7    1  0.5736319E-006  0.1108204E+03  0.7818608E-02  0.1436397E+00
          2   -1    0    0  502    0  0.00000000000E+00  0.00000000000E+00  0.10492613148E+04  0.10492613148E+04  0.00000000000E+00 0. -1.
          1   -1    0    0  501    0 -0.00000000000E+00 -0.00000000000E+00 -0.57159149045E+02  0.57159149045E+02  0.00000000000E+00 0. -1.
         25    2    1    2    0    0 -0.95580557133E+02  0.38592748352E+02  0.49836777362E+03  0.52404291471E+03  0.12500198221E+03 0.  0.
          2    1    1    2  501    0 -0.10765290856E+01  0.24092370263E+02 -0.34295697379E+02  0.41926078739E+02  0.00000000000E+00 0. -1.
          1    1    1    2  502    0  0.96657086218E+02 -0.62685118615E+02  0.52803008953E+03  0.54045147040E+03  0.00000000000E+00 0. -1.
         22    1    3    3    0    0  0.31140361285E+01  0.60406743945E+02  0.16790203134E+03  0.17846502196E+03  0.00000000000E+00 0.  1.
         22    1    3    3    0    0 -0.98694593261E+02 -0.21813995593E+02  0.33046574228E+03  0.34557789276E+03  0.00000000000E+00 0.  1.
</event>
<event>
 7    1  0.5736319E-006  0.7048593E+02  0.7818608E-02  0.1441255E+00
          2   -1    0    0  502    0  0.00000000000E+00  0.00000000000E+00  0.99622460192E+02  0.99622460192E+02  0.00000000000E+00 0. -1.
          1   -1    0    0  501    0 -0.00000000000E+00 -0.00000000000E+00 -0.36301180622E+03  0.36301180622E+03  0.00000000000E+00 0. -1.
         25    2    1    2    0    0 -0.43781538435E+02 -0.82648515984E+02 -0.11955712654E+03  0.19663965567E+03  0.12500258948E+03 0.  0.
          2    1    1    2  501    0  0.33205831760E+02  0.15303521294E+02 -0.18351071998E+03  0.18711763512E+03  0.00000000000E+00 0. -1.
          1    1    1    2  502    0  0.10575706675E+02  0.67344994690E+02  0.39678500485E+02  0.78876975615E+02  0.00000000000E+00 0. -1.
         22    1    3    3    0    0  0.14687186993E+02 -0.39443144916E+02 -0.11650620359E+03  0.12387562560E+03  0.00000000000E+00 0. -1.
         22    1    3    3    0    0 -0.58468725428E+02 -0.43205371069E+02 -0.30509229472E+01  0.72764030078E+02  0.00000000000E+00 0. -1.
</event>
<event>
 7    1  0.5736319E-006  0.2914622E+03  0.7818608E-02  0.1210324E+00
          2   -1    0    0  502    0  0.00000000000E+00  0.00000000000E+00  0.24131185202E+04  0.24131185202E+04  0.00000000000E+00 0. -1.
          1   -1    0    0  501    0 -0.00000000000E+00 -0.00000000000E+00 -0.12352237768E+03  0.12352237768E+03  0.00000000000E+00 0. -1.
         25    2    1    2    0    0  0.11463533467E+03  0.27892295997E+03  0.16715690517E+04  0.17031465504E+04  0.12500319909E+03 0.  0.
          2    1    1    2  501    0  0.46483968487E+02 -0.51577100169E+02 -0.65437263080E+02  0.95409601129E+02  0.00000000000E+00 0. -1.
          1    1    1    2  502    0 -0.16111930315E+03 -0.22734585980E+03  0.68346435385E+03  0.73808474635E+03  0.00000000000E+00 0. -1.
         22    1    3    3    0    0  0.12896508425E+03  0.19587425537E+03  0.13741343784E+04  0.13940028719E+04  0.00000000000E+00 0. -1.
         22    1    3    3    0    0 -0.14329749587E+02  0.83048704596E+02  0.29743467329E+03  0.30914367846E+03  0.00000000000E+00 0. -1.
</event>
<event>
 7    1  0.5736319E-006  0.1263295E+03  0.7818608E-02  0.1286343E+00
          2   -1    0    0  502    0  0.00000000000E+00  0.00000000000E+00  0.13363433487E+04  0.13363433487E+04  0.00000000000E+00 0. -1.
          1   -1    0    0  501    0 -0.00000000000E+00 -0.00000000000E+00 -0.28947976388E+03  0.28947976388E+03  0.00000000000E+00 0. -1.
         25    2    1    2    0    0 -0.15510739619E+03  0.58460357974E+02 -0.99833027878E-01  0.20760755410E+03  0.12499987498E+03 0.  0.
          2    1    1    2  501    0  0.29930024228E+02 -0.68501111237E+02 -0.17474851844E+03  0.19006644440E+03  0.00000000000E+00 0. -1.
          1    1    1    2  502    0  0.12517737196E+03  0.10040753262E+02  0.12217119363E+04  0.12281491141E+04  0.00000000000E+00 0. -1.
         22    1    3    3    0    0 -0.12176641039E+03  0.16644833520E+02  0.51536703815E+02  0.13326717909E+03  0.00000000000E+00 0.  1.
         22    1    3    3    0    0 -0.33340985796E+02  0.41815524455E+02 -0.51636536843E+02  0.74340375009E+02  0.00000000000E+00 0.  1.
</event>
<event>
 7    1  0.5736319E-006  0.8983511E+02  0.7818608E-02  0.1394823E+00
          2   -1    0    0  502    0  0.00000000000E+00  0.00000000000E+00  0.18109276190E+04  0.18109276190E+04  0.00000000000E+00 0. -1.
          1   -1    0    0  501    0 -0.00000000000E+00 -0.00000000000E+00 -0.35355442303E+02  0.35355442303E+02  0.00000000000E+00 0. -1.
         25    2    1    2    0    0  0.60484207404E+02  0.10793781533E+03  0.83888085789E+03  0.85711916565E+03  0.12499303606E+03 0.  0.
          2    1    1    2  501    0 -0.24009956625E+02 -0.33289435667E+02 -0.71586674627E+01  0.41664266032E+02  0.00000000000E+00 0. -1.
          1    1    1    2  502    0 -0.36474250779E+02 -0.74648379665E+02  0.94384998630E+03  0.94749962966E+03  0.00000000000E+00 0. -1.
         22    1    3    3    0    0 -0.26494047963E+01  0.11249773021E+03  0.52716129001E+03  0.53903783200E+03  0.00000000000E+00 0. -1.
         22    1    3    3    0    0  0.63133612200E+02 -0.45599148742E+01  0.31171956788E+03  0.31808133365E+03  0.00000000000E+00 0. -1.
</event>
<event>
 7    1  0.5736319E-006  0.6303610E+02  0.7818608E-02  0.1464064E+00
          2   -1    0    0  502    0  0.00000000000E+00  0.00000000000E+00  0.64904827381E+03  0.64904827381E+03  0.00000000000E+00 0. -1.
          1   -1    0    0  501    0 -0.00000000000E+00 -0.00000000000E+00 -0.10023914777E+04  0.10023914777E+04  0.00000000000E+00 0. -1.
         25    2    1    2    0    0 -0.25248918698E+02 -0.38585107813E+02 -0.30298992811E+03  0.33098980490E+03  0.12500014390E+03 0.  0.
          2    1    1    2  501    0  0.35226414598E+01  0.65489514321E+02 -0.68335968865E+03  0.68649963551E+03  0.00000000000E+00 0. -1.
          1    1    1    2  502    0  0.21726277239E+02 -0.26904406508E+02  0.63300641287E+03  0.63395031110E+03  0.00000000000E+00 0. -1.
         22    1    3    3    0    0  0.19793475111E+02 -0.73257467983E+02 -0.15877452687E+03  0.17597667077E+03  0.00000000000E+00 0.  1.
         22    1    3    3    0    0 -0.45042393809E+02  0.34672360170E+02 -0.14421540124E+03  0.15501313413E+03  0.00000000000E+00 0.  1.
</event>
<event>
 7    1  0.5736319E-006  0.6009668E+02  0.7818608E-02  0.1510637E+00
          2   -1    0    0  502    0  0.00000000000E+00  0.00000000000E+00  0.17908060292E+04  0.17908060292E+04  0.00000000000E+00 0. -1.
          1   -1    0    0  501    0 -0.00000000000E+00 -0.00000000000E+00 -0.40489635746E+03  0.40489635746E+03  0.00000000000E+00 0. -1.
         25    2    1    2    0    0  0.78819073645E+01  0.72976311920E+02  0.14699185768E+03  0.20644400887E+03  0.12499942403E+03 0.  0.
          2    1    1    2  501    0 -0.21697752669E+02 -0.14665983371E+02 -0.37415620509E+03  0.37507165895E+03  0.00000000000E+00 0. -1.
          1    1    1    2  502    0  0.13815845304E+02 -0.58310328549E+02  0.16130740191E+04  0.16141867188E+04  0.00000000000E+00 0. -1.
         22    1    3    3    0    0  0.64315276968E+02  0.57911973779E+02  0.87330243809E+02  0.12295049021E+03  0.00000000000E+00 0. -1.
         22    1    3    3    0    0 -0.56433369603E+02  0.15064338141E+02  0.59661613871E+02  0.83493518659E+02  0.00000000000E+00 0. -1.
</event>
<event>
 7    1  0.5736319E-006  0.9143471E+02  0.7818608E-02  0.1332327E+00
          2   -1    0    0  502    0  0.00000000000E+00  0.00000000000E+00  0.37030270250E+03  0.37030270250E+03  0.00000000000E+00 0. -1.
          1   -1    0    0  501    0 -0.00000000000E+00 -0.00000000000E+00 -0.57940328579E+03  0.57940328579E+03  0.00000000000E+00 0. -1.
         25    2    1    2    0    0 -0.12019747674E+03 -0.85434194451E+02  0.15417394346E+03  0.24726783614E+03  0.12500137180E+03 0.  0.
          2    1    1    2  501    0  0.51552942492E+02  0.44357091727E+02 -0.52108803086E+03  0.52550736757E+03  0.00000000000E+00 0. -1.
          1    1    1    2  502    0  0.68644534245E+02  0.41077102724E+02  0.15781350412E+03  0.17693078458E+03  0.00000000000E+00 0. -1.
         22    1    3    3    0    0 -0.46503755801E+01 -0.25362022063E+02  0.10490892290E+03  0.10803120040E+03  0.00000000000E+00 0. -1.
         22    1    3    3    0    0 -0.11554710116E+03 -0.60072172388E+02  0.49265020557E+02  0.13923663574E+03  0.00000000000E+00 0. -1.
</event>
<event>
 7    1  0.5736319E-006  0.1844966E+03  0.7818608E-02  0.1314088E+00
          2   -1    0    0  502    0  0.00000000000E+00  0.00000000000E+00  0.24685448473E+04  0.24685448473E+04  0.00000000000E+00 0. -1.
          1   -1    0    0  501    0 -0.00000000000E+00 -0.00000000000E+00 -0.84580678207E+03  0.84580678207E+03  0.00000000000E+00 0. -1.
         25    2    1    2    0    0  0.11430181672E+03 -0.11757237152E+03 -0.25102806737E+03  0.32485126918E+03  0.12500035451E+03 0.  0.
          2    1    1    2  501    0 -0.15391887838E+03  0.11885552345E+03 -0.54075207292E+03  0.57465682015E+03  0.00000000000E+00 0. -1.
          1    1    1    2  502    0  0.39617061666E+02 -0.12831519302E+01  0.24145182055E+04  0.24148435401E+04  0.00000000000E+00 0. -1.
         22    1    3    3    0    0  0.24237203783E+02  0.25725790049E+02 -0.29314019443E+02  0.45919168729E+02  0.00000000000E+00 0.  1.
         22    1    3    3    0    0  0.90064612933E+02 -0.14329816157E+03 -0.22171404793E+03  0.27893210045E+03  0.00000000000E+00 0.  1.
</event>
<event>
 7    1  0.5736319E-006  0.7882903E+02  0.7818608E-02  0.1505843E+00
          2   -1    0    0  502    0  0.00000000000E+00  0.00000000000E+00  0.30527917324E+03  0.30527917324E+03  0.00000000000E+00 0. -1.
          1   -1    0    0  501    0 -0.00000000000E+00 -0.00000000000E+00 -0.52516838031E+03  0.52516838031E+03  0.00000000000E+00 0. -1.
         25    2    1    2    0    0  0.78534908853E+02 -0.43714903695E+02 -0.75989356325E+02  0.17169099146E+03  0.12499875823E+03 0.  0.
          2    1    1    2  501    0 -0.37370120298E+01  0.20285572318E+02 -0.39508654447E+03  0.39562462932E+03  0.00000000000E+00 0. -1.
          1    1    1    2  502    0 -0.74797896823E+02  0.23429331377E+02  0.25118669373E+03  0.26313193277E+03  0.00000000000E+00 0. -1.
         22    1    3    3    0    0  0.11189064577E+03 -0.44829415238E+02 -0.61259346153E+02  0.13521057862E+03  0.00000000000E+00 0.  1.
         22    1    3    3    0    0 -0.33355736913E+02  0.11145115431E+01 -0.14730010172E+02  0.36480412835E+02  0.00000000000E+00 0.  1.
</event>
<event>
 7    1  0.5736319E-006  0.4058603E+02  0.7818608E-02  0.1558415E+00
          2   -1    0    0  502    0  0.00000000000E+00  0.00000000000E+00  0.63170170990E+03  0.63170170990E+03  0.00000000000E+00 0. -1.
          1   -1    0    0  501    0 -0.00000000000E+00 -0.00000000000E+00 -0.91407862072E+03  0.91407862072E+03  0.00000000000E+00 0. -1.
         25    2    1    2    0    0 -0.16675737522E+02  0.45977854368E+02 -0.16963631959E+03  0.21631436638E+03  0.12499352329E+03 0.  0.
          2    1    1    2  501    0  0.33394938779E+02 -0.23086192498E+02 -0.72020107689E+03  0.72134442909E+03  0.00000000000E+00 0. -1.
          1    1    1    2  502    0 -0.16719201257E+02 -0.22891661870E+02  0.60746048566E+03  0.60812153515E+03  0.00000000000E+00 0. -1.
         22    1    3    3    0    0 -0.58231928469E+01  0.61714741718E+02 -0.18285263456E+03  0.19307435067E+03  0.00000000000E+00 0.  1.
         22    1    3    3    0    0 -0.10852544675E+02 -0.15736887350E+02  0.13216314964E+02  0.23240015719E+02  0.00000000000E+00 0.  1.
</event>
<event>
 7    1  0.5736319E-006  0.6161386E+02  0.7818608E-02  0.1397097E+00
          2   -1    0    0  502    0  0.00000000000E+00  0.00000000000E+00  0.44254340844E+03  0.44254340844E+03  0.00000000000E+00 0. -1.
          1   -1    0    0  501    0 -0.00000000000E+00 -0.00000000000E+00 -0.28663566620E+03  0.28663566620E+03  0.00000000000E+00 0. -1.
         25    2    1    2    0    0  0.46077465645E+02  0.39286236611E+02 -0.36620728379E+02  0.14364014265E+03  0.12499948642E+03 0.  0.
          2    1    1    2  501    0  0.13715838217E+02 -0.57147764699E+02 -0.18952211144E+03  0.19842535613E+03  0.00000000000E+00 0. -1.
          1    1    1    2  502    0 -0.59793303863E+02  0.17861528088E+02  0.38205058206E+03  0.38711357587E+03  0.00000000000E+00 0. -1.
         22    1    3    3    0    0  0.43839052379E+02  0.44434892953E+02 -0.79116173130E+02  0.10077544878E+03  0.00000000000E+00 0.  1.
         22    1    3    3    0    0  0.22384132663E+01 -0.51486563418E+01  0.42495444751E+02  0.42864693871E+02  0.00000000000E+00 0.  1.
</event>
<event>
 7    1  0.5736319E-006  0.1096429E+03  0.7818608E-02  0.1348376E+00
          2   -1    0    0  502    0  0.00000000000E+00  0.00000000000E+00  0.21049497941E+04  0.21049497941E+04  0.00000000000E+00 0. -1.
          1   -1    0    0  501    0 -0.00000000000E+00 -0.00000000000E+00 -0.20265273112E+03  0.20265273112E+03  0.00000000000E+00 0. -1.
         25    2    1    2    0    0 -0.15165627538E+02 -0.14983164039E+03  0.86239561129E+02  0.21388270037E+03  0.12501612253E+03 0.  0.
          2    1    1    2  501    0  0.24846505279E+02  0.10143324205E+03 -0.11883277459E+03  0.15820012558E+03  0.00000000000E+00 0. -1.
          1    1    1    2  502    0 -0.96808777413E+01  0.48398398344E+02  0.19348902765E+04  0.19355196993E+04  0.00000000000E+00 0. -1.
         22    1    3    3    0    0 -0.50582415364E+02 -0.14740081294E+03  0.51279640686E+02  0.16405847113E+03  0.00000000000E+00 0.  1.
         22    1    3    3    0    0  0.35416787825E+02 -0.24308274512E+01  0.34959920443E+02  0.49824229240E+02  0.00000000000E+00 0.  1.
</event>
<event>
 7    1  0.5736319E-006  0.4760247E+02  0.7818608E-02  0.1554770E+00
          2   -1    0    0  502    0  0.00000000000E+00  0.00000000000E+00  0.91623281224E+03  0.91623281224E+03  0.00000000000E+00 0. -1.
          1   -1    0    0  501    0 -0.00000000000E+00 -0.00000000000E+00 -0.15976706361E+04  0.15976706361E+04  0.00000000000E+00 0. -1.
         25    2    1    2    0    0  0.33450043588E+02  0.62280758595E+02 -0.12815096889E+02  0.14417189324E+03  0.12499403900E+03 0.  0.
          2    1    1    2  501    0 -0.52337017923E+01 -0.24176400951E+02 -0.15184155486E+04  0.15186170248E+04  0.00000000000E+00 0. -1.
          1    1    1    2  502    0 -0.28216341796E+02 -0.38104357644E+02  0.84979282159E+03  0.85111453027E+03  0.00000000000E+00 0. -1.
         22    1    3    3    0    0  0.22897471150E+02  0.67245646994E+02  0.45725261974E+02  0.84481186114E+02  0.00000000000E+00 0. -1.
         22    1    3    3    0    0  0.10552572439E+02 -0.49648883993E+01 -0.58540358863E+02  0.59690707130E+02  0.00000000000E+00 0. -1.
</event>
<event>
 7    1  0.5736319E-006  0.1724801E+03  0.7818608E-02  0.1229933E+00
          2   -1    0    0  502    0  0.00000000000E+00  0.00000000000E+00  0.66310110231E+03  0.66310110231E+03  0.00000000000E+00 0. -1.
          1   -1    0    0  501    0 -0.00000000000E+00 -0.00000000000E+00 -0.74341015416E+03  0.74341015416E+03  0.00000000000E+00 0. -1.
         25    2    1    2    0    0 -0.25903308556E+03 -0.32913021191E+02  0.16902867068E+03  0.33522713107E+03  0.12500052605E+03 0.  0.
          2    1    1    2  501    0  0.16871765394E+03  0.18654185954E+01 -0.64373931714E+03  0.66548436117E+03  0.00000000000E+00 0. -1.
          1    1    1    2  502    0  0.90315431624E+02  0.31047602596E+02  0.39440159461E+03  0.40579976422E+03  0.00000000000E+00 0. -1.
         22    1    3    3    0    0 -0.20063750168E+03  0.18272096080E+02  0.15955959409E+03  0.25699910630E+03  0.00000000000E+00 0.  1.
         22    1    3    3    0    0 -0.58395583881E+02 -0.51185117271E+02  0.94690765921E+01  0.78228024763E+02  0.00000000000E+00 0.  1.
</event>
<event>
 7    1  0.5736319E-006  0.3973589E+02  0.7818608E-02  0.1512164E+00
          2   -1    0    0  502    0  0.00000000000E+00  0.00000000000E+00  0.12141493450E+04  0.12141493450E+04  0.00000000000E+00 0. -1.
          1   -1    0    0  501    0 -0.00000000000E+00 -0.00000000000E+00 -0.18720352061E+03  0.18720352061E+03  0.00000000000E+00 0. -1.
         25    2    1    2    0    0  0.15059089561E+02  0.19947956664E+02  0.17181077297E+03  0.21393016628E+03  0.12498990832E+03 0.  0.
          2    1    1    2  501    0  0.22630865473E+02 -0.32661674586E+02 -0.16337418805E+03  0.16813704643E+03  0.00000000000E+00 0. -1.
          1    1    1    2  502    0 -0.37689955034E+02  0.12713717922E+02  0.10185092395E+04  0.10192856529E+04  0.00000000000E+00 0. -1.
         22    1    3    3    0    0 -0.55233917304E+02  0.13611304551E+02  0.76589444661E+02  0.95404382844E+02  0.00000000000E+00 0.  1.
         22    1    3    3    0    0  0.70293006866E+02  0.63366521128E+01  0.95221328311E+02  0.11852578344E+03  0.00000000000E+00 0.  1.
</event>
<event>
 7    1  0.5736319E-006  0.1620389E+03  0.7818608E-02  0.1363766E+00
          2   -1    0    0  502    0  0.00000000000E+00  0.00000000000E+00  0.14096042747E+04  0.14096042747E+04  0.00000000000E+00 0. -1.
          1   -1    0    0  501    0 -0.00000000000E+00 -0.00000000000E+00 -0.19864098617E+03  0.19864098617E+03  0.00000000000E+00 0. -1.
         25    2    1    2    0    0 -0.83748951539E+02 -0.12772615867E+03  0.41919904755E+02  0.20176800440E+03  0.12500076277E+03 0.  0.
          2    1    1    2  501    0 -0.27838686169E+02  0.92117901154E+01 -0.11167241370E+03  0.11545812014E+03  0.00000000000E+00 0. -1.
          1    1    1    2  502    0  0.11158763771E+03  0.11851436855E+03  0.12807157975E+04  0.12910191363E+04  0.00000000000E+00 0. -1.
         22    1    3    3    0    0  0.31639856782E+02 -0.15345486704E+02  0.15963428618E+02  0.38618590764E+02  0.00000000000E+00 0. -1.
         22    1    3    3    0    0 -0.11538880832E+03 -0.11238067196E+03  0.25956476137E+02  0.16314941364E+03  0.00000000000E+00 0. -1.
</event>
<event>
 7    1  0.5736319E-006  0.2805631E+03  0.7818608E-02  0.1212074E+00
          2   -1    0    0  502    0  0.00000000000E+00  0.00000000000E+00  0.24993253662E+03  0.24993253662E+03  0.00000000000E+00 0. -1.
          1   -1    0    0  501    0 -0.00000000000E+00 -0.00000000000E+00 -0.10997598087E+04  0.10997598087E+04  0.00000000000E+00 0. -1.
         25    2    1    2    0    0  0.14046557826E+03  0.17601789110E+03 -0.34825168356E+03  0.43314748763E+03  0.12499853707E+03 0.  0.
          2    1    1    2  501    0  0.37733967362E+02  0.59903336405E+02 -0.60058912228E+03  0.60474751409E+03  0.00000000000E+00 0. -1.
          1    1    1    2  502    0 -0.17819954562E+03 -0.23592122750E+03  0.99013533709E+02  0.31179734364E+03  0.00000000000E+00 0. -1.
         22    1    3    3    0    0 -0.10148082977E+02  0.56766981434E+02 -0.40905494836E+02  0.70701720467E+02  0.00000000000E+00 0.  1.
         22    1    3    3    0    0  0.15061366123E+03  0.11925090966E+03 -0.30734618873E+03  0.36244576716E+03  0.00000000000E+00 0.  1.
</event>
<event>
 7    1  0.5736319E-006  0.2528265E+03  0.7818608E-02  0.1333033E+00
          2   -1    0    0  502    0  0.00000000000E+00  0.00000000000E+00  0.26281192832E+04  0.26281192832E+04  0.00000000000E+00 0. -1.
          1   -1    0    0  501    0 -0.00000000000E+00 -0.00000000000E+00 -0.63510689452E+03  0.63510689452E+03  0.00000000000E+00 0. -1.
         25    2    1    2    0    0  0.15446063294E+03 -0.22019020789E+03  0.11457887162E+04  0.11835533634E+04  0.12499986799E+03 0.  0.
          2    1    1    2  501    0 -0.13033817166E+03  0.21623873016E+03 -0.59025428956E+03  0.64198703551E+03  0.00000000000E+00 0. -1.
          1    1    1    2  502    0 -0.24122461286E+02  0.39514777237E+01  0.14374779620E+04  0.14376857788E+04  0.00000000000E+00 0. -1.
         22    1    3    3    0    0  0.79917139809E+02 -0.20086861419E+03  0.91756901690E+03  0.94269181081E+03  0.00000000000E+00 0. -1.
         22    1    3    3    0    0  0.74543493135E+02 -0.19321593697E+02  0.22821969933E+03  0.24086155259E+03  0.00000000000E+00 0. -1.
</event>
<event>
 7    1  0.5736319E-006  0.7367204E+02  0.7818608E-02  0.1396062E+00
          2   -1    0    0  502    0  0.00000000000E+00  0.00000000000E+00  0.25682020266E+03  0.25682020266E+03  0.00000000000E+00 0. -1.
          1   -1    0    0  501    0 -0.00000000000E+00 -0.00000000000E+00 -0.55568380168E+03  0.55568380168E+03  0.00000000000E+00 0. -1.
         25    2    1    2    0    0 -0.51731137086E+02  0.38242818651E+02 -0.49247417081E+02  0.14896336070E+03  0.12500460400E+03 0.  0.
          2    1    1    2  501    0 -0.23420639461E+02 -0.43674219230E+02 -0.44830957643E+03  0.45104039741E+03  0.00000000000E+00 0. -1.
          1    1    1    2  502    0  0.75151776548E+02  0.54314005791E+01  0.19869339449E+03  0.21250024623E+03  0.00000000000E+00 0. -1.
         22    1    3    3    0    0 -0.22698410009E+02  0.55075325633E+02 -0.82474463441E+02  0.10173763527E+03  0.00000000000E+00 0.  1.
         22    1    3    3    0    0 -0.29032727078E+02 -0.16832506982E+02  0.33227046360E+02  0.47225725433E+02  0.00000000000E+00 0.  1.
</event>
<event>
 7    1  0.5736319E-006  0.7436994E+02  0.7818608E-02  0.1348733E+00
          2   -1    0    0  502    0  0.00000000000E+00  0.00000000000E+00  0.13233106346E+03  0.13233106346E+03  0.00000000000E+00 0. -1.
          1   -1    0    0  501    0 -0.00000000000E+00 -0.00000000000E+00 -0.12054878671E+04  0.12054878671E+04  0.00000000000E+00 0. -1.
         25    2    1    2    0    0  0.12393990969E+02 -0.10769876337E+03 -0.37842832181E+03  0.41301488435E+03  0.12498266002E+03 0.  0.
          2    1    1    2  501    0 -0.54818472930E+02  0.48851426804E+02 -0.79646991545E+03  0.79984739363E+03  0.00000000000E+00 0. -1.
          1    1    1    2  502    0  0.42424481962E+02  0.58847336569E+02  0.10174143366E+03  0.12495665254E+03  0.00000000000E+00 0. -1.
         22    1    3    3    0    0 -0.33665021238E+02 -0.33980635534E+02 -0.26921859617E+03  0.27343494614E+03  0.00000000000E+00 0.  1.
         22    1    3    3    0    0  0.46059012206E+02 -0.73718127839E+02 -0.10920972564E+03  0.13957993822E+03  0.00000000000E+00 0.  1.
</event>
<event>
 7    1  0.5736319E-006  0.1044101E+03  0.7818608E-02  0.1340830E+00
          2   -1    0    0  502    0  0.00000000000E+00  0.00000000000E+00  0.39426539660E+03  0.39426539660E+03  0.00000000000E+00 0. -1.
          1   -1    0    0  501    0 -0.00000000000E+00 -0.00000000000E+00 -0.92069409971E+03  0.92069409971E+03  0.00000000000E+00 0. -1.
         25    2    1    2    0    0 -0.13809205707E+03 -0.69059690442E+02 -0.10013471816E+03  0.22246528671E+03  0.12500073976E+03 0.  0.
          2    1    1    2  501    0  0.84069003651E+02  0.57213249081E+02 -0.75365981771E+03  0.76048936486E+03  0.00000000000E+00 0. -1.
          1    1    1    2  502    0  0.54023053422E+02  0.11846441361E+02  0.32736583275E+03  0.33200484473E+03  0.00000000000E+00 0. -1.
         22    1    3    3    0    0 -0.46041045817E+02 -0.55227239218E+01 -0.10042642017E+03  0.11061529844E+03  0.00000000000E+00 0.  1.
         22    1    3    3    0    0 -0.92051011256E+02 -0.63536966520E+02  0.29170201529E+00  0.11184998828E+03  0.00000000000E+00 0.  1.
</event>
<event>
 7    1  0.5736319E-006  0.1636807E+03  0.7818608E-02  0.1313480E+00
          2   -1    0    0  502    0  0.00000000000E+00  0.00000000000E+00  0.20167786380E+04  0.20167786380E+04  0.00000000000E+00 0. -1.
          1   -1    0    0  501    0 -0.00000000000E+00 -0.00000000000E+00 -0.76515756117E+03  0.76515756117E+03  0.00000000000E+00 0. -1.
         25    2    1    2    0    0  0.18007629901E+03  0.51092223150E+02 -0.10428822706E+03  0.24806872269E+03  0.12499667252E+03 0.  0.
          2    1    1    2  501    0 -0.14204282043E+03 -0.75001801544E+02 -0.57776157668E+03  0.59967480568E+03  0.00000000000E+00 0. -1.
          1    1    1    2  502    0 -0.38033478586E+02  0.23909578394E+02  0.19336708806E+04  0.19341926708E+04  0.00000000000E+00 0. -1.
         22    1    3    3    0    0  0.14226627196E+03  0.36951585587E+02 -0.12165168033E+02  0.14748933225E+03  0.00000000000E+00 0.  1.
         22    1    3    3    0    0  0.37810027057E+02  0.14140637562E+02 -0.92123059030E+02  0.10057939044E+03  0.00000000000E+00 0.  1.
</event>
<event>
 7    1  0.5736319E-006  0.7795139E+02  0.7818608E-02  0.1342101E+00
          2   -1    0    0  502    0  0.00000000000E+00  0.00000000000E+00  0.57066804902E+03  0.57066804902E+03  0.00000000000E+00 0. -1.
          1   -1    0    0  501    0 -0.00000000000E+00 -0.00000000000E+00 -0.39969236539E+03  0.39969236539E+03  0.00000000000E+00 0. -1.
         25    2    1    2    0    0 -0.10553013105E+03 -0.36347011030E+02 -0.15650940284E+03  0.22929566524E+03  0.12499438048E+03 0.  0.
          2    1    1    2  501    0  0.38197414825E+02  0.65240382318E+02 -0.19724872011E+03  0.21124016561E+03  0.00000000000E+00 0. -1.
          1    1    1    2  502    0  0.67332716224E+02 -0.28893371288E+02  0.52473380658E+03  0.52982458356E+03  0.00000000000E+00 0. -1.
         22    1    3    3    0    0  0.60231463924E+01 -0.33304771962E+02  0.37047569074E+01  0.34047193007E+02  0.00000000000E+00 0.  1.
         22    1    3    3    0    0 -0.11155327744E+03 -0.30422390681E+01 -0.16021415975E+03  0.19524847223E+03  0.00000000000E+00 0.  1.
</event>
<event>
 7    1  0.5736319E-006  0.3827452E+02  0.7818608E-02  0.1538162E+00
          2   -1    0    0  502    0  0.00000000000E+00  0.00000000000E+00  0.22599563037E+02  0.22599563037E+02  0.00000000000E+00 0. -1.
          1   -1    0    0  501    0 -0.00000000000E+00 -0.00000000000E+00 -0.79089704357E+03  0.79089704357E+03  0.00000000000E+00 0. -1.
         25    2    1    2    0    0 -0.25751913595E+01 -0.69772083126E+02 -0.58056083826E+03  0.59795527715E+03  0.12499940540E+03 0.  0.
          2    1    1    2  501    0 -0.54234972897E+01  0.33813210301E+02 -0.17218154941E+03  0.17555407563E+03  0.00000000000E+00 0. -1.
          1    1    1    2  502    0  0.79986886492E+01  0.35958872825E+02 -0.15555092866E+02  0.39987253832E+02  0.00000000000E+00 0. -1.
         22    1    3    3    0    0 -0.26244264194E+02  0.20319297687E+02 -0.55276119032E+02  0.64475457322E+02  0.00000000000E+00 0. -1.
         22    1    3    3    0    0  0.23669072835E+02 -0.90091380813E+02 -0.52528471923E+03  0.53347981983E+03  0.00000000000E+00 0. -1.
</event>
<event>
 7    1  0.5736319E-006  0.1056272E+03  0.7818608E-02  0.1398919E+00
          2   -1    0    0  502    0  0.00000000000E+00  0.00000000000E+00  0.46769912286E+03  0.46769912286E+03  0.00000000000E+00 0. -1.
          1   -1    0    0  501    0 -0.00000000000E+00 -0.00000000000E+00 -0.17474350148E+04  0.17474350148E+04  0.00000000000E+00 0. -1.
         25    2    1    2    0    0 -0.34293364202E+01 -0.13014658563E+03  0.27720135480E+02  0.18260243718E+03  0.12500140020E+03 0.  0.
          2    1    1    2  501    0 -0.17597463426E+02  0.28845194358E+02 -0.16624373254E+04  0.16627806761E+04  0.00000000000E+00 0. -1.
          1    1    1    2  502    0  0.21026799846E+02  0.10130139128E+03  0.35498129792E+03  0.36975102442E+03  0.00000000000E+00 0. -1.
         22    1    3    3    0    0  0.10130365086E+02 -0.73092576500E+02 -0.47097836596E+02  0.87540592003E+02  0.00000000000E+00 0. -1.
         22    1    3    3    0    0 -0.13559701506E+02 -0.57054009135E+02  0.74817972075E+02  0.95061845178E+02  0.00000000000E+00 0. -1.
</event>
<event>
 7    1  0.5736319E-006  0.7886818E+02  0.7818608E-02  0.1354188E+00
          2   -1    0    0  502    0  0.00000000000E+00  0.00000000000E+00  0.69499529528E+02  0.69499529528E+02  0.00000000000E+00 0. -1.
          1   -1    0    0  501    0 -0.00000000000E+00 -0.00000000000E+00 -0.18568962457E+04  0.18568962457E+04  0.00000000000E+00 0. -1.
         25    2    1    2    0    0 -0.26449628301E+02 -0.75086665366E+02 -0.62345748430E+03  0.64082892355E+03  0.12499953749E+03 0.  0.
          2    1    1    2  501    0 -0.38811529926E+02  0.72729945533E+02 -0.12053984612E+04  0.12082141491E+04  0.00000000000E+00 0. -1.
          1    1    1    2  502    0  0.65261158227E+02  0.23567198333E+01  0.41459229319E+02  0.77352702585E+02  0.00000000000E+00 0. -1.
         22    1    3    3    0    0  0.24840708693E+02 -0.87804481249E+02 -0.31796288106E+03  0.33079764429E+03  0.00000000000E+00 0. -1.
         22    1    3    3    0    0 -0.51290336994E+02  0.12717815882E+02 -0.30549460324E+03  0.31003127926E+03  0.00000000000E+00 0. -1.
</event>
<event>
 7    1  0.5736319E-006  0.6281389E+02  0.7818608E-02  0.1391267E+00
          2   -1    0    0  502    0  0.00000000000E+00  0.00000000000E+00  0.14643084983E+04  0.14643084983E+04  0.00000000000E+00 0. -1.
          1   -1    0    0  501    0 -0.00000000000E+00 -0.00000000000E+00 -0.35092783985E+02  0.35092783985E+02  0.00000000000E+00 0. -1.
         25    2    1    2    0    0  0.11116147830E+02 -0.44396586393E+02  0.18652479662E+03  0.22912029797E+03  0.12493992781E+03 0.  0.
          2    1    1    2  501    0  0.45309520046E+02  0.65931163637E+02  0.11017491064E+03  0.13615572658E+03  0.00000000000E+00 0. -1.
          1    1    1    2  502    0 -0.56425667876E+02 -0.21534577244E+02  0.11325160070E+04  0.11341252577E+04  0.00000000000E+00 0. -1.
         22    1    3    3    0    0 -0.25386108819E+01  0.18355089422E+01 -0.18367867642E+02  0.18633094215E+02  0.00000000000E+00 0.  1.
         22    1    3    3    0    0  0.13654758712E+02 -0.46232095335E+02  0.20489266427E+03  0.21048720376E+03  0.00000000000E+00 0.  1.
</event>
<event>
 7    1  0.5736319E-006  0.1671629E+03  0.7818608E-02  0.1278189E+00
          2   -1    0    0  502    0  0.00000000000E+00  0.00000000000E+00  0.15575512127E+03  0.15575512127E+03  0.00000000000E+00 0. -1.
          1   -1    0    0  501    0 -0.00000000000E+00 -0.00000000000E+00 -0.61860609215E+03  0.61860609215E+03  0.00000000000E+00 0. -1.
         25    2    1    2    0    0 -0.11683987122E+03 -0.12914014246E+03 -0.13159255288E+02  0.21477018804E+03  0.12499734306E+03 0.  0.
          2    1    1    2  501    0  0.14874092201E+03  0.77105531636E+02 -0.46700497004E+03  0.49614792847E+03  0.00000000000E+00 0. -1.
          1    1    1    2  502    0 -0.31901050786E+02  0.52034610821E+02  0.17313254448E+02  0.63443096898E+02  0.00000000000E+00 0. -1.
         22    1    3    3    0    0 -0.10830596377E+03 -0.37813791354E+02  0.21502753127E+02  0.11671517894E+03  0.00000000000E+00 0.  1.
         22    1    3    3    0    0 -0.85339074541E+01 -0.91326351102E+02 -0.34662008415E+02  0.98055009099E+02  0.00000000000E+00 0.  1.
</event>
<event>
 7    1  0.5736319E-006  0.9945361E+02  0.7818608E-02  0.1317416E+00
          2   -1    0    0  502    0  0.00000000000E+00  0.00000000000E+00  0.23953118335E+04  0.23953118335E+04  0.00000000000E+00 0. -1.
          1   -1    0    0  501    0 -0.00000000000E+00 -0.00000000000E+00 -0.39187649460E+03  0.39187649460E+03  0.00000000000E+00 0. -1.
         25    2    1    2    0    0 -0.10751343344E+03  0.83229233110E+02  0.14283472696E+03  0.23347742642E+03  0.12499482313E+03 0.  0.
          2    1    1    2  501    0  0.97961821994E+02 -0.12507272200E+02 -0.33892903348E+03  0.35302385212E+03  0.00000000000E+00 0. -1.
          1    1    1    2  502    0  0.95516114469E+01 -0.70721960910E+02  0.21995296455E+04  0.22006870496E+04  0.00000000000E+00 0. -1.
         22    1    3    3    0    0 -0.75024710516E+02  0.30134155142E+02  0.35635003765E+01  0.80928814579E+02  0.00000000000E+00 0. -1.
         22    1    3    3    0    0 -0.32488722924E+02  0.53095077968E+02  0.13927122658E+03  0.15254861184E+03  0.00000000000E+00 0. -1.
</event>
<event>
 7    1  0.5736319E-006  0.1830792E+03  0.7818608E-02  0.1201341E+00
          2   -1    0    0  502    0  0.00000000000E+00  0.00000000000E+00  0.15489930638E+04  0.15489930638E+04  0.00000000000E+00 0. -1.
          1   -1    0    0  501    0 -0.00000000000E+00 -0.00000000000E+00 -0.20240587071E+03  0.20240587071E+03  0.00000000000E+00 0. -1.
         25    2    1    2    0    0  0.60362141554E+02  0.26232980579E+03  0.78985306770E+03  0.84376951849E+03  0.12497446393E+03 0.  0.
          2    1    1    2  501    0 -0.60820666825E+02 -0.10546560751E+03 -0.14456519023E+03  0.18900064049E+03  0.00000000000E+00 0. -1.
          1    1    1    2  502    0  0.45852527148E+00 -0.15686419829E+03  0.70129931566E+03  0.71862877558E+03  0.00000000000E+00 0. -1.
         22    1    3    3    0    0  0.65403904156E+02  0.27023761676E+03  0.69648442147E+03  0.74993105653E+03  0.00000000000E+00 0. -1.
         22    1    3    3    0    0 -0.50417626017E+01 -0.79078109695E+01  0.93368646228E+02  0.93838461960E+02  0.00000000000E+00 0. -1.
</event>
<event>
 7    1  0.5736319E-006  0.2248835E+03  0.7818608E-02  0.1219237E+00
          2   -1    0    0  502    0  0.00000000000E+00  0.00000000000E+00  0.13343616920E+04  0.13343616920E+04  0.00000000000E+00 0. -1.
          1   -1    0    0  501    0 -0.00000000000E+00 -0.00000000000E+00 -0.29248524463E+04  0.29248524463E+04  0.00000000000E+00 0. -1.
         25    2    1    2    0    0  0.51183198094E+02 -0.29006398914E+03 -0.33378131403E+03  0.46237645701E+03  0.12500073937E+03 0.  0.
          2    1    1    2  501    0 -0.47292101063E+02  0.66845406783E+02 -0.25162915876E+04  0.25176235233E+04  0.00000000000E+00 0. -1.
          1    1    1    2  502    0 -0.38910970308E+01  0.22321858235E+03  0.12595821473E+04  0.12792141580E+04  0.00000000000E+00 0. -1.
         22    1    3    3    0    0  0.46326803028E+01 -0.26371209445E+03 -0.29832812413E+03  0.39820246123E+03  0.00000000000E+00 0.  1.
         22    1    3    3    0    0  0.46550517792E+02 -0.26351894686E+02 -0.35453189904E+02  0.64173995782E+02  0.00000000000E+00 0.  1.
</event>
<event>
 7    1  0.5736319E-006  0.2962196E+02  0.7818608E-02  0.1650072E+00
          2   -1    0    0  502    0  0.00000000000E+00  0.00000000000E+00  0.93549302870E+03  0.93549302870E+03  0.00000000000E+00 0. -1.
          1   -1    0    0  501    0 -0.00000000000E+00 -0.00000000000E+00 -0.16285873471E+03  0.16285873471E+03  0.00000000000E+00 0. -1.
         25    2    1    2    0    0 -0.45868906425E+02 -0.19906447249E+02 -0.35769812412E+02  0.13929786558E+03  0.12499677059E+03 0.  0.
          2    1    1    2  501    0  0.23810427752E+02  0.15824781870E+02 -0.72464159870E+02  0.77900029888E+02  0.00000000000E+00 0. -1.
          1    1    1    2  502    0  0.22058478674E+02  0.40816653794E+01  0.88086826627E+03  0.88115386794E+03  0.00000000000E+00 0. -1.
         22    1    3    3    0    0 -0.38153562700E+02 -0.72079148921E+02 -0.16923988273E+02  0.83291772913E+02  0.00000000000E+00 0.  1.
         22    1    3    3    0    0 -0.77153437249E+01  0.52172701672E+02 -0.18845824139E+02  0.56006092669E+02  0.00000000000E+00 0.  1.
</event>
<event>
 7    1  0.5736319E-006  0.1074897E+03  0.7818608E-02  0.1434189E+00
          2   -1    0    0  502    0  0.00000000000E+00  0.00000000000E+00  0.44497906330E+03  0.44497906330E+03  0.00000000000E+00 0. -1.
          1   -1    0    0  501    0 -0.00000000000E+00 -0.00000000000E+00 -0.15622875506E+03  0.15622875506E+03  0.00000000000E+00 0. -1.
         25    2    1    2    0    0 -0.10405537652E+03  0.69857002914E+02  0.46096104388E+02  0.18291508897E+03  0.12500222675E+03 0.  0.
          2    1    1    2  501    0  0.94047845515E+01 -0.23465740105E+02 -0.77349265597E+02  0.81375670932E+02  0.00000000000E+00 0. -1.
          1    1    1    2  502    0  0.94650591969E+02 -0.46391262810E+02  0.32000346945E+03  0.33691705846E+03  0.00000000000E+00 0. -1.
         22    1    3    3    0    0 -0.83972961205E+02  0.99037670849E+02  0.68205105673E+01  0.13002475851E+03  0.00000000000E+00 0. -1.
         22    1    3    3    0    0 -0.20082415315E+02 -0.29180667935E+02  0.39275593821E+02  0.52890330459E+02  0.00000000000E+00 0. -1.
</event>
<event>
 7    1  0.5736319E-006  0.5351159E+02  0.7818608E-02  0.1560052E+00
          2   -1    0    0  502    0  0.00000000000E+00  0.00000000000E+00  0.28766003645E+04  0.28766003645E+04  0.00000000000E+00 0. -1.
          1   -1    0    0  501    0 -0.00000000000E+00 -0.00000000000E+00 -0.28805193334E+02  0.28805193334E+02  0.00000000000E+00 0. -1.
         25    2    1    2    0    0  0.34840445599E+02 -0.19763495671E+02  0.13865550474E+04  0.13927544035E+04  0.12500190624E+03 0.  0.
          2    1    1    2  501    0 -0.53102839235E+02  0.88441758029E+01  0.26433075989E+01  0.53899147076E+02  0.00000000000E+00 0. -1.
          1    1    1    2  502    0  0.18262393636E+02  0.10919319868E+02  0.14585968162E+04  0.14587520073E+04  0.00000000000E+00 0. -1.
         22    1    3    3    0    0  0.49629210166E+02 -0.65939306595E+02  0.91402195917E+03  0.91774026418E+03  0.00000000000E+00 0.  1.
         22    1    3    3    0    0 -0.14788764566E+02  0.46175810924E+02  0.47253308825E+03  0.47501413933E+03  0.00000000000E+00 0.  1.
</event>
<event>
 7    1  0.5736319E-006  0.9192800E+02  0.7818608E-02  0.1425666E+00
          2   -1    0    0  502    0  0.00000000000E+00  0.00000000000E+00  0.20405979774E+04  0.20405979774E+04  0.00000000000E+00 0. -1.
          1   -1    0    0  501    0 -0.00000000000E+00 -0.00000000000E+00 -0.22144156362E+03  0.22144156362E+03  0.00000000000E+00 0. -1.
         25    2    1    2    0    0  0.92340324983E+02  0.68942539650E+02  0.23943959278E+03  0.29366076921E+03  0.12500207754E+03 0.  0.
          2    1    1    2  501    0 -0.31508117474E+02 -0.12432826674E+01 -0.19187589951E+03  0.19444965423E+03  0.00000000000E+00 0. -1.
          1    1    1    2  502    0 -0.60832207509E+02 -0.67699256982E+02  0.17715927205E+04  0.17739291176E+04  0.00000000000E+00 0. -1.
         22    1    3    3    0    0  0.11978160773E+03  0.75035894494E+02  0.19029074565E+03  0.23704131896E+03  0.00000000000E+00 0. -1.
         22    1    3    3    0    0 -0.27441282750E+02 -0.60933548446E+01  0.49148847138E+02  0.56619450255E+02  0.00000000000E+00 0. -1.
</event>
<event>
 7    1  0.5736319E-006  0.3777417E+02  0.7818608E-02  0.1547447E+00
          2   -1    0    0  502    0  0.00000000000E+00  0.00000000000E+00  0.10911541490E+03  0.10911541490E+03  0.00000000000E+00 0. -1.
          1   -1    0    0  501    0 -0.00000000000E+00 -0.00000000000E+00 -0.77146966812E+03  0.77146966812E+03  0.00000000000E+00 0. -1.
         25    2    1    2    0    0 -0.63701401573E+02  0.24832376671E+02 -0.14195462699E+03  0.20112603167E+03  0.12500419592E+03 0.  0.
          2    1    1    2  501    0  0.27325615299E+02 -0.17908876938E+02 -0.59514674545E+03  0.59604283885E+03  0.00000000000E+00 0. -1.
          1    1    1    2  502    0  0.36375786274E+02 -0.69234997335E+01  0.74747119224E+02  0.83416212500E+02  0.00000000000E+00 0. -1.
         22    1    3    3    0    0 -0.77990296703E+02 -0.28877934743E+02 -0.10680573019E+03  0.13536574713E+03  0.00000000000E+00 0. -1.
         22    1    3    3    0    0  0.14288895129E+02  0.53710311414E+02 -0.35148896803E+02  0.65760284539E+02  0.00000000000E+00 0. -1.
</event>
<event>
 7    1  0.5736319E-006  0.1382953E+03  0.7818608E-02  0.1253155E+00
          2   -1    0    0  502    0  0.00000000000E+00  0.00000000000E+00  0.20671186576E+04  0.20671186576E+04  0.00000000000E+00 0. -1.
          1   -1    0    0  501    0 -0.00000000000E+00 -0.00000000000E+00 -0.23594269575E+03  0.23594269575E+03  0.00000000000E+00 0. -1.
         25    2    1    2    0    0 -0.12528797725E+03  0.12571812547E+03  0.11290894246E+03  0.24469514464E+03  0.12500064083E+03 0.  0.
          2    1    1    2  501    0  0.13190680745E+03 -0.31808665588E+02 -0.14160080130E+03  0.19611727100E+03  0.00000000000E+00 0. -1.
          1    1    1    2  502    0 -0.66188301981E+01 -0.93909459879E+02  0.18598678207E+04  0.18622489377E+04  0.00000000000E+00 0. -1.
         22    1    3    3    0    0  0.20382760181E+02  0.47613264941E+02  0.27771790017E+02  0.58768633059E+02  0.00000000000E+00 0. -1.
         22    1    3    3    0    0 -0.14567073743E+03  0.78104860526E+02  0.85137152441E+02  0.18592651158E+03  0.00000000000E+00 0. -1.
</event>
<event>
 7    1  0.5736319E-006  0.1700627E+03  0.7818608E-02  0.1383544E+00
          2   -1    0    0  502    0  0.00000000000E+00  0.00000000000E+00  0.19920962873E+04  0.19920962873E+04  0.00000000000E+00 0. -1.
          1   -1    0    0  501    0 -0.00000000000E+00 -0.00000000000E+00 -0.42609052012E+03  0.42609052012E+03  0.00000000000E+00 0. -1.
         25    2    1    2    0    0 -0.12036663788E+03 -0.13137015414E+03  0.17851296965E+04  0.17983489378E+04  0.12499849564E+03 0.  0.
          2    1    1    2  501    0  0.97881968878E+02  0.13899141214E+03 -0.40145630076E+03  0.43596634491E+03  0.00000000000E+00 0. -1.
          1    1    1    2  502    0  0.22484669006E+02 -0.76212579944E+01  0.18233237142E+03  0.18387152466E+03  0.00000000000E+00 0. -1.
         22    1    3    3    0    0 -0.83531393494E+02 -0.11329186735E+02  0.96341895289E+03  0.96709974820E+03  0.00000000000E+00 0.  1.
         22    1    3    3    0    0 -0.36835244390E+02 -0.12004096741E+03  0.82171074361E+03  0.83124918962E+03  0.00000000000E+00 0.  1.
</event>
<event>
 7    1  0.5736319E-006  0.7349197E+02  0.7818608E-02  0.1427899E+00
          2   -1    0    0  502    0  0.00000000000E+00  0.00000000000E+00  0.25848739148E+02  0.25848739148E+02  0.00000000000E+00 0. -1.
          1   -1    0    0  501    0 -0.00000000000E+00 -0.00000000000E+00 -0.17865567432E+04  0.17865567432E+04  0.00000000000E+00 0. -1.
         25    2    1    2    0    0 -0.55803607934E+01 -0.45242619869E+02 -0.10391556346E+04  0.10476391006E+04  0.12500086806E+03 0.  0.
          2    1    1    2  501    0 -0.33597969978E+02 -0.19362355125E+02 -0.67480411095E+03  0.67591738588E+03  0.00000000000E+00 0. -1.
          1    1    1    2  502    0  0.39178330772E+02  0.64604974994E+02 -0.46748258442E+02  0.88848995849E+02  0.00000000000E+00 0. -1.
         22    1    3    3    0    0 -0.19845506142E+02 -0.13041659241E+02 -0.31903267321E+02  0.39771188762E+02  0.00000000000E+00 0. -1.
         22    1    3    3    0    0  0.14265145348E+02 -0.32200960628E+02 -0.10072523673E+04  0.10078679118E+04  0.00000000000E+00 0. -1.
</event>
<event>
 7    1  0.5736319E-006  0.1783144E+03  0.7818608E-02  0.1331052E+00
          2   -1    0    0  502    0  0.00000000000E+00  0.00000000000E+00  0.10969977615E+04  0.10969977615E+04  0.00000000000E+00 0. -1.
          1   -1    0    0  501    0 -0.00000000000E+00 -0.00000000000E+00 -0.94679134867E+03  0.94679134867E+03  0.00000000000E+00 0. -1.
         25    2    1    2    0    0  0.15585024431E+03  0.88280056001E+02 -0.36650435755E+02  0.22149757133E+03  0.12504100418E+03 0.  0.
          2    1    1    2  501    0 -0.16961576901E+03 -0.55811903744E+02 -0.80765306901E+03  0.82715654962E+03  0.00000000000E+00 0. -1.
          1    1    1    2  502    0  0.13765524704E+02 -0.32468152257E+02  0.99450991763E+03  0.99513498926E+03  0.00000000000E+00 0. -1.
         22    1    3    3    0    0 -0.29514716353E+01  0.13001663021E+02  0.30561195542E+02  0.33342781814E+02  0.00000000000E+00 0.  1.
         22    1    3    3    0    0  0.15880171594E+03  0.75278392980E+02 -0.67211631297E+02  0.18815478952E+03  0.00000000000E+00 0.  1.
</event>
<event>
 7    1  0.5736319E-006  0.7723991E+02  0.7818608E-02  0.1425340E+00
          2   -1    0    0  502    0  0.00000000000E+00  0.00000000000E+00  0.28735089498E+04  0.28735089498E+04  0.00000000000E+00 0. -1.
          1   -1    0    0  501    0 -0.00000000000E+00 -0.00000000000E+00 -0.21698019870E+03  0.21698019870E+03  0.00000000000E+00 0. -1.
         25    2    1    2    0    0 -0.73981665269E+02 -0.31811877510E+02  0.23691626516E+02  0.15057210754E+03  0.12500153621E+03 0.  0.
          2    1    1    2  501    0  0.77584501720E+02 -0.56377477099E+01 -0.14355161352E+03  0.16327340522E+03  0.00000000000E+00 0. -1.
          1    1    1    2  502    0 -0.36028364512E+01  0.37449625220E+02  0.27763887381E+04  0.27766436358E+04  0.00000000000E+00 0. -1.
         22    1    3    3    0    0 -0.33812449339E+01 -0.13815854854E+02  0.65190692847E+02  0.66724336614E+02  0.00000000000E+00 0.  1.
         22    1    3    3    0    0 -0.70600420335E+02 -0.17996022656E+02 -0.41499066331E+02  0.83847770926E+02  0.00000000000E+00 0.  1.
</event>
<event>
 7    1  0.5736319E-006  0.5620919E+02  0.7818608E-02  0.1458734E+00
          2   -1    0    0  502    0  0.00000000000E+00  0.00000000000E+00  0.81607897626E+03  0.81607897626E+03  0.00000000000E+00 0. -1.
          1   -1    0    0  501    0 -0.00000000000E+00 -0.00000000000E+00 -0.89731954962E+02  0.89731954962E+02  0.00000000000E+00 0. -1.
         25    2    1    2    0    0 -0.71370303190E+02  0.16208023329E+02  0.34751159807E+03  0.37648960590E+03  0.12499476932E+03 0.  0.
          2    1    1    2  501    0  0.39011056062E+02 -0.40243834292E+02 -0.63760821334E+02  0.84893292025E+02  0.00000000000E+00 0. -1.
          1    1    1    2  502    0  0.32359247128E+02  0.24035810963E+02  0.44259624456E+03  0.44442803330E+03  0.00000000000E+00 0. -1.
         22    1    3    3    0    0 -0.76734317512E+02 -0.37166043365E+02  0.15805596715E+03  0.17958607690E+03  0.00000000000E+00 0. -1.
         22    1    3    3    0    0  0.53640143221E+01  0.53374066694E+02  0.18945563092E+03  0.19690352900E+03  0.00000000000E+00 0. -1.
</event>
<event>
 7    1  0.5736319E-006  0.3838843E+02  0.7818608E-02  0.1526127E+00
          2   -1    0    0  502    0  0.00000000000E+00  0.00000000000E+00  0.76345884100E+02  0.76345884100E+02  0.00000000000E+00 0. -1.
          1   -1    0    0  501    0 -0.00000000000E+00 -0.00000000000E+00 -0.11279203514E+04  0.11279203514E+04  0.00000000000E+00 0. -1.
         25    2    1    2    0    0 -0.29550990296E+01 -0.11527487549E+02 -0.22183863822E+03  0.25490306033E+03  0.12498629197E+03 0.  0.
          2    1    1    2  501    0  0.39105120502E+02  0.38477594965E+01 -0.88336218609E+03  0.88423569682E+03  0.00000000000E+00 0. -1.
          1    1    1    2  502    0 -0.36150021473E+02  0.76797280530E+01  0.53626356988E+02  0.65127478373E+02  0.00000000000E+00 0. -1.
         22    1    3    3    0    0 -0.51547311745E+02 -0.23476575668E+02 -0.48767705175E+02  0.74743320914E+02  0.00000000000E+00 0. -1.
         22    1    3    3    0    0  0.48592212715E+02  0.11949088119E+02 -0.17307093304E+03  0.18015973942E+03  0.00000000000E+00 0. -1.
</event>
<event>
 7    1  0.5736319E-006  0.1083191E+03  0.7818608E-02  0.1305636E+00
          2   -1    0    0  502    0  0.00000000000E+00  0.00000000000E+00  0.38344628710E+03  0.38344628710E+03  0.00000000000E+00 0. -1.
          1   -1    0    0  501    0 -0.00000000000E+00 -0.00000000000E+00 -0.54981842744E+03  0.54981842744E+03  0.00000000000E+00 0. -1.
         25    2    1    2    0    0  0.51668347386E+02 -0.10609182776E+03 -0.50745218973E+02  0.17923842548E+03  0.12500496743E+03 0.  0.
          2    1    1    2  501    0 -0.72887257115E+02 -0.11756397261E+01 -0.42224647134E+03  0.42849272682E+03  0.00000000000E+00 0. -1.
          1    1    1    2  502    0  0.21218909729E+02  0.10726746748E+03  0.30661954998E+03  0.32553356224E+03  0.00000000000E+00 0. -1.
         22    1    3    3    0    0  0.93397296982E+02 -0.75092350699E+02 -0.37901854733E+02  0.12569195205E+03  0.00000000000E+00 0.  1.
         22    1    3    3    0    0 -0.41728949597E+02 -0.30999477058E+02 -0.12843364241E+02  0.53546473435E+02  0.00000000000E+00 0.  1.
</event>
<event>
 7    1  0.5736319E-006  0.8763218E+02  0.7818608E-02  0.1471072E+00
          2   -1    0    0  502    0  0.00000000000E+00  0.00000000000E+00  0.41241691015E+03  0.41241691015E+03  0.00000000000E+00 0. -1.
          1   -1    0    0  501    0 -0.00000000000E+00 -0.00000000000E+00 -0.32840637451E+03  0.32840637451E+03  0.00000000000E+00 0. -1.
         25    2    1    2    0    0  0.54529039386E+02 -0.84845760401E+02 -0.12913890763E+03  0.20608764926E+03  0.12499216983E+03 0.  0.
          2    1    1    2  501    0  0.67438668915E+01  0.22671628528E+02 -0.15478805495E+03  0.15658487933E+03  0.00000000000E+00 0. -1.
          1    1    1    2  502    0 -0.61272906277E+02  0.62174131872E+02  0.36793749822E+03  0.37815075606E+03  0.00000000000E+00 0. -1.
         22    1    3    3    0    0 -0.13107938312E+02  0.12212198247E+02 -0.72956651354E+02  0.75124089410E+02  0.00000000000E+00 0. -1.
         22    1    3    3    0    0  0.67636977698E+02 -0.97057958648E+02 -0.56182256279E+02  0.13096355985E+03  0.00000000000E+00 0. -1.
</event>
<event>
 7    1  0.5785603E-006  0.1115193E+03  0.7818608E-02  0.1298299E+00
          2   -1    0    0  502    0  0.00000000000E+00  0.00000000000E+00  0.33764926819E+04  0.33764926819E+04  0.00000000000E+00 0. -1.
          1   -1    0    0  501    0 -0.00000000000E+00 -0.00000000000E+00 -0.15272685887E+04  0.15272685887E+04  0.00000000000E+00 0. -1.
         25    2    1    2    0    0 -0.71660534746E+02  0.91991882116E+02 -0.14772614717E+03  0.22593247056E+03  0.12499891232E+03 0.  0.
          2    1    1    2  501    0 -0.36924133670E+02 -0.66133477393E+02 -0.13384349333E+04  0.13405764056E+04  0.00000000000E+00 0. -1.
          1    1    1    2  502    0  0.10858466842E+03 -0.25858404723E+02  0.33353851737E+04  0.33372523945E+04  0.00000000000E+00 0. -1.
         22    1    3    3    0    0 -0.85596278332E+02  0.18642558531E+02 -0.11461126013E+03  0.14425674612E+03  0.00000000000E+00 0.  1.
         22    1    3    3    0    0  0.13935743586E+02  0.73349323584E+02 -0.33114887040E+02  0.81675724443E+02  0.00000000000E+00 0.  1.
</event>
<event>
 7    1  0.5736319E-006  0.7786663E+02  0.7818608E-02  0.1427278E+00
          2   -1    0    0  502    0  0.00000000000E+00  0.00000000000E+00  0.14378069173E+04  0.14378069173E+04  0.00000000000E+00 0. -1.
          1   -1    0    0  501    0 -0.00000000000E+00 -0.00000000000E+00 -0.29492184273E+03  0.29492184273E+03  0.00000000000E+00 0. -1.
         25    2    1    2    0    0  0.31892471860E+02  0.70144606865E+02 -0.34476381783E+02  0.15083685682E+03  0.12500296332E+03 0.  0.
          2    1    1    2  501    0  0.29457203298E+02 -0.22011070074E+02 -0.19948151631E+03  0.20284252360E+03  0.00000000000E+00 0. -1.
          1    1    1    2  502    0 -0.61349675158E+02 -0.48133536791E+02  0.13768429727E+04  0.13790493796E+04  0.00000000000E+00 0. -1.
         22    1    3    3    0    0  0.37852679075E+02  0.35597147665E+02 -0.78759772332E+02  0.94356154929E+02  0.00000000000E+00 0.  1.
         22    1    3    3    0    0 -0.59602072148E+01  0.34547459200E+02  0.44283390549E+02  0.56480701888E+02  0.00000000000E+00 0.  1.
</event>
<event>
 7    1  0.5736319E-006  0.1017081E+03  0.7818608E-02  0.1299945E+00
          2   -1    0    0  502    0  0.00000000000E+00  0.00000000000E+00  0.42032927085E+03  0.42032927085E+03  0.00000000000E+00 0. -1.
          1   -1    0    0  501    0 -0.00000000000E+00 -0.00000000000E+00 -0.36634547446E+03  0.36634547446E+03  0.00000000000E+00 0. -1.
         25    2    1    2    0    0 -0.13778588193E+03 -0.26990296715E+02  0.14662600454E+03  0.23840731198E+03  0.12500174328E+03 0.  0.
          2    1    1    2  501    0  0.48703995323E+02  0.65716907117E+02 -0.30445080812E+03  0.31524765757E+03  0.00000000000E+00 0. -1.
          1    1    1    2  502    0  0.89081886608E+02 -0.38726610401E+02  0.21180859996E+03  0.23301977576E+03  0.00000000000E+00 0. -1.
         22    1    3    3    0    0 -0.10071843739E+03  0.37864588182E+02  0.11440075121E+03  0.15705241974E+03  0.00000000000E+00 0. -1.
         22    1    3    3    0    0 -0.37067444538E+02 -0.64854884897E+02  0.32225253324E+02  0.81354892240E+02  0.00000000000E+00 0. -1.
</event>
<event>
 7    1  0.5736319E-006  0.1030990E+03  0.7818608E-02  0.1289295E+00
          2   -1    0    0  502    0  0.00000000000E+00  0.00000000000E+00  0.81401583166E+03  0.81401583166E+03  0.00000000000E+00 0. -1.
          1   -1    0    0  501    0 -0.00000000000E+00 -0.00000000000E+00 -0.53492487425E+03  0.53492487425E+03  0.00000000000E+00 0. -1.
         25    2    1    2    0    0 -0.27276563901E+02 -0.51564437031E+02 -0.21193743797E+03  0.25287313332E+03  0.12499776732E+03 0.  0.
          2    1    1    2  501    0  0.10456481289E+03  0.95881693487E+02 -0.28319041055E+03  0.31673949528E+03  0.00000000000E+00 0. -1.
          1    1    1    2  502    0 -0.77288248985E+02 -0.44317256456E+02  0.77421880592E+03  0.77932807732E+03  0.00000000000E+00 0. -1.
         22    1    3    3    0    0 -0.21423705808E+02 -0.92193540100E+02 -0.16739276580E+03  0.19229914729E+03  0.00000000000E+00 0. -1.
         22    1    3    3    0    0 -0.58528580927E+01  0.40629103069E+02 -0.44544672167E+02  0.60573986022E+02  0.00000000000E+00 0. -1.
</event>
<event>
 7    1  0.5736319E-006  0.9310669E+02  0.7818608E-02  0.1400622E+00
          2   -1    0    0  502    0  0.00000000000E+00  0.00000000000E+00  0.72795966107E+03  0.72795966107E+03  0.00000000000E+00 0. -1.
          1   -1    0    0  501    0 -0.00000000000E+00 -0.00000000000E+00 -0.63062678009E+03  0.63062678009E+03  0.00000000000E+00 0. -1.
         25    2    1    2    0    0  0.85472011514E+02 -0.41235303294E+02  0.20956837374E+03  0.26182001591E+03  0.12500000988E+03 0.  0.
          2    1    1    2  501    0 -0.61226465934E+02  0.70260437267E+02 -0.60017297892E+03  0.60736546971E+03  0.00000000000E+00 0. -1.
          1    1    1    2  502    0 -0.24245545581E+02 -0.29025133973E+02  0.48793748615E+03  0.48940095553E+03  0.00000000000E+00 0. -1.
         22    1    3    3    0    0 -0.14908196260E+01 -0.27724246402E+02 -0.65011071216E+01  0.28515272671E+02  0.00000000000E+00 0.  1.
         22    1    3    3    0    0  0.86962831140E+02 -0.13511056892E+02  0.21606948086E+03  0.23330474324E+03  0.00000000000E+00 0.  1.
</event>
<event>
 7    1  0.5736319E-006  0.4639746E+02  0.7818608E-02  0.1466522E+00
          2   -1    0    0  502    0  0.00000000000E+00  0.00000000000E+00  0.42717675848E+03  0.42717675848E+03  0.00000000000E+00 0. -1.
          1   -1    0    0  501    0 -0.00000000000E+00 -0.00000000000E+00 -0.41518989744E+03  0.41518989744E+03  0.00000000000E+00 0. -1.
         25    2    1    2    0    0  0.17221119372E+02  0.26628401757E+01  0.70767460696E+02  0.14469408001E+03  0.12499874250E+03 0.  0.
          2    1    1    2  501    0 -0.37815685411E+01 -0.46820395727E+02 -0.37508665247E+03  0.37801646337E+03  0.00000000000E+00 0. -1.
          1    1    1    2  502    0 -0.13439550831E+02  0.44157555552E+02  0.31630605281E+03  0.31965611254E+03  0.00000000000E+00 0. -1.
         22    1    3    3    0    0 -0.52973931194E+02 -0.41977479785E+01  0.44904747847E+02  0.69572227601E+02  0.00000000000E+00 0.  1.
         22    1    3    3    0    0  0.70195050566E+02  0.68605881542E+01  0.25862712849E+02  0.75121852411E+02  0.00000000000E+00 0.  1.
</event>
<event>
 7    1  0.5736319E-006  0.7300987E+02  0.7818608E-02  0.1420550E+00
          2   -1    0    0  502    0  0.00000000000E+00  0.00000000000E+00  0.10539520450E+04  0.10539520450E+04  0.00000000000E+00 0. -1.
          1   -1    0    0  501    0 -0.00000000000E+00 -0.00000000000E+00 -0.20699571313E+03  0.20699571313E+03  0.00000000000E+00 0. -1.
         25    2    1    2    0    0 -0.69798810006E+02 -0.43189277811E+02  0.29100109496E+03  0.32717539307E+03  0.12499965188E+03 0.  0.
          2    1    1    2  501    0  0.34400397385E+02  0.64443851686E+02 -0.18124707810E+03  0.19541468900E+03  0.00000000000E+00 0. -1.
          1    1    1    2  502    0  0.35398412621E+02 -0.21254573875E+02  0.73720231505E+03  0.73835767610E+03  0.00000000000E+00 0. -1.
         22    1    3    3    0    0 -0.66928235972E+02  0.22869129449E+02  0.21552279487E+03  0.22683134916E+03  0.00000000000E+00 0. -1.
         22    1    3    3    0    0 -0.28705740340E+01 -0.66058407261E+02  0.75478300088E+02  0.10034404392E+03  0.00000000000E+00 0. -1.
</event>
<event>
 7    1  0.5736319E-006  0.4619694E+02  0.7818608E-02  0.1513631E+00
          2   -1    0    0  502    0  0.00000000000E+00  0.00000000000E+00  0.57388985129E+03  0.57388985129E+03  0.00000000000E+00 0. -1.
          1   -1    0    0  501    0 -0.00000000000E+00 -0.00000000000E+00 -0.11075928374E+03  0.11075928374E+03  0.00000000000E+00 0. -1.
         25    2    1    2    0    0  0.37238072427E+02  0.93730534441E+01  0.27108053033E+03  0.30097284090E+03  0.12500187546E+03 0.  0.
          2    1    1    2  501    0 -0.23895279533E+02 -0.39977649514E+02 -0.89106529250E+02  0.10054437030E+03  0.00000000000E+00 0. -1.
          1    1    1    2  502    0 -0.13342792894E+02  0.30604596070E+02  0.28115656647E+03  0.28313192383E+03  0.00000000000E+00 0. -1.
         22    1    3    3    0    0 -0.19664800743E+02 -0.44967188829E+02  0.74312904384E+02  0.89057061582E+02  0.00000000000E+00 0.  1.
         22    1    3    3    0    0  0.56902873170E+02  0.54340242273E+02  0.19676762594E+03  0.21191577932E+03  0.00000000000E+00 0.  1.
</event>
<event>
 7    1  0.5736319E-006  0.6996692E+02  0.7818608E-02  0.1386457E+00
          2   -1    0    0  502    0  0.00000000000E+00  0.00000000000E+00  0.13489986555E+04  0.13489986555E+04  0.00000000000E+00 0. -1.
          1   -1    0    0  501    0 -0.00000000000E+00 -0.00000000000E+00 -0.22727827969E+04  0.22727827969E+04  0.00000000000E+00 0. -1.
         25    2    1    2    0    0  0.48260533126E+02  0.38886582299E+02  0.29869081799E+03  0.32967197981E+03  0.12500465665E+03 0.  0.
          2    1    1    2  501    0 -0.68676304708E+02  0.13646987671E+02 -0.22559812211E+04  0.22570675543E+04  0.00000000000E+00 0. -1.
          1    1    1    2  502    0  0.20415771582E+02 -0.52533569971E+02  0.10335062616E+04  0.10350419182E+04  0.00000000000E+00 0. -1.
         22    1    3    3    0    0 -0.27155118158E+02  0.33614604904E+02  0.20388535910E+03  0.20841444710E+03  0.00000000000E+00 0. -1.
         22    1    3    3    0    0  0.75415651285E+02  0.52719773953E+01  0.94805458882E+02  0.12125753271E+03  0.00000000000E+00 0. -1.
</event>
<event>
 7    1  0.5736319E-006  0.8728327E+02  0.7818608E-02  0.1478467E+00
          2   -1    0    0  502    0  0.00000000000E+00  0.00000000000E+00  0.14309740745E+04  0.14309740745E+04  0.00000000000E+00 0. -1.
          1   -1    0    0  501    0 -0.00000000000E+00 -0.00000000000E+00 -0.31752853283E+02  0.31752853283E+02  0.00000000000E+00 0. -1.
         25    2    1    2    0    0 -0.74072104667E+02  0.11790977299E+02  0.19762684216E+03  0.24557554597E+03  0.12500110480E+03 0.  0.
          2    1    1    2  501    0 -0.13975355463E+02 -0.17672596522E+02  0.14525497382E+02  0.26807112906E+02  0.00000000000E+00 0. -1.
          1    1    1    2  502    0  0.88047460130E+02  0.58816192234E+01  0.11870688817E+04  0.11903442689E+04  0.00000000000E+00 0. -1.
         22    1    3    3    0    0 -0.72133476480E+02  0.40003188940E+02  0.20083701870E+03  0.21711518058E+03  0.00000000000E+00 0. -1.
         22    1    3    3    0    0 -0.19386281879E+01 -0.28212211641E+02 -0.32101765446E+01  0.28460365394E+02  0.00000000000E+00 0. -1.
</event>
<event>
 7    1  0.5736319E-006  0.1172860E+03  0.7818608E-02  0.1259512E+00
          2   -1    0    0  502    0  0.00000000000E+00  0.00000000000E+00  0.23677317799E+03  0.23677317799E+03  0.00000000000E+00 0. -1.
          1   -1    0    0  501    0 -0.00000000000E+00 -0.00000000000E+00 -0.82443165983E+03  0.82443165983E+03  0.00000000000E+00 0. -1.
         25    2    1    2    0    0 -0.23694784495E+01 -0.16765258005E+03 -0.24134385737E+03  0.31934860123E+03  0.12499467825E+03 0.  0.
          2    1    1    2  501    0  0.72429161548E+02  0.74972526590E+02 -0.52140646129E+03  0.53172508034E+03  0.00000000000E+00 0. -1.
          1    1    1    2  502    0 -0.70059683099E+02  0.92680053460E+02  0.17509183682E+03  0.21013115625E+03  0.00000000000E+00 0. -1.
         22    1    3    3    0    0 -0.38830513801E+02 -0.16790516321E+03 -0.20581009801E+03  0.26843574478E+03  0.00000000000E+00 0. -1.
         22    1    3    3    0    0  0.36461035352E+02  0.25258315742E+00 -0.35533759363E+02  0.50912856447E+02  0.00000000000E+00 0. -1.
</event>
<event>
 7    1  0.5736319E-006  0.6315244E+02  0.7818608E-02  0.1497420E+00
          2   -1    0    0  502    0  0.00000000000E+00  0.00000000000E+00  0.65155716240E+03  0.65155716240E+03  0.00000000000E+00 0. -1.
          1   -1    0    0  501    0 -0.00000000000E+00 -0.00000000000E+00 -0.29527750281E+02  0.29527750281E+02  0.00000000000E+00 0. -1.
         25    2    1    2    0    0  0.35573814525E+02 -0.19926923476E+02  0.49612769760E+03  0.51325706652E+03  0.12501018139E+03 0.  0.
          2    1    1    2  501    0 -0.49412620089E+02  0.43433621096E+02  0.38404870595E+02  0.76177559366E+02  0.00000000000E+00 0. -1.
          1    1    1    2  502    0  0.13838805565E+02 -0.23506697620E+02  0.87496843929E+02  0.91650286797E+02  0.00000000000E+00 0. -1.
         22    1    3    3    0    0  0.46321999351E+02  0.42124066451E+02  0.32345380857E+03  0.32945793491E+03  0.00000000000E+00 0. -1.
         22    1    3    3    0    0 -0.10748184827E+02 -0.62050989928E+02  0.17267388903E+03  0.18379913161E+03  0.00000000000E+00 0. -1.
</event>
<event>
 7    1  0.5736319E-006  0.5147819E+02  0.7818608E-02  0.1531523E+00
          2   -1    0    0  502    0  0.00000000000E+00  0.00000000000E+00  0.14768625988E+03  0.14768625988E+03  0.00000000000E+00 0. -1.
          1   -1    0    0  501    0 -0.00000000000E+00 -0.00000000000E+00 -0.21545769920E+03  0.21545769920E+03  0.00000000000E+00 0. -1.
         25    2    1    2    0    0  0.34601879273E+00 -0.58514030905E+02 -0.76372579465E+02  0.15774620368E+03  0.12500832908E+03 0.  0.
          2    1    1    2  501    0 -0.23438158606E+02  0.12565905908E+02 -0.90187068930E+02  0.94026361582E+02  0.00000000000E+00 0. -1.
          1    1    1    2  502    0  0.23092139813E+02  0.45948124996E+02  0.98788209073E+02  0.11137139383E+03  0.00000000000E+00 0. -1.
         22    1    3    3    0    0 -0.23287455574E+02 -0.92888034268E+02 -0.59542579598E+02  0.11276440610E+03  0.00000000000E+00 0. -1.
         22    1    3    3    0    0  0.23633474367E+02  0.34374003363E+02 -0.16829999867E+02  0.44981797578E+02  0.00000000000E+00 0. -1.
</event>
<event>
 7    1  0.5736319E-006  0.1109315E+03  0.7818608E-02  0.1366301E+00
          2   -1    0    0  502    0  0.00000000000E+00  0.00000000000E+00  0.42390496233E+03  0.42390496233E+03  0.00000000000E+00 0. -1.
          1   -1    0    0  501    0 -0.00000000000E+00 -0.00000000000E+00 -0.26978386081E+03  0.26978386081E+03  0.00000000000E+00 0. -1.
         25    2    1    2    0    0 -0.72152289895E+02  0.10757230793E+02  0.20219672315E+03  0.24865753342E+03  0.12500153248E+03 0.  0.
          2    1    1    2  501    0  0.10881293994E+03 -0.31121270725E+02 -0.23106749777E+03  0.25729550698E+03  0.00000000000E+00 0. -1.
          1    1    1    2  502    0 -0.36660650043E+02  0.20364039932E+02  0.18299187615E+03  0.18773578274E+03  0.00000000000E+00 0. -1.
         22    1    3    3    0    0 -0.33306583452E+02 -0.42690763507E+02  0.16316969865E+03  0.17191910989E+03  0.00000000000E+00 0.  1.
         22    1    3    3    0    0 -0.38845706442E+02  0.53447994300E+02  0.39027024502E+02  0.76738423525E+02  0.00000000000E+00 0.  1.
</event>
<event>
 7    1  0.5736319E-006  0.2141808E+03  0.7818608E-02  0.1313834E+00
          2   -1    0    0  502    0  0.00000000000E+00  0.00000000000E+00  0.10812478023E+04  0.10812478023E+04  0.00000000000E+00 0. -1.
          1   -1    0    0  501    0 -0.00000000000E+00 -0.00000000000E+00 -0.85958137238E+03  0.85958137238E+03  0.00000000000E+00 0. -1.
         25    2    1    2    0    0  0.23248080276E+03 -0.76258225551E+02  0.19698719094E+03  0.33806790444E+03  0.12499325582E+03 0.  0.
          2    1    1    2  501    0 -0.20514704819E+03  0.55665770635E+02 -0.77435198720E+03  0.80299750279E+03  0.00000000000E+00 0. -1.
          1    1    1    2  502    0 -0.27333754564E+02  0.20592454917E+02  0.79903122613E+03  0.79976376741E+03  0.00000000000E+00 0. -1.
         22    1    3    3    0    0  0.23454423028E+03 -0.68752733395E+02  0.21043972549E+03  0.32252567707E+03  0.00000000000E+00 0. -1.
         22    1    3    3    0    0 -0.20634275243E+01 -0.75054921567E+01 -0.13452534548E+02  0.15542227364E+02  0.00000000000E+00 0. -1.
</event>
<event>
 7    1  0.5736319E-006  0.3279267E+02  0.7818608E-02  0.1577265E+00
          2   -1    0    0  502    0  0.00000000000E+00  0.00000000000E+00  0.80147775073E+03  0.80147775073E+03  0.00000000000E+00 0. -1.
          1   -1    0    0  501    0 -0.00000000000E+00 -0.00000000000E+00 -0.26219406251E+02  0.26219406251E+02  0.00000000000E+00 0. -1.
         25    2    1    2    0    0  0.28995981326E+02 -0.34487868212E+02  0.18956121298E+03  0.23149581321E+03  0.12500671215E+03 0.  0.
          2    1    1    2  501    0  0.20770646101E+01  0.32017222266E+02  0.48814943558E+02  0.58415027464E+02  0.00000000000E+00 0. -1.
          1    1    1    2  502    0 -0.31073045936E+02  0.24706459456E+01  0.53688218794E+03  0.53778631630E+03  0.00000000000E+00 0. -1.
         22    1    3    3    0    0 -0.77428903940E+01  0.30803392435E+02  0.13533586396E+03  0.13901293973E+03  0.00000000000E+00 0.  1.
         22    1    3    3    0    0  0.36738871720E+02 -0.65291260647E+02  0.54225349019E+02  0.92482873486E+02  0.00000000000E+00 0.  1.
</event>
<event>
 7    1  0.5736319E-006  0.6181943E+02  0.7818608E-02  0.1471176E+00
          2   -1    0    0  502    0  0.00000000000E+00  0.00000000000E+00  0.37933000373E+03  0.37933000373E+03  0.00000000000E+00 0. -1.
          1   -1    0    0  501    0 -0.00000000000E+00 -0.00000000000E+00 -0.18761153021E+03  0.18761153021E+03  0.00000000000E+00 0. -1.
         25    2    1    2    0    0  0.79289387738E+02 -0.43333057949E+02  0.18203869365E+03  0.23859719852E+03  0.12500390489E+03 0.  0.
          2    1    1    2  501    0 -0.28466630747E+02  0.17670113813E+02 -0.15266869744E+03  0.15630199348E+03  0.00000000000E+00 0. -1.
          1    1    1    2  502    0 -0.50822756992E+02  0.25662944136E+02  0.16234847731E+03  0.17204234193E+03  0.00000000000E+00 0. -1.
         22    1    3    3    0    0  0.59991769205E+02 -0.51062167975E+02  0.28683893285E+02  0.83839865844E+02  0.00000000000E+00 0. -1.
         22    1    3    3    0    0  0.19297618533E+02  0.77291100264E+01  0.15335480036E+03  0.15475733268E+03  0.00000000000E+00 0. -1.
</event>
<event>
 7    1  0.5736319E-006  0.7679879E+02  0.7818608E-02  0.1375020E+00
          2   -1    0    0  502    0  0.00000000000E+00  0.00000000000E+00  0.25151296705E+04  0.25151296705E+04  0.00000000000E+00 0. -1.
          1   -1    0    0  501    0 -0.00000000000E+00 -0.00000000000E+00 -0.20720588500E+03  0.20720588500E+03  0.00000000000E+00 0. -1.
         25    2    1    2    0    0 -0.97653120153E+02  0.50861720336E+02  0.36641245240E+03  0.40249792764E+03  0.12499379987E+03 0.  0.
          2    1    1    2  501    0  0.55048041739E+02  0.12096462621E+02 -0.18427036517E+03  0.19269711670E+03  0.00000000000E+00 0. -1.
          1    1    1    2  502    0  0.42605078414E+02 -0.62958182957E+02  0.21257816982E+04  0.21271405111E+04  0.00000000000E+00 0. -1.
         22    1    3    3    0    0  0.62622279615E+01 -0.20066607714E+02  0.15546874068E+03  0.15688343944E+03  0.00000000000E+00 0. -1.
         22    1    3    3    0    0 -0.10391534811E+03  0.70928328050E+02  0.21094371173E+03  0.24561448820E+03  0.00000000000E+00 0. -1.
</event>
<event>
 7    1  0.5736319E-006  0.3648945E+02  0.7818608E-02  0.1567156E+00
          2   -1    0    0  502    0  0.00000000000E+00  0.00000000000E+00  0.10530399096E+04  0.10530399096E+04  0.00000000000E+00 0. -1.
          1   -1    0    0  501    0 -0.00000000000E+00 -0.00000000000E+00 -0.44047456314E+03  0.44047456314E+03  0.00000000000E+00 0. -1.
         25    2    1    2    0    0  0.58477200237E+02  0.16110706587E+02  0.56911429251E+02  0.15014324697E+03  0.12499978406E+03 0.  0.
          2    1    1    2  501    0 -0.29312253663E+02  0.55678436297E+01 -0.39294519879E+03  0.39407631031E+03  0.00000000000E+00 0. -1.
          1    1    1    2  502    0 -0.29164946574E+02 -0.21678550216E+02  0.94859911595E+03  0.94929491541E+03  0.00000000000E+00 0. -1.
         22    1    3    3    0    0 -0.20308204584E+02 -0.28559886782E+02  0.47584105495E+02  0.59096001575E+02  0.00000000000E+00 0. -1.
         22    1    3    3    0    0  0.78785404821E+02  0.44670593368E+02  0.93273237563E+01  0.91047245390E+02  0.00000000000E+00 0. -1.
</event>
<event>
 7    1  0.5736319E-006  0.4020383E+02  0.7818608E-02  0.1593158E+00
          2   -1    0    0  502    0  0.00000000000E+00  0.00000000000E+00  0.12974316581E+03  0.12974316581E+03  0.00000000000E+00 0. -1.
          1   -1    0    0  501    0 -0.00000000000E+00 -0.00000000000E+00 -0.86235374982E+03  0.86235374982E+03  0.00000000000E+00 0. -1.
         25    2    1    2    0    0 -0.19246331162E+02  0.36483626513E+02  0.15938413703E+02  0.13259220393E+03  0.12500073298E+03 0.  0.
          2    1    1    2  501    0  0.35081217611E+02 -0.19714729444E+02 -0.80110271651E+03  0.80211278807E+03  0.00000000000E+00 0. -1.
          1    1    1    2  502    0 -0.15834886449E+02 -0.16768897069E+02  0.52553718795E+02  0.57391923622E+02  0.00000000000E+00 0. -1.
         22    1    3    3    0    0 -0.10919238215E+02  0.83266535502E+02  0.73102780257E+01  0.84297009808E+02  0.00000000000E+00 0.  1.
         22    1    3    3    0    0 -0.83270929468E+01 -0.46782908989E+02  0.86281356775E+01  0.48295194126E+02  0.00000000000E+00 0.  1.
</event>
<event>
 7    1  0.5736319E-006  0.1062539E+03  0.7818608E-02  0.1416079E+00
          2   -1    0    0  502    0  0.00000000000E+00  0.00000000000E+00  0.68141357468E+03  0.68141357468E+03  0.00000000000E+00 0. -1.
          1   -1    0    0  501    0 -0.00000000000E+00 -0.00000000000E+00 -0.25375114166E+03  0.25375114166E+03  0.00000000000E+00 0. -1.
         25    2    1    2    0    0  0.12149873964E+03 -0.19867537347E+02  0.14303064866E+03  0.22636110763E+03  0.12499968727E+03 0.  0.
          2    1    1    2  501    0 -0.17259562763E+02  0.23758460322E+02 -0.20555443906E+03  0.20764148034E+03  0.00000000000E+00 0. -1.
          1    1    1    2  502    0 -0.10423917688E+03 -0.38909229744E+01  0.49018622342E+03  0.50116212837E+03  0.00000000000E+00 0. -1.
         22    1    3    3    0    0 -0.15468878873E+02 -0.48824401826E+01 -0.11074727759E+02  0.19641131094E+02  0.00000000000E+00 0.  1.
         22    1    3    3    0    0  0.13696761851E+03 -0.14985097165E+02  0.15410537641E+03  0.20671997653E+03  0.00000000000E+00 0.  1.
</event>
<event>
 7    1  0.5736319E-006  0.9762999E+02  0.7818608E-02  0.1434159E+00
          2   -1    0    0  502    0  0.00000000000E+00  0.00000000000E+00  0.23135269735E+04  0.23135269735E+04  0.00000000000E+00 0. -1.
          1   -1    0    0  501    0 -0.00000000000E+00 -0.00000000000E+00 -0.51043736767E+03  0.51043736767E+03  0.00000000000E+00 0. -1.
         25    2    1    2    0    0 -0.42223084695E+02  0.10667873523E+03  0.94511714522E+02  0.19421779905E+03  0.12499979143E+03 0.  0.
          2    1    1    2  501    0  0.25663113561E+02 -0.10790898060E+02 -0.45907114499E+03  0.45991450841E+03  0.00000000000E+00 0. -1.
          1    1    1    2  502    0  0.16559971134E+02 -0.95887837167E+02  0.21676490363E+04  0.21698320337E+04  0.00000000000E+00 0. -1.
         22    1    3    3    0    0  0.62865565863E+01  0.62915572359E+02 -0.16555213855E+02  0.65360271914E+02  0.00000000000E+00 0.  1.
         22    1    3    3    0    0 -0.48509641281E+02  0.43763162869E+02  0.11106692838E+03  0.12885752714E+03  0.00000000000E+00 0.  1.
</event>
<event>
 7    1  0.5736319E-006  0.5777328E+02  0.7818608E-02  0.1410054E+00
          2   -1    0    0  502    0  0.00000000000E+00  0.00000000000E+00  0.52756851418E+03  0.52756851418E+03  0.00000000000E+00 0. -1.
          1   -1    0    0  501    0 -0.00000000000E+00 -0.00000000000E+00 -0.43559321647E+03  0.43559321647E+03  0.00000000000E+00 0. -1.
         25    2    1    2    0    0  0.94518988764E+01 -0.44149954796E+02  0.12806411419E+03  0.18456421690E+03  0.12499990366E+03 0.  0.
          2    1    1    2  501    0 -0.57178774074E+02  0.82668147499E+01 -0.40286810943E+03  0.40698951587E+03  0.00000000000E+00 0. -1.
          1    1    1    2  502    0  0.47726875197E+02  0.35883140047E+02  0.36677929295E+03  0.37160799788E+03  0.00000000000E+00 0. -1.
         22    1    3    3    0    0 -0.41655589219E+02  0.31232132769E+01  0.10200776287E+03  0.11022942556E+03  0.00000000000E+00 0. -1.
         22    1    3    3    0    0  0.51107488096E+02 -0.47273168073E+02  0.26056351323E+02  0.74334791339E+02  0.00000000000E+00 0. -1.
</event>
<event>
 7    1  0.5736319E-006  0.3332246E+02  0.7818608E-02  0.1604517E+00
          2   -1    0    0  502    0  0.00000000000E+00  0.00000000000E+00  0.23721148421E+03  0.23721148421E+03  0.00000000000E+00 0. -1.
          1   -1    0    0  501    0 -0.00000000000E+00 -0.00000000000E+00 -0.22966674138E+03  0.22966674138E+03  0.00000000000E+00 0. -1.
         25    2    1    2    0    0 -0.96810407630E+00 -0.22268851259E+02  0.10141060265E+03  0.16249819898E+03  0.12499886152E+03 0.  0.
          2    1    1    2  501    0  0.25874839384E+02 -0.23988012996E+01 -0.19531971378E+03  0.19704073729E+03  0.00000000000E+00 0. -1.
          1    1    1    2  502    0 -0.24906735308E+02  0.24667652558E+02  0.10145385397E+03  0.10733928932E+03  0.00000000000E+00 0. -1.
         22    1    3    3    0    0  0.45105247916E+01 -0.53354930543E+02 -0.27936295598E+01  0.53618073569E+02  0.00000000000E+00 0. -1.
         22    1    3    3    0    0 -0.54786288679E+01  0.31086079285E+02  0.10420423221E+03  0.10888012541E+03  0.00000000000E+00 0. -1.
</event>
<event>
 7    1  0.5736319E-006  0.5301749E+02  0.7818608E-02  0.1472374E+00
          2   -1    0    0  502    0  0.00000000000E+00  0.00000000000E+00  0.19712216006E+04  0.19712216006E+04  0.00000000000E+00 0. -1.
          1   -1    0    0  501    0 -0.00000000000E+00 -0.00000000000E+00 -0.57630829340E+02  0.57630829340E+02  0.00000000000E+00 0. -1.
         25    2    1    2    0    0  0.51276592340E+02  0.17429200912E+02  0.16344296368E+03  0.21277653047E+03  0.12500873401E+03 0.  0.
          2    1    1    2  501    0 -0.25514076244E+02  0.29144325777E+02 -0.21045849631E+02  0.44082735830E+02  0.00000000000E+00 0. -1.
          1    1    1    2  502    0 -0.25762516095E+02 -0.46573526688E+02  0.17711936572E+04  0.17719931637E+04  0.00000000000E+00 0. -1.
         22    1    3    3    0    0  0.78644378412E+02 -0.26907002447E+02  0.11280047398E+03  0.14011735070E+03  0.00000000000E+00 0.  1.
         22    1    3    3    0    0 -0.27367786073E+02  0.44336203359E+02  0.50642489701E+02  0.72659179777E+02  0.00000000000E+00 0.  1.
</event>
<event>
 7    1  0.5736319E-006  0.5796976E+02  0.7818608E-02  0.1469082E+00
          2   -1    0    0  502    0  0.00000000000E+00  0.00000000000E+00  0.10033076691E+04  0.10033076691E+04  0.00000000000E+00 0. -1.
          1   -1    0    0  501    0 -0.00000000000E+00 -0.00000000000E+00 -0.13042719493E+03  0.13042719493E+03  0.00000000000E+00 0. -1.
         25    2    1    2    0    0 -0.30165234779E+02  0.55549412298E+02  0.31062139457E+03  0.34074725403E+03  0.12500944671E+03 0.  0.
          2    1    1    2  501    0 -0.60358083263E+01 -0.57781930396E+02 -0.10752818457E+03  0.12221903673E+03  0.00000000000E+00 0. -1.
          1    1    1    2  502    0  0.36201043106E+02  0.22325180975E+01  0.66978726412E+03  0.67076857324E+03  0.00000000000E+00 0. -1.
         22    1    3    3    0    0  0.32798279432E+02  0.51627879790E+02  0.74750600127E+02  0.96585802915E+02  0.00000000000E+00 0. -1.
         22    1    3    3    0    0 -0.62963514211E+02  0.39215325087E+01  0.23587079444E+03  0.24416145111E+03  0.00000000000E+00 0. -1.
</event>
<event>
 7    1  0.5736319E-006  0.4670521E+02  0.7818608E-02  0.1589133E+00
          2   -1    0    0  502    0  0.00000000000E+00  0.00000000000E+00  0.18301518713E+04  0.18301518713E+04  0.00000000000E+00 0. -1.
          1   -1    0    0  501    0 -0.00000000000E+00 -0.00000000000E+00 -0.28556477182E+02  0.28556477182E+02  0.00000000000E+00 0. -1.
         25    2    1    2    0    0  0.56741847160E+02 -0.32563632256E+02  0.37248758218E+03  0.39831183083E+03  0.12500115333E+03 0.  0.
          2    1    1    2  501    0 -0.39668099158E+02  0.21498781379E+02  0.17113846006E+02  0.48255978042E+02  0.00000000000E+00 0. -1.
          1    1    1    2  502    0 -0.17073748002E+02  0.11064850877E+02  0.14119939660E+04  0.14121405396E+04  0.00000000000E+00 0. -1.
         22    1    3    3    0    0 -0.23790145870E+02 -0.21543156731E+02  0.24515856147E+03  0.24725047807E+03  0.00000000000E+00 0.  1.
         22    1    3    3    0    0  0.80531993030E+02 -0.11020475524E+02  0.12732902071E+03  0.15106135276E+03  0.00000000000E+00 0.  1.
</event>
<event>
 7    1  0.5736319E-006  0.5589599E+02  0.7818608E-02  0.1535652E+00
          2   -1    0    0  502    0  0.00000000000E+00  0.00000000000E+00  0.19764176524E+03  0.19764176524E+03  0.00000000000E+00 0. -1.
          1   -1    0    0  501    0 -0.00000000000E+00 -0.00000000000E+00 -0.17224429964E+04  0.17224429964E+04  0.00000000000E+00 0. -1.
         25    2    1    2    0    0  0.75429550888E+02  0.14435392712E+02 -0.36212470023E+02  0.15111443512E+03  0.12500492713E+03 0.  0.
          2    1    1    2  501    0 -0.23617026116E+02  0.32327495842E+01 -0.16233447349E+04  0.16235197390E+04  0.00000000000E+00 0. -1.
          1    1    1    2  502    0 -0.51812524772E+02 -0.17668142296E+02  0.13475597371E+03  0.14545058757E+03  0.00000000000E+00 0. -1.
         22    1    3    3    0    0  0.10041859580E+03  0.42517652052E+02 -0.28985046593E+02  0.11283518088E+03  0.00000000000E+00 0.  1.
         22    1    3    3    0    0 -0.24989044915E+02 -0.28082259340E+02 -0.72274234300E+01  0.38279254236E+02  0.00000000000E+00 0.  1.
</event>
<event>
 7    1  0.5736319E-006  0.1502717E+03  0.7818608E-02  0.1253167E+00
          2   -1    0    0  502    0  0.00000000000E+00  0.00000000000E+00  0.10988222826E+04  0.10988222826E+04  0.00000000000E+00 0. -1.
          1   -1    0    0  501    0 -0.00000000000E+00 -0.00000000000E+00 -0.14742015392E+04  0.14742015392E+04  0.00000000000E+00 0. -1.
         25    2    1    2    0    0  0.16233949921E+02  0.76274363848E+02  0.45800666091E+02  0.15428408685E+03  0.12499823490E+03 0.  0.
          2    1    1    2  501    0 -0.86671592013E+02 -0.12670469654E+03 -0.14139189325E+04  0.14222281085E+04  0.00000000000E+00 0. -1.
          1    1    1    2  502    0  0.70437642092E+02  0.50430332688E+02  0.99273900980E+03  0.99651162635E+03  0.00000000000E+00 0. -1.
         22    1    3    3    0    0 -0.49786307354E+02  0.53467877653E+01  0.10546043654E+02  0.51171120528E+02  0.00000000000E+00 0. -1.
         22    1    3    3    0    0  0.66020257275E+02  0.70927576083E+02  0.35254622437E+02  0.10311296632E+03  0.00000000000E+00 0. -1.
</event>
<event>
 7    1  0.5736319E-006  0.2724541E+02  0.7818608E-02  0.1646207E+00
          2   -1    0    0  502    0  0.00000000000E+00  0.00000000000E+00  0.37448248690E+03  0.37448248690E+03  0.00000000000E+00 0. -1.
          1   -1    0    0  501    0 -0.00000000000E+00 -0.00000000000E+00 -0.58134404977E+02  0.58134404977E+02  0.00000000000E+00 0. -1.
         25    2    1    2    0    0  0.19507826620E-02  0.10859079401E+02  0.60772631923E+02  0.13941371742E+03  0.12499980882E+03 0.  0.
          2    1    1    2  501    0  0.24002866303E+02 -0.17584249850E+02 -0.60743964201E+01  0.30368433042E+02  0.00000000000E+00 0. -1.
          1    1    1    2  502    0 -0.24004817085E+02  0.67251704486E+01  0.26164984642E+03  0.26283474141E+03  0.00000000000E+00 0. -1.
         22    1    3    3    0    0  0.48055335852E+02  0.13514242071E+02 -0.12766819497E+02  0.51526126602E+02  0.00000000000E+00 0. -1.
         22    1    3    3    0    0 -0.48053385069E+02 -0.26551626695E+01  0.73539451420E+02  0.87887590822E+02  0.00000000000E+00 0. -1.
</event>
<event>
 7    1  0.5736319E-006  0.9167010E+02  0.7818608E-02  0.1360210E+00
          2   -1    0    0  502    0  0.00000000000E+00  0.00000000000E+00  0.41271960835E+03  0.41271960835E+03  0.00000000000E+00 0. -1.
          1   -1    0    0  501    0 -0.00000000000E+00 -0.00000000000E+00 -0.19084074133E+04  0.19084074133E+04  0.00000000000E+00 0. -1.
         25    2    1    2    0    0 -0.20844588621E+02  0.14138028979E+03 -0.59383729681E+03  0.62345116253E+03  0.12500293498E+03 0.  0.
          2    1    1    2  501    0 -0.30070876956E+01 -0.53315492273E+02 -0.12939752489E+04  0.12950766499E+04  0.00000000000E+00 0. -1.
          1    1    1    2  502    0  0.23851676316E+02 -0.88064797522E+02  0.39212474073E+03  0.40259920928E+03  0.00000000000E+00 0. -1.
         22    1    3    3    0    0  0.50826983107E+02  0.39697852318E+02 -0.17385972752E+03  0.18543599042E+03  0.00000000000E+00 0.  1.
         22    1    3    3    0    0 -0.71671571727E+02  0.10168243748E+03 -0.41997756929E+03  0.43801517210E+03  0.00000000000E+00 0.  1.
</event>
<event>
 7    1  0.5736319E-006  0.8617468E+02  0.7818608E-02  0.1317206E+00
          2   -1    0    0  502    0  0.00000000000E+00  0.00000000000E+00  0.51648687519E+03  0.51648687519E+03  0.00000000000E+00 0. -1.
          1   -1    0    0  501    0 -0.00000000000E+00 -0.00000000000E+00 -0.24742448961E+04  0.24742448961E+04  0.00000000000E+00 0. -1.
         25    2    1    2    0    0 -0.11253427222E+03 -0.17476675245E+00 -0.29714485376E+03  0.34144516481E+03  0.12500297391E+03 0.  0.
          2    1    1    2  501    0  0.53544404136E+02 -0.62784614454E+02 -0.21503880687E+04  0.21519706683E+04  0.00000000000E+00 0. -1.
          1    1    1    2  502    0  0.58989868087E+02  0.62959381207E+02  0.48977490155E+03  0.49731593822E+03  0.00000000000E+00 0. -1.
         22    1    3    3    0    0 -0.90325170200E+02  0.48572157962E+01 -0.73249301116E+02  0.11639454038E+03  0.00000000000E+00 0.  1.
         22    1    3    3    0    0 -0.22209102024E+02 -0.50319825486E+01 -0.22389555264E+03  0.22505062442E+03  0.00000000000E+00 0.  1.
</event>
<event>
 7    1  0.5736319E-006  0.1001922E+03  0.7818608E-02  0.1404366E+00
          2   -1    0    0  502    0  0.00000000000E+00  0.00000000000E+00  0.68924828239E+03  0.68924828239E+03  0.00000000000E+00 0. -1.
          1   -1    0    0  501    0 -0.00000000000E+00 -0.00000000000E+00 -0.17063218304E+04  0.17063218304E+04  0.00000000000E+00 0. -1.
         25    2    1    2    0    0 -0.35608280813E+02 -0.93986957677E+02 -0.19928388046E+03  0.25581297001E+03  0.12499885095E+03 0.  0.
          2    1    1    2  501    0  0.21099613565E+01  0.10048165676E+03 -0.14766237129E+04  0.14800400686E+04  0.00000000000E+00 0. -1.
          1    1    1    2  502    0  0.33498319456E+02 -0.64946990845E+01  0.65883404538E+03  0.65971707411E+03  0.00000000000E+00 0. -1.
         22    1    3    3    0    0  0.33165114007E+02 -0.84037090381E+02 -0.12313947703E+03  0.15272684161E+03  0.00000000000E+00 0.  1.
         22    1    3    3    0    0 -0.68773394820E+02 -0.99498672956E+01 -0.76144403432E+02  0.10308612840E+03  0.00000000000E+00 0.  1.
</event>
<event>
 7    1  0.5736319E-006  0.6330830E+02  0.7818608E-02  0.1391582E+00
          2   -1    0    0  502    0  0.00000000000E+00  0.00000000000E+00  0.24334936973E+03  0.24334936973E+03  0.00000000000E+00 0. -1.
          1   -1    0    0  501    0 -0.00000000000E+00 -0.00000000000E+00 -0.27421178216E+04  0.27421178216E+04  0.00000000000E+00 0. -1.
         25    2    1    2    0    0 -0.64496908880E+02  0.96212582574E+02 -0.19823186794E+03  0.26141406424E+03  0.12499890886E+03 0.  0.
          2    1    1    2  501    0  0.49673776608E+02 -0.38307357557E+02 -0.25076768539E+04  0.25084613095E+04  0.00000000000E+00 0. -1.
          1    1    1    2  502    0  0.14823132272E+02 -0.57905225017E+02  0.20714027000E+03  0.21559181754E+03  0.00000000000E+00 0. -1.
         22    1    3    3    0    0 -0.45359600859E+02  0.20852703500E+02 -0.17240087702E+03  0.17948367901E+03  0.00000000000E+00 0. -1.
         22    1    3    3    0    0 -0.19137308021E+02  0.75359879074E+02 -0.25830990919E+02  0.81930385231E+02  0.00000000000E+00 0. -1.
</event>
<event>
 7    1  0.5736319E-006  0.8682118E+02  0.7818608E-02  0.1332783E+00
          2   -1    0    0  502    0  0.00000000000E+00  0.00000000000E+00  0.45622269956E+02  0.45622269956E+02  0.00000000000E+00 0. -1.
          1   -1    0    0  501    0 -0.00000000000E+00 -0.00000000000E+00 -0.64037249401E+03  0.64037249401E+03  0.00000000000E+00 0. -1.
         25    2    1    2    0    0  0.29048744401E+02 -0.91924504468E+02 -0.40759778278E+03  0.43709716674E+03  0.12499614622E+03 0.  0.
          2    1    1    2  501    0  0.50700069432E+02  0.50185555338E+02 -0.10558996587E+03  0.12742969786E+03  0.00000000000E+00 0. -1.
          1    1    1    2  502    0 -0.79748813833E+02  0.41738949130E+02 -0.81562475404E+02  0.12146789937E+03  0.00000000000E+00 0. -1.
         22    1    3    3    0    0 -0.39862323842E+02 -0.70090389938E+02 -0.16009813620E+03  0.17925702452E+03  0.00000000000E+00 0. -1.
         22    1    3    3    0    0  0.68911068243E+02 -0.21834114530E+02 -0.24749964658E+03  0.25784014222E+03  0.00000000000E+00 0. -1.
</event>
<event>
 7    1  0.5736319E-006  0.1293318E+03  0.7818608E-02  0.1395275E+00
          2   -1    0    0  502    0  0.00000000000E+00  0.00000000000E+00  0.25049188727E+04  0.25049188727E+04  0.00000000000E+00 0. -1.
          1   -1    0    0  501    0 -0.00000000000E+00 -0.00000000000E+00 -0.69345445497E+02  0.69345445497E+02  0.00000000000E+00 0. -1.
         25    2    1    2    0    0 -0.65794421545E+01  0.15252250495E+03  0.38265753038E+03  0.43053219546E+03  0.12499912880E+03 0.  0.
          2    1    1    2  501    0  0.82329008063E+01 -0.12416303709E+03  0.40131110292E+02  0.13074687931E+03  0.00000000000E+00 0. -1.
          1    1    1    2  502    0 -0.16534586518E+01 -0.28359467857E+02  0.20127847866E+04  0.20129852434E+04  0.00000000000E+00 0. -1.
         22    1    3    3    0    0 -0.45252408221E+02  0.14629481072E+03  0.25970492970E+03  0.30149063436E+03  0.00000000000E+00 0.  1.
         22    1    3    3    0    0  0.38672966066E+02  0.62276942308E+01  0.12295260068E+03  0.12904156111E+03  0.00000000000E+00 0.  1.
</event>
<event>
 7    1  0.5736319E-006  0.6610677E+02  0.7818608E-02  0.1407199E+00
          2   -1    0    0  502    0  0.00000000000E+00  0.00000000000E+00  0.22136766291E+04  0.22136766291E+04  0.00000000000E+00 0. -1.
          1   -1    0    0  501    0 -0.00000000000E+00 -0.00000000000E+00 -0.36132259614E+02  0.36132259614E+02  0.00000000000E+00 0. -1.
         25    2    1    2    0    0  0.14858587168E+01  0.90480722321E+02  0.23319244315E+03  0.27962961201E+03  0.12500014193E+03 0.  0.
          2    1    1    2  501    0 -0.33936084831E+02 -0.51684761371E+02  0.63437421327E+02  0.88584867987E+02  0.00000000000E+00 0. -1.
          1    1    1    2  502    0  0.32450226114E+02 -0.38795960950E+02  0.18809145050E+04  0.18815944087E+04  0.00000000000E+00 0. -1.
         22    1    3    3    0    0  0.24333251504E+02  0.72485039668E+01  0.17191102181E+03  0.17377585379E+03  0.00000000000E+00 0.  1.
         22    1    3    3    0    0 -0.22847392787E+02  0.83232218354E+02  0.61281421340E+02  0.10585375823E+03  0.00000000000E+00 0.  1.
</event>
<event>
 7    1  0.5736319E-006  0.1105345E+03  0.7818608E-02  0.1265628E+00
          2   -1    0    0  502    0  0.00000000000E+00  0.00000000000E+00  0.96488372408E+03  0.96488372408E+03  0.00000000000E+00 0. -1.
          1   -1    0    0  501    0 -0.00000000000E+00 -0.00000000000E+00 -0.14622756533E+03  0.14622756533E+03  0.00000000000E+00 0. -1.
         25    2    1    2    0    0 -0.22817527818E+02 -0.95849170207E+01  0.14870404433E+03  0.19582854693E+03  0.12499366697E+03 0.  0.
          2    1    1    2  501    0  0.12683057857E+03  0.15578196166E+02 -0.84807975502E+02  0.15336579986E+03  0.00000000000E+00 0. -1.
          1    1    1    2  502    0 -0.10401305075E+03 -0.59932791457E+01  0.75476008992E+03  0.76191694263E+03  0.00000000000E+00 0. -1.
         22    1    3    3    0    0 -0.92212236447E+00  0.66934228501E+00 -0.22699555135E+02  0.22728135253E+02  0.00000000000E+00 0. -1.
         22    1    3    3    0    0 -0.21895405453E+02 -0.10254259306E+02  0.17140359947E+03  0.17310041168E+03  0.00000000000E+00 0. -1.
</event>
<event>
 7    1  0.5736319E-006  0.1742686E+03  0.7818608E-02  0.1208180E+00
          2   -1    0    0  502    0  0.00000000000E+00  0.00000000000E+00  0.46522806217E+04  0.46522806217E+04  0.00000000000E+00 0. -1.
          1   -1    0    0  501    0 -0.00000000000E+00 -0.00000000000E+00 -0.48222322722E+03  0.48222322722E+03  0.00000000000E+00 0. -1.
         25    2    1    2    0    0 -0.79117142518E+02 -0.14586957181E+03  0.92219100360E+01  0.20797224975E+03  0.12501983371E+03 0.  0.
          2    1    1    2  501    0 -0.84493835002E+02  0.83537950638E+02 -0.37189819132E+03  0.39041780449E+03  0.00000000000E+00 0. -1.
          1    1    1    2  502    0  0.16361097752E+03  0.62331621169E+02  0.45327336758E+04  0.45361137947E+04  0.00000000000E+00 0. -1.
         22    1    3    3    0    0 -0.73804053921E+02 -0.40241080325E+02  0.46213820579E+02  0.95927577544E+02  0.00000000000E+00 0. -1.
         22    1    3    3    0    0 -0.53130885968E+01 -0.10562849148E+03 -0.36991910543E+02  0.11204467220E+03  0.00000000000E+00 0. -1.
</event>
<event>
 7    1  0.5736319E-006  0.1523770E+03  0.7818608E-02  0.1198942E+00
          2   -1    0    0  502    0  0.00000000000E+00  0.00000000000E+00  0.22862805341E+04  0.22862805341E+04  0.00000000000E+00 0. -1.
          1   -1    0    0  501    0 -0.00000000000E+00 -0.00000000000E+00 -0.47143831906E+03  0.47143831906E+03  0.00000000000E+00 0. -1.
         25    2    1    2    0    0  0.12440715215E+03  0.54985563404E+02  0.47463647102E+03  0.50931801300E+03  0.12499802818E+03 0.  0.
          2    1    1    2  501    0  0.10827846343E+02 -0.15199179587E+03 -0.43731708100E+03  0.46310363592E+03  0.00000000000E+00 0. -1.
          1    1    1    2  502    0 -0.13523499850E+03  0.97006232461E+02  0.17775228250E+04  0.17852972042E+04  0.00000000000E+00 0. -1.
         22    1    3    3    0    0  0.11264617141E+03  0.92099344449E+02  0.38571990187E+03  0.41225149106E+03  0.00000000000E+00 0. -1.
         22    1    3    3    0    0  0.11760980741E+02 -0.37113781045E+02  0.88916569149E+02  0.97066521935E+02  0.00000000000E+00 0. -1.
</event>
<event>
 7    1  0.5736319E-006  0.6104985E+02  0.7818608E-02  0.1432778E+00
          2   -1    0    0  502    0  0.00000000000E+00  0.00000000000E+00  0.98662550596E+03  0.98662550596E+03  0.00000000000E+00 0. -1.
          1   -1    0    0  501    0 -0.00000000000E+00 -0.00000000000E+00 -0.21025479830E+02  0.21025479830E+02  0.00000000000E+00 0. -1.
         25    2    1    2    0    0 -0.66515861389E+01  0.27003802158E+02  0.69267083412E+03  0.70440832426E+03  0.12499901565E+03 0.  0.
          2    1    1    2  501    0 -0.21708077152E+02 -0.61925438000E+02  0.72329172470E+02  0.97660174459E+02  0.00000000000E+00 0. -1.
          1    1    1    2  502    0  0.28359663291E+02  0.34921635842E+02  0.20060001954E+03  0.20558248708E+03  0.00000000000E+00 0. -1.
         22    1    3    3    0    0  0.25981761725E+02  0.49072255995E+02  0.14414730397E+03  0.15447195050E+03  0.00000000000E+00 0. -1.
         22    1    3    3    0    0 -0.32633347864E+02 -0.22068453837E+02  0.54852353015E+03  0.54993637375E+03  0.00000000000E+00 0. -1.
</event>
<event>
 7    1  0.5736319E-006  0.1411089E+03  0.7818608E-02  0.1290020E+00
          2   -1    0    0  502    0  0.00000000000E+00  0.00000000000E+00  0.77465176982E+02  0.77465176982E+02  0.00000000000E+00 0. -1.
          1   -1    0    0  501    0 -0.00000000000E+00 -0.00000000000E+00 -0.14592620828E+04  0.14592620828E+04  0.00000000000E+00 0. -1.
         25    2    1    2    0    0  0.85989967520E+02 -0.38671127970E+01 -0.18494913486E+03  0.23925375357E+03  0.12500778791E+03 0.  0.
          2    1    1    2  501    0 -0.14984833829E+03  0.13972284979E+02 -0.12196628834E+04  0.12289130557E+04  0.00000000000E+00 0. -1.
          1    1    1    2  502    0  0.63858370765E+02 -0.10105172182E+02  0.22815112452E+02  0.68560450537E+02  0.00000000000E+00 0. -1.
         22    1    3    3    0    0  0.36596150088E+02  0.40708808386E+02 -0.15019796264E+02  0.56763364605E+02  0.00000000000E+00 0. -1.
         22    1    3    3    0    0  0.49393817432E+02 -0.44575921183E+02 -0.16992933859E+03  0.18249038896E+03  0.00000000000E+00 0. -1.
</event>
<event>
 7    1  0.5736319E-006  0.8471802E+02  0.7818608E-02  0.1374685E+00
          2   -1    0    0  502    0  0.00000000000E+00  0.00000000000E+00  0.13165152683E+04  0.13165152683E+04  0.00000000000E+00 0. -1.
          1   -1    0    0  501    0 -0.00000000000E+00 -0.00000000000E+00 -0.23228057359E+03  0.23228057359E+03  0.00000000000E+00 0. -1.
         25    2    1    2    0    0 -0.10494628387E+03 -0.48088184260E+02 -0.11154155298E+02  0.17051757910E+03  0.12500253453E+03 0.  0.
          2    1    1    2  501    0  0.55069685907E+02  0.59802362274E+02 -0.12918342531E+03  0.15263469532E+03  0.00000000000E+00 0. -1.
          1    1    1    2  502    0  0.49876597959E+02 -0.11714178015E+02  0.12245722753E+04  0.12256435675E+04  0.00000000000E+00 0. -1.
         22    1    3    3    0    0 -0.67757192387E+02 -0.52504494461E+02  0.49683678491E+02  0.99076874028E+02  0.00000000000E+00 0.  1.
         22    1    3    3    0    0 -0.37189091479E+02  0.44163102012E+01 -0.60837833789E+02  0.71440705071E+02  0.00000000000E+00 0.  1.
</event>
<event>
 7    1  0.5736319E-006  0.8490616E+02  0.7818608E-02  0.1360364E+00
          2   -1    0    0  502    0  0.00000000000E+00  0.00000000000E+00  0.14491159042E+03  0.14491159042E+03  0.00000000000E+00 0. -1.
          1   -1    0    0  501    0 -0.00000000000E+00 -0.00000000000E+00 -0.26379303732E+04  0.26379303732E+04  0.00000000000E+00 0. -1.
         25    2    1    2    0    0  0.13727741518E+03  0.16999808598E+02 -0.90482685893E+03  0.92383482293E+03  0.12500021282E+03 0.  0.
          2    1    1    2  501    0 -0.53249485715E+02 -0.21906761058E+02 -0.17099875255E+04  0.17109566773E+04  0.00000000000E+00 0. -1.
          1    1    1    2  502    0 -0.84027929470E+02  0.49069524600E+01  0.12179560173E+03  0.14805046341E+03  0.00000000000E+00 0. -1.
         22    1    3    3    0    0  0.18160400605E+02  0.45037337568E+02 -0.45755484549E+03  0.46012454679E+03  0.00000000000E+00 0.  1.
         22    1    3    3    0    0  0.11911701458E+03 -0.28037528970E+02 -0.44727201343E+03  0.46371027614E+03  0.00000000000E+00 0.  1.
</event>
<event>
 7    1  0.5736319E-006  0.1603285E+03  0.7818608E-02  0.1299813E+00
          2   -1    0    0  502    0  0.00000000000E+00  0.00000000000E+00  0.46834354344E+03  0.46834354344E+03  0.00000000000E+00 0. -1.
          1   -1    0    0  501    0 -0.00000000000E+00 -0.00000000000E+00 -0.43302794201E+03  0.43302794201E+03  0.00000000000E+00 0. -1.
         25    2    1    2    0    0  0.18599572042E+03  0.43250695370E+02 -0.10214282303E+03  0.25004586771E+03  0.12499899600E+03 0.  0.
          2    1    1    2  501    0 -0.15176596734E+03 -0.41677287639E+01 -0.23253089501E+03  0.27770649243E+03  0.00000000000E+00 0. -1.
          1    1    1    2  502    0 -0.34229753081E+02 -0.39082966606E+02  0.36998931947E+03  0.37361912531E+03  0.00000000000E+00 0. -1.
         22    1    3    3    0    0 -0.14432992939E+02  0.10903785182E+02 -0.29139082347E+02  0.34297083499E+02  0.00000000000E+00 0.  1.
         22    1    3    3    0    0  0.20042871336E+03  0.32346910187E+02 -0.73003740686E+02  0.21574878422E+03  0.00000000000E+00 0.  1.
</event>
<event>
 7    1  0.5736319E-006  0.9011547E+02  0.7818608E-02  0.1325912E+00
          2   -1    0    0  502    0  0.00000000000E+00  0.00000000000E+00  0.13837742439E+04  0.13837742439E+04  0.00000000000E+00 0. -1.
          1   -1    0    0  501    0 -0.00000000000E+00 -0.00000000000E+00 -0.61777663242E+02  0.61777663242E+02  0.00000000000E+00 0. -1.
         25    2    1    2    0    0 -0.12691223622E+03 -0.76377584483E+02  0.76838624985E+03  0.79245422756E+03  0.12500409078E+03 0.  0.
          2    1    1    2  501    0  0.68694548993E+02  0.24748501352E+02 -0.18819808861E+02  0.75403014437E+02  0.00000000000E+00 0. -1.
          1    1    1    2  502    0  0.58217687230E+02  0.51629083130E+02  0.57243013971E+03  0.57769466519E+03  0.00000000000E+00 0. -1.
         22    1    3    3    0    0 -0.10939091809E+03 -0.76479212585E+02  0.76231301373E+03  0.77390992617E+03  0.00000000000E+00 0. -1.
         22    1    3    3    0    0 -0.17521318131E+02  0.10162810214E+00  0.60732361203E+01  0.18544301397E+02  0.00000000000E+00 0. -1.
</event>
<event>
 7    1  0.5736319E-006  0.1389111E+03  0.7818608E-02  0.1277073E+00
          2   -1    0    0  502    0  0.00000000000E+00  0.00000000000E+00  0.84943472988E+03  0.84943472988E+03  0.00000000000E+00 0. -1.
          1   -1    0    0  501    0 -0.00000000000E+00 -0.00000000000E+00 -0.65618889582E+03  0.65618889582E+03  0.00000000000E+00 0. -1.
         25    2    1    2    0    0 -0.95151134591E+02 -0.17706103805E+03  0.97559569525E+02  0.25602092209E+03  0.12499797331E+03 0.  0.
          2    1    1    2  501    0  0.55727486866E+02  0.49044245563E+02 -0.56784959931E+03  0.57268146316E+03  0.00000000000E+00 0. -1.
          1    1    1    2  502    0  0.39423647724E+02  0.12801679248E+03  0.66353586385E+03  0.67692124045E+03  0.00000000000E+00 0. -1.
         22    1    3    3    0    0 -0.10435955199E+03 -0.12472164892E+03  0.11601467628E+03  0.19976438850E+03  0.00000000000E+00 0.  1.
         22    1    3    3    0    0  0.92084174017E+01 -0.52339389128E+02 -0.18455106757E+02  0.56256533583E+02  0.00000000000E+00 0.  1.
</event>
<event>
 7    1  0.5736319E-006  0.1268453E+03  0.7818608E-02  0.1315002E+00
          2   -1    0    0  502    0  0.00000000000E+00  0.00000000000E+00  0.24148150362E+04  0.24148150362E+04  0.00000000000E+00 0. -1.
          1   -1    0    0  501    0 -0.00000000000E+00 -0.00000000000E+00 -0.22782218712E+04  0.22782218712E+04  0.00000000000E+00 0. -1.
         25    2    1    2    0    0  0.80055197802E+02  0.15164331355E+02  0.13696060643E+03  0.20253879669E+03  0.12499985924E+03 0.  0.
          2    1    1    2  501    0 -0.12596274286E+03  0.18924845442E+02 -0.22432616869E+04  0.22468751097E+04  0.00000000000E+00 0. -1.
          1    1    1    2  502    0  0.45907545059E+02 -0.34089176796E+02  0.22428942455E+04  0.22436230011E+04  0.00000000000E+00 0. -1.
         22    1    3    3    0    0  0.15541497995E+02  0.63740549614E+02  0.42078205941E+02  0.77942101846E+02  0.00000000000E+00 0.  1.
         22    1    3    3    0    0  0.64513699808E+02 -0.48576218260E+02  0.94882400492E+02  0.12459669485E+03  0.00000000000E+00 0.  1.
</event>
<event>
 7    1  0.5736319E-006  0.8732919E+02  0.7818608E-02  0.1387792E+00
          2   -1    0    0  502    0  0.00000000000E+00  0.00000000000E+00  0.13060226126E+03  0.13060226126E+03  0.00000000000E+00 0. -1.
          1   -1    0    0  501    0 -0.00000000000E+00 -0.00000000000E+00 -0.39592817131E+03  0.39592817131E+03  0.00000000000E+00 0. -1.
         25    2    1    2    0    0 -0.36461758432E+02  0.11095061059E+03 -0.29406593005E+02  0.17357849651E+03  0.12500099568E+03 0.  0.
          2    1    1    2  501    0  0.50560427319E+02 -0.68562129431E+02 -0.27849991129E+03  0.29123757140E+03  0.00000000000E+00 0. -1.
          1    1    1    2  502    0 -0.14098668886E+02 -0.42388481156E+02  0.42580594253E+02  0.61714364665E+02  0.00000000000E+00 0. -1.
         22    1    3    3    0    0 -0.27193503133E+02  0.12982803285E+03  0.55746577314E+01  0.13276250049E+03  0.00000000000E+00 0. -1.
         22    1    3    3    0    0 -0.92682552998E+01 -0.18877422268E+02 -0.34981250737E+02  0.40815996017E+02  0.00000000000E+00 0. -1.
</event>
<event>
 7    1  0.5736319E-006  0.8262310E+02  0.7818608E-02  0.1367100E+00
          2   -1    0    0  502    0  0.00000000000E+00  0.00000000000E+00  0.15238278614E+04  0.15238278614E+04  0.00000000000E+00 0. -1.
          1   -1    0    0  501    0 -0.00000000000E+00 -0.00000000000E+00 -0.31509025882E+03  0.31509025882E+03  0.00000000000E+00 0. -1.
         25    2    1    2    0    0  0.50230599550E+02 -0.10735122696E+03  0.87487616263E+03  0.89166734537E+03  0.12495981679E+03 0.  0.
          2    1    1    2  501    0 -0.13945416126E+00  0.82466022769E+02 -0.29989713052E+03  0.31102886241E+03  0.00000000000E+00 0. -1.
          1    1    1    2  502    0 -0.50091145388E+02  0.24885204194E+02  0.63375857042E+03  0.63622191240E+03  0.00000000000E+00 0. -1.
         22    1    3    3    0    0 -0.34422735436E+02 -0.27695708703E+02  0.11961120323E+03  0.12751006601E+03  0.00000000000E+00 0.  1.
         22    1    3    3    0    0  0.84653334986E+02 -0.79655518261E+02  0.75526495940E+03  0.76415727937E+03  0.00000000000E+00 0.  1.
</event>
<event>
 7    1  0.5736319E-006  0.3523530E+02  0.7818608E-02  0.1552821E+00
          2   -1    0    0  502    0  0.00000000000E+00  0.00000000000E+00  0.44724486692E+03  0.44724486692E+03  0.00000000000E+00 0. -1.
          1   -1    0    0  501    0 -0.00000000000E+00 -0.00000000000E+00 -0.32049386907E+03  0.32049386907E+03  0.00000000000E+00 0. -1.
         25    2    1    2    0    0  0.49721619872E+02  0.41701448123E+02 -0.10887424479E+03  0.17801744554E+03  0.12500143791E+03 0.  0.
          2    1    1    2  501    0 -0.31206103208E+02 -0.13379194393E+02 -0.17471736496E+03  0.17798590208E+03  0.00000000000E+00 0. -1.
          1    1    1    2  502    0 -0.18515516665E+02 -0.28322253730E+02  0.41034260761E+03  0.41173538837E+03  0.00000000000E+00 0. -1.
         22    1    3    3    0    0  0.50119007575E+02  0.19060442667E+02  0.12077375194E+02  0.54964337406E+02  0.00000000000E+00 0.  1.
         22    1    3    3    0    0 -0.39738770218E+00  0.22641005456E+02 -0.12095161998E+03  0.12305310813E+03  0.00000000000E+00 0.  1.
</event>
<event>
 7    1  0.5736319E-006  0.2999856E+02  0.7818608E-02  0.1617250E+00
          2   -1    0    0  502    0  0.00000000000E+00  0.00000000000E+00  0.52458667782E+03  0.52458667782E+03  0.00000000000E+00 0. -1.
          1   -1    0    0  501    0 -0.00000000000E+00 -0.00000000000E+00 -0.45241678428E+02  0.45241678428E+02  0.00000000000E+00 0. -1.
         25    2    1    2    0    0 -0.16116377154E+02  0.80885509015E+01  0.13267994558E+03  0.18317705858E+03  0.12499881824E+03 0.  0.
          2    1    1    2  501    0  0.14623285771E+02  0.22416923863E+02 -0.10080846788E+02  0.28600392203E+02  0.00000000000E+00 0. -1.
          1    1    1    2  502    0  0.14930913824E+01 -0.30505474764E+02  0.35674590060E+03  0.35805090546E+03  0.00000000000E+00 0. -1.
         22    1    3    3    0    0 -0.65182623131E+02 -0.20537672786E+02  0.84597425613E+02  0.10875336676E+03  0.00000000000E+00 0.  1.
         22    1    3    3    0    0  0.49066245977E+02  0.28626223688E+02  0.48082519970E+02  0.74423691817E+02  0.00000000000E+00 0.  1.
</event>
<event>
 7    1  0.5736319E-006  0.1633959E+03  0.7818608E-02  0.1327109E+00
          2   -1    0    0  502    0  0.00000000000E+00  0.00000000000E+00  0.18561266089E+04  0.18561266089E+04  0.00000000000E+00 0. -1.
          1   -1    0    0  501    0 -0.00000000000E+00 -0.00000000000E+00 -0.67104468192E+02  0.67104468192E+02  0.00000000000E+00 0. -1.
         25    2    1    2    0    0 -0.14347270578E+03 -0.10762392758E+03  0.12831648808E+04  0.13016542787E+04  0.12499769088E+03 0.  0.
          2    1    1    2  501    0  0.10649511145E+03  0.12246739602E+03  0.58602507162E+02  0.17255064676E+03  0.00000000000E+00 0. -1.
          1    1    1    2  502    0  0.36977594327E+02 -0.14843468446E+02  0.44725475273E+03  0.44902615166E+03  0.00000000000E+00 0. -1.
         22    1    3    3    0    0 -0.44767616427E+02 -0.98078002251E+02  0.45627322812E+03  0.46883759736E+03  0.00000000000E+00 0. -1.
         22    1    3    3    0    0 -0.98705089350E+02 -0.95459253284E+01  0.82689165272E+03  0.83281668132E+03  0.00000000000E+00 0. -1.
</event>
<event>
 7    1  0.5736319E-006  0.8086501E+02  0.7818608E-02  0.1436923E+00
          2   -1    0    0  502    0  0.00000000000E+00  0.00000000000E+00  0.85035620924E+02  0.85035620924E+02  0.00000000000E+00 0. -1.
          1   -1    0    0  501    0 -0.00000000000E+00 -0.00000000000E+00 -0.46215229196E+03  0.46215229196E+03  0.00000000000E+00 0. -1.
         25    2    1    2    0    0  0.10393901504E+02  0.60654513343E+02 -0.29528390201E+02  0.14241761900E+03  0.12499539671E+03 0.  0.
          2    1    1    2  501    0  0.15194161174E+02 -0.81365888885E+02 -0.36014697468E+03  0.36953634974E+03  0.00000000000E+00 0. -1.
          1    1    1    2  502    0 -0.25588062678E+02  0.20711375542E+02  0.12558693846E+02  0.35233944139E+02  0.00000000000E+00 0. -1.
         22    1    3    3    0    0 -0.55049044037E+02  0.92939376142E+01 -0.72603037851E+01  0.56298193015E+02  0.00000000000E+00 0. -1.
         22    1    3    3    0    0  0.65442945540E+02  0.51360575729E+02 -0.22268086416E+02  0.86119425990E+02  0.00000000000E+00 0. -1.
</event>
<event>
 7    1  0.5736319E-006  0.6305740E+02  0.7818608E-02  0.1444632E+00
          2   -1    0    0  502    0  0.00000000000E+00  0.00000000000E+00  0.11324147702E+04  0.11324147702E+04  0.00000000000E+00 0. -1.
          1   -1    0    0  501    0 -0.00000000000E+00 -0.00000000000E+00 -0.26041701826E+02  0.26041701826E+02  0.00000000000E+00 0. -1.
         25    2    1    2    0    0  0.83928850517E+02 -0.19077930083E+02  0.54058911749E+03  0.56148843754E+03  0.12499860872E+03 0.  0.
          2    1    1    2  501    0 -0.48500519192E+02  0.37334866890E+02  0.48344867307E+02  0.77996274543E+02  0.00000000000E+00 0. -1.
          1    1    1    2  502    0 -0.35428331325E+02 -0.18256936807E+02  0.51743908356E+03  0.51897175992E+03  0.00000000000E+00 0. -1.
         22    1    3    3    0    0  0.92036455425E+01  0.49427348587E+02  0.16913291756E+03  0.17644748137E+03  0.00000000000E+00 0. -1.
         22    1    3    3    0    0  0.74725204975E+02 -0.68505278670E+02  0.37145619993E+03  0.38504095617E+03  0.00000000000E+00 0. -1.
</event>
<event>
 7    1  0.5736319E-006  0.1093726E+03  0.7818608E-02  0.1299430E+00
          2   -1    0    0  502    0  0.00000000000E+00  0.00000000000E+00  0.92080580416E+03  0.92080580416E+03  0.00000000000E+00 0. -1.
          1   -1    0    0  501    0 -0.00000000000E+00 -0.00000000000E+00 -0.63019746874E+03  0.63019746874E+03  0.00000000000E+00 0. -1.
         25    2    1    2    0    0 -0.17058898349E+03  0.51946633393E+02 -0.10893681202E+03  0.24348989048E+03  0.12498417397E+03 0.  0.
          2    1    1    2  501    0  0.94962475954E+02 -0.40909687098E+02 -0.44635128759E+03  0.45817130669E+03  0.00000000000E+00 0. -1.
          1    1    1    2  502    0  0.75626507533E+02 -0.11036946295E+02  0.84589643503E+03  0.84934207574E+03  0.00000000000E+00 0. -1.
         22    1    3    3    0    0 -0.11760083891E+03  0.60194411744E+02 -0.11931710925E+02  0.13264874761E+03  0.00000000000E+00 0.  1.
         22    1    3    3    0    0 -0.52988144581E+02 -0.82477783512E+01 -0.97005101095E+02  0.11084114287E+03  0.00000000000E+00 0.  1.
</event>
<event>
 7    1  0.5736319E-006  0.1411855E+03  0.7818608E-02  0.1297624E+00
          2   -1    0    0  502    0  0.00000000000E+00  0.00000000000E+00  0.13791412284E+04  0.13791412284E+04  0.00000000000E+00 0. -1.
          1   -1    0    0  501    0 -0.00000000000E+00 -0.00000000000E+00 -0.23859188061E+03  0.23859188061E+03  0.00000000000E+00 0. -1.
         25    2    1    2    0    0 -0.15308442496E+02  0.18331443367E+03  0.24434846794E+02  0.22374333245E+03  0.12500194828E+03 0.  0.
          2    1    1    2  501    0  0.34804402697E+02 -0.12635577129E+03 -0.10712380401E+03  0.16927089759E+03  0.00000000000E+00 0. -1.
          1    1    1    2  502    0 -0.19495960201E+02 -0.56958662386E+02  0.12232383050E+04  0.12247188790E+04  0.00000000000E+00 0. -1.
         22    1    3    3    0    0 -0.14281417344E+02  0.19004425421E+03 -0.78566943083E+01  0.19074198563E+03  0.00000000000E+00 0. -1.
         22    1    3    3    0    0 -0.10270251513E+01 -0.67298205314E+01  0.32291541103E+02  0.33001346818E+02  0.00000000000E+00 0. -1.
</event>
<event>
 7    1  0.5736319E-006  0.1459168E+03  0.7818608E-02  0.1247854E+00
          2   -1    0    0  502    0  0.00000000000E+00  0.00000000000E+00  0.22091506729E+04  0.22091506729E+04  0.00000000000E+00 0. -1.
          1   -1    0    0  501    0 -0.00000000000E+00 -0.00000000000E+00 -0.39631547895E+03  0.39631547895E+03  0.00000000000E+00 0. -1.
         25    2    1    2    0    0  0.20216699185E+03 -0.10392353714E+03  0.42505044021E+02  0.26287644341E+03  0.12500300623E+03 0.  0.
          2    1    1    2  501    0 -0.11093200567E+03  0.80987977534E+02 -0.26849960270E+03  0.30159078076E+03  0.00000000000E+00 0. -1.
          1    1    1    2  502    0 -0.91234986177E+02  0.22935559610E+02  0.20388297526E+04  0.20409989277E+04  0.00000000000E+00 0. -1.
         22    1    3    3    0    0  0.10512529905E+03 -0.75502099345E+02 -0.36586337885E+02  0.13450076441E+03  0.00000000000E+00 0.  1.
         22    1    3    3    0    0  0.97041692796E+02 -0.28421437799E+02  0.79091381906E+02  0.12837567900E+03  0.00000000000E+00 0.  1.
</event>
<event>
 7    1  0.5736319E-006  0.1930949E+03  0.7818608E-02  0.1308084E+00
          2   -1    0    0  502    0  0.00000000000E+00  0.00000000000E+00  0.54571486655E+03  0.54571486655E+03  0.00000000000E+00 0. -1.
          1   -1    0    0  501    0 -0.00000000000E+00 -0.00000000000E+00 -0.69132952388E+03  0.69132952388E+03  0.00000000000E+00 0. -1.
         25    2    1    2    0    0  0.26978915541E+02 -0.17378576445E+03 -0.11362970536E+03  0.24385932858E+03  0.12500523343E+03 0.  0.
          2    1    1    2  501    0 -0.64297306734E+02  0.18815656397E+03 -0.49240248509E+03  0.53103412653E+03  0.00000000000E+00 0. -1.
          1    1    1    2  502    0  0.37318391192E+02 -0.14370799517E+02  0.46041753313E+03  0.46215093532E+03  0.00000000000E+00 0. -1.
         22    1    3    3    0    0  0.35893979475E+02 -0.15043507828E+03 -0.13921873203E+03  0.20808879328E+03  0.00000000000E+00 0. -1.
         22    1    3    3    0    0 -0.89150639333E+01 -0.23350686166E+02  0.25589026669E+02  0.35770535294E+02  0.00000000000E+00 0. -1.
</event>
<event>
 7    1  0.5736319E-006  0.1689116E+03  0.7818608E-02  0.1269805E+00
          2   -1    0    0  502    0  0.00000000000E+00  0.00000000000E+00  0.43060005744E+03  0.43060005744E+03  0.00000000000E+00 0. -1.
          1   -1    0    0  501    0 -0.00000000000E+00 -0.00000000000E+00 -0.19017456406E+04  0.19017456406E+04  0.00000000000E+00 0. -1.
         25    2    1    2    0    0 -0.15064681635E+03 -0.11915030826E+03 -0.36309725519E+03  0.42936660687E+03  0.12499922853E+03 0.  0.
          2    1    1    2  501    0  0.61136320001E+02 -0.23422746785E+02 -0.14869360893E+04  0.14883767025E+04  0.00000000000E+00 0. -1.
          1    1    1    2  502    0  0.89510496350E+02  0.14257305504E+03  0.37888776138E+03  0.41460238868E+03  0.00000000000E+00 0. -1.
         22    1    3    3    0    0 -0.57103360446E+02 -0.28982523384E+02 -0.27864737954E+02  0.69837125207E+02  0.00000000000E+00 0.  1.
         22    1    3    3    0    0 -0.93543455905E+02 -0.90167784876E+02 -0.33523251724E+03  0.35952948167E+03  0.00000000000E+00 0.  1.
</event>
<event>
 7    1  0.5736319E-006  0.1137657E+03  0.7818608E-02  0.1382160E+00
          2   -1    0    0  502    0  0.00000000000E+00  0.00000000000E+00  0.35497106044E+03  0.35497106044E+03  0.00000000000E+00 0. -1.
          1   -1    0    0  501    0 -0.00000000000E+00 -0.00000000000E+00 -0.13328505176E+04  0.13328505176E+04  0.00000000000E+00 0. -1.
         25    2    1    2    0    0  0.12980948662E+03  0.68799309850E+02 -0.11477949413E+03  0.22446533712E+03  0.12500602962E+03 0.  0.
          2    1    1    2  501    0 -0.95208636037E+02 -0.59263956139E+02 -0.11594398129E+04  0.11648508834E+04  0.00000000000E+00 0. -1.
          1    1    1    2  502    0 -0.34600850587E+02 -0.95353537104E+01  0.29633984988E+03  0.29850535750E+03  0.00000000000E+00 0. -1.
         22    1    3    3    0    0 -0.19403388904E+02  0.16674219683E+02 -0.44844500101E+02  0.51628967570E+02  0.00000000000E+00 0.  1.
         22    1    3    3    0    0  0.14921287553E+03  0.52125090167E+02 -0.69934994033E+02  0.17283636955E+03  0.00000000000E+00 0.  1.
</event>
<event>
 7    1  0.5736319E-006  0.1619510E+03  0.7818608E-02  0.1225414E+00
          2   -1    0    0  502    0  0.00000000000E+00  0.00000000000E+00  0.12606586731E+04  0.12606586731E+04  0.00000000000E+00 0. -1.
          1   -1    0    0  501    0 -0.00000000000E+00 -0.00000000000E+00 -0.15569392060E+03  0.15569392060E+03  0.00000000000E+00 0. -1.
         25    2    1    2    0    0  0.76491803785E+02  0.46428156595E+02  0.36631465468E+03  0.39726134117E+03  0.12499430861E+03 0.  0.
          2    1    1    2  501    0 -0.83476614522E+02 -0.15278749874E+03 -0.81364409177E+02  0.19217838594E+03  0.00000000000E+00 0. -1.
          1    1    1    2  502    0  0.69848107370E+01  0.10635934215E+03  0.82001450701E+03  0.82691286660E+03  0.00000000000E+00 0. -1.
         22    1    3    3    0    0 -0.82198568723E+01 -0.33938364944E+02  0.11417947258E+03  0.11939987697E+03  0.00000000000E+00 0. -1.
         22    1    3    3    0    0  0.84711660657E+02  0.80366521538E+02  0.25213518210E+03  0.27786146420E+03  0.00000000000E+00 0. -1.
</event>
<event>
 7    1  0.5736319E-006  0.7125319E+02  0.7818608E-02  0.1385775E+00
          2   -1    0    0  502    0  0.00000000000E+00  0.00000000000E+00  0.86177019439E+03  0.86177019439E+03  0.00000000000E+00 0. -1.
          1   -1    0    0  501    0 -0.00000000000E+00 -0.00000000000E+00 -0.10918355069E+04  0.10918355069E+04  0.00000000000E+00 0. -1.
         25    2    1    2    0    0 -0.52717349238E+02 -0.11211586176E+03  0.38917545735E+02  0.18024490982E+03  0.12499826712E+03 0.  0.
          2    1    1    2  501    0  0.18515227536E+02  0.68217633766E+02 -0.10189164176E+04  0.10213653241E+04  0.00000000000E+00 0. -1.
          1    1    1    2  502    0  0.34202121703E+02  0.43898227991E+02  0.74993355934E+03  0.75199546738E+03  0.00000000000E+00 0. -1.
         22    1    3    3    0    0 -0.70319715194E+02 -0.77745901375E+02 -0.22952542494E+02  0.10731312470E+03  0.00000000000E+00 0.  1.
         22    1    3    3    0    0  0.17602365955E+02 -0.34369960382E+02  0.61870088229E+02  0.72931785124E+02  0.00000000000E+00 0.  1.
</event>
<event>
 7    1  0.5736319E-006  0.4431240E+02  0.7818608E-02  0.1552491E+00
          2   -1    0    0  502    0  0.00000000000E+00  0.00000000000E+00  0.33702180833E+04  0.33702180833E+04  0.00000000000E+00 0. -1.
          1   -1    0    0  501    0 -0.00000000000E+00 -0.00000000000E+00 -0.90059929165E+02  0.90059929165E+02  0.00000000000E+00 0. -1.
         25    2    1    2    0    0  0.26343498382E+02  0.10593959810E+01  0.14785823999E+04  0.14840910589E+04  0.12500102328E+03 0.  0.
          2    1    1    2  501    0  0.13138302625E+02  0.23545316200E+02 -0.84930223349E+02  0.89107461803E+02  0.00000000000E+00 0. -1.
          1    1    1    2  502    0 -0.39481801008E+02 -0.24604712181E+02  0.18865059776E+04  0.18870794917E+04  0.00000000000E+00 0. -1.
         22    1    3    3    0    0  0.63649492556E+02  0.34640482336E+02  0.10672739568E+04  0.10697312372E+04  0.00000000000E+00 0. -1.
         22    1    3    3    0    0 -0.37305994174E+02 -0.33581086355E+02  0.41130844301E+03  0.41435982172E+03  0.00000000000E+00 0. -1.
</event>
<event>
 7    1  0.5736319E-006  0.7788278E+02  0.7818608E-02  0.1351908E+00
          2   -1    0    0  502    0  0.00000000000E+00  0.00000000000E+00  0.17534783349E+04  0.17534783349E+04  0.00000000000E+00 0. -1.
          1   -1    0    0  501    0 -0.00000000000E+00 -0.00000000000E+00 -0.15955274384E+02  0.15955274384E+02  0.00000000000E+00 0. -1.
         25    2    1    2    0    0  0.13055561315E+02  0.63393234129E+02  0.93915731202E+03  0.94964782049E+03  0.12500150574E+03 0.  0.
          2    1    1    2  501    0 -0.65326652080E+02  0.16681081861E+02  0.15064909054E+03  0.16504841243E+03  0.00000000000E+00 0. -1.
          1    1    1    2  502    0  0.52271090765E+02 -0.80074315991E+02  0.64771665795E+03  0.65473737635E+03  0.00000000000E+00 0. -1.
         22    1    3    3    0    0  0.50729703228E+02  0.81669300604E+02  0.56092817061E+03  0.56910788963E+03  0.00000000000E+00 0.  1.
         22    1    3    3    0    0 -0.37674141912E+02 -0.18276066475E+02  0.37822914141E+03  0.38053993087E+03  0.00000000000E+00 0.  1.
</event>
<event>
 7    1  0.5736319E-006  0.5185199E+02  0.7818608E-02  0.1493978E+00
          2   -1    0    0  502    0  0.00000000000E+00  0.00000000000E+00  0.78531565972E+02  0.78531565972E+02  0.00000000000E+00 0. -1.
          1   -1    0    0  501    0 -0.00000000000E+00 -0.00000000000E+00 -0.17139650859E+04  0.17139650859E+04  0.00000000000E+00 0. -1.
         25    2    1    2    0    0  0.15205115251E+02 -0.13938272111E+02 -0.27936112920E+03  0.30674574726E+03  0.12499936798E+03 0.  0.
          2    1    1    2  501    0  0.33038877312E+02 -0.81221255070E+01 -0.14098214975E+04  0.14102319636E+04  0.00000000000E+00 0. -1.
          1    1    1    2  502    0 -0.48243992563E+02  0.22060397618E+02  0.53749106816E+02  0.75518940968E+02  0.00000000000E+00 0. -1.
         22    1    3    3    0    0  0.63228101178E+02 -0.37067893260E+02 -0.15586027856E+03  0.17223312087E+03  0.00000000000E+00 0. -1.
         22    1    3    3    0    0 -0.48022985928E+02  0.23129621149E+02 -0.12350085063E+03  0.13451262639E+03  0.00000000000E+00 0. -1.
</event>
<event>
 7    1  0.5736319E-006  0.1513627E+03  0.7818608E-02  0.1287214E+00
          2   -1    0    0  502    0  0.00000000000E+00  0.00000000000E+00  0.11170968751E+04  0.11170968751E+04  0.00000000000E+00 0. -1.
          1   -1    0    0  501    0 -0.00000000000E+00 -0.00000000000E+00 -0.91009596368E+02  0.91009596368E+02  0.00000000000E+00 0. -1.
         25    2    1    2    0    0  0.72905768943E+02 -0.85857143957E+02  0.18310799245E+03  0.24867572830E+03  0.12499752251E+03 0.  0.
          2    1    1    2  501    0 -0.79227214267E+01 -0.61372621290E+02 -0.32075125205E+02  0.69700658646E+02  0.00000000000E+00 0. -1.
          1    1    1    2  502    0 -0.64983047516E+02  0.14722976525E+03  0.87505441147E+03  0.88973008451E+03  0.00000000000E+00 0. -1.
         22    1    3    3    0    0  0.83594679655E+02 -0.11209331145E+03  0.14902888115E+03  0.20435896936E+03  0.00000000000E+00 0. -1.
         22    1    3    3    0    0 -0.10688910712E+02  0.26236167489E+02  0.34079111297E+02  0.44316758947E+02  0.00000000000E+00 0. -1.
</event>
<event>
 7    1  0.5736319E-006  0.6151596E+02  0.7818608E-02  0.1429180E+00
          2   -1    0    0  502    0  0.00000000000E+00  0.00000000000E+00  0.44264657086E+03  0.44264657086E+03  0.00000000000E+00 0. -1.
          1   -1    0    0  501    0 -0.00000000000E+00 -0.00000000000E+00 -0.37955548386E+03  0.37955548386E+03  0.00000000000E+00 0. -1.
         25    2    1    2    0    0 -0.26501207835E+02 -0.68900717366E+02 -0.32205984745E+03  0.35326772998E+03  0.12500368329E+03 0.  0.
          2    1    1    2  501    0 -0.16164389344E+02  0.52033881837E+02 -0.22325476835E+02  0.58883268063E+02  0.00000000000E+00 0. -1.
          1    1    1    2  502    0  0.42665597179E+02  0.16866835529E+02  0.40747641129E+03  0.41005105667E+03  0.00000000000E+00 0. -1.
         22    1    3    3    0    0  0.82494309610E+01  0.29832563723E+02 -0.30356950027E+02  0.43354116118E+02  0.00000000000E+00 0. -1.
         22    1    3    3    0    0 -0.34750638796E+02 -0.98733281089E+02 -0.29170289743E+03  0.30991361386E+03  0.00000000000E+00 0. -1.
</event>
<event>
 7    1  0.5736319E-006  0.1301023E+03  0.7818608E-02  0.1287152E+00
          2   -1    0    0  502    0  0.00000000000E+00  0.00000000000E+00  0.36732329501E+03  0.36732329501E+03  0.00000000000E+00 0. -1.
          1   -1    0    0  501    0 -0.00000000000E+00 -0.00000000000E+00 -0.77181874125E+03  0.77181874125E+03  0.00000000000E+00 0. -1.
         25    2    1    2    0    0 -0.43100825321E+02 -0.50833983878E+02 -0.31411155658E+03  0.34457516113E+03  0.12499678649E+03 0.  0.
          2    1    1    2  501    0 -0.69330885470E+02 -0.19555268170E+02 -0.42685593799E+03  0.43289164001E+03  0.00000000000E+00 0. -1.
          1    1    1    2  502    0  0.11243171079E+03  0.70389252048E+02  0.33647204832E+03  0.36167523512E+03  0.00000000000E+00 0. -1.
         22    1    3    3    0    0 -0.58949045536E+02 -0.59200894915E+02 -0.31571545660E+03  0.32658227977E+03  0.00000000000E+00 0. -1.
         22    1    3    3    0    0  0.15848220215E+02  0.83669110367E+01  0.16039000193E+01  0.17992881358E+02  0.00000000000E+00 0. -1.
</event>
<event>
 7    1  0.5736319E-006  0.1107744E+03  0.7818608E-02  0.1298874E+00
          2   -1    0    0  502    0  0.00000000000E+00  0.00000000000E+00  0.15857599388E+04  0.15857599388E+04  0.00000000000E+00 0. -1.
          1   -1    0    0  501    0 -0.00000000000E+00 -0.00000000000E+00 -0.36806275249E+02  0.36806275249E+02  0.00000000000E+00 0. -1.
         25    2    1    2    0    0  0.38007974752E+01 -0.28449096764E+02  0.26194383733E+03  0.29165543183E+03  0.12499807933E+03 0.  0.
          2    1    1    2  501    0  0.10390708348E+03  0.54332993569E+02  0.15944582135E+03  0.19791848356E+03  0.00000000000E+00 0. -1.
          1    1    1    2  502    0 -0.10770788096E+03 -0.25883896806E+02  0.11275640048E+04  0.11329922986E+04  0.00000000000E+00 0. -1.
         22    1    3    3    0    0 -0.11897278414E+02  0.47942297462E+02  0.85470823180E+02  0.98718137820E+02  0.00000000000E+00 0.  1.
         22    1    3    3    0    0  0.15698075889E+02 -0.76391394225E+02  0.17647301415E+03  0.19293729401E+03  0.00000000000E+00 0.  1.
</event>
<event>
 7    1  0.5736319E-006  0.9792959E+02  0.7818608E-02  0.1361340E+00
          2   -1    0    0  502    0  0.00000000000E+00  0.00000000000E+00  0.19451063795E+04  0.19451063795E+04  0.00000000000E+00 0. -1.
          1   -1    0    0  501    0 -0.00000000000E+00 -0.00000000000E+00 -0.11345667228E+04  0.11345667228E+04  0.00000000000E+00 0. -1.
         25    2    1    2    0    0 -0.10980285844E+03 -0.69562659489E+02  0.35028339472E+03  0.39397736048E+03  0.12499629048E+03 0.  0.
          2    1    1    2  501    0  0.16358637123E+02  0.46734421363E+02 -0.11106970451E+04  0.11118001786E+04  0.00000000000E+00 0. -1.
          1    1    1    2  502    0  0.93444221320E+02  0.22828238126E+02  0.15709533070E+04  0.15738955632E+04  0.00000000000E+00 0. -1.
         22    1    3    3    0    0 -0.13076066233E+03 -0.69905406389E+02  0.24299513828E+03  0.28466076984E+03  0.00000000000E+00 0. -1.
         22    1    3    3    0    0  0.20957803889E+02  0.34274689941E+00  0.10728825644E+03  0.10931659064E+03  0.00000000000E+00 0. -1.
</event>
<event>
 7    1  0.5736319E-006  0.1559517E+03  0.7818608E-02  0.1278934E+00
          2   -1    0    0  502    0  0.00000000000E+00  0.00000000000E+00  0.16883520931E+03  0.16883520931E+03  0.00000000000E+00 0. -1.
          1   -1    0    0  501    0 -0.00000000000E+00 -0.00000000000E+00 -0.10196395405E+04  0.10196395405E+04  0.00000000000E+00 0. -1.
         25    2    1    2    0    0 -0.82095163882E+02 -0.14865992205E+03  0.41659637386E+02  0.21494201496E+03  0.12500062420E+03 0.  0.
          2    1    1    2  501    0  0.17435306000E+02  0.15488774482E+03 -0.89505207755E+03  0.90852211030E+03  0.00000000000E+00 0. -1.
          1    1    1    2  502    0  0.64659857882E+02 -0.62278227666E+01  0.25881089499E+01  0.65010624560E+02  0.00000000000E+00 0. -1.
         22    1    3    3    0    0 -0.65813531505E+02 -0.79430099268E+02  0.83249025185E+02  0.13255550458E+03  0.00000000000E+00 0. -1.
         22    1    3    3    0    0 -0.16281632377E+02 -0.69229822785E+02 -0.41589387799E+02  0.82386510383E+02  0.00000000000E+00 0. -1.
</event>
<event>
 7    1  0.5736319E-006  0.6409041E+02  0.7818608E-02  0.1406143E+00
          2   -1    0    0  502    0  0.00000000000E+00  0.00000000000E+00  0.12635374372E+04  0.12635374372E+04  0.00000000000E+00 0. -1.
          1   -1    0    0  501    0 -0.00000000000E+00 -0.00000000000E+00 -0.10897944100E+04  0.10897944100E+04  0.00000000000E+00 0. -1.
         25    2    1    2    0    0  0.11671809392E+02  0.87721673284E+02  0.75305521751E+03  0.76847175371E+03  0.12500141018E+03 0.  0.
          2    1    1    2  501    0  0.30191243986E+02 -0.43076368238E+02 -0.10795808427E+04  0.10808616381E+04  0.00000000000E+00 0. -1.
          1    1    1    2  502    0 -0.41863053378E+02 -0.44645305047E+02  0.50026865235E+03  0.50399845538E+03  0.00000000000E+00 0. -1.
         22    1    3    3    0    0 -0.13051859770E+02  0.74358562751E+02  0.18623544884E+03  0.20095568990E+03  0.00000000000E+00 0. -1.
         22    1    3    3    0    0  0.24723669162E+02  0.13363110533E+02  0.56681976866E+03  0.56751606381E+03  0.00000000000E+00 0. -1.
</event>
<event>
 7    1  0.5736319E-006  0.7188497E+02  0.7818608E-02  0.1507788E+00
          2   -1    0    0  502    0  0.00000000000E+00  0.00000000000E+00  0.92327343030E+03  0.92327343030E+03  0.00000000000E+00 0. -1.
          1   -1    0    0  501    0 -0.00000000000E+00 -0.00000000000E+00 -0.67104693517E+02  0.67104693517E+02  0.00000000000E+00 0. -1.
         25    2    1    2    0    0 -0.52629664646E+02  0.89792995343E+01  0.14726570875E+03  0.20040593834E+03  0.12499936691E+03 0.  0.
          2    1    1    2  501    0  0.74865454175E+02 -0.10937698139E+02 -0.49014032027E+01  0.75818818395E+02  0.00000000000E+00 0. -1.
          1    1    1    2  502    0 -0.22235789529E+02  0.19583986044E+01  0.71380443123E+03  0.71415336707E+03  0.00000000000E+00 0. -1.
         22    1    3    3    0    0 -0.56045539369E+02 -0.16370144281E+02  0.81442714927E+01  0.58952635777E+02  0.00000000000E+00 0. -1.
         22    1    3    3    0    0  0.34158747225E+01  0.25349443815E+02  0.13912143726E+03  0.14145330257E+03  0.00000000000E+00 0. -1.
</event>
<event>
 7    1  0.5736319E-006  0.1009466E+03  0.7818608E-02  0.1425366E+00
          2   -1    0    0  502    0  0.00000000000E+00  0.00000000000E+00  0.16683265910E+04  0.16683265910E+04  0.00000000000E+00 0. -1.
          1   -1    0    0  501    0 -0.00000000000E+00 -0.00000000000E+00 -0.85587039918E+03  0.85587039918E+03  0.00000000000E+00 0. -1.
         25    2    1    2    0    0 -0.10194415380E+03 -0.43250973818E+02 -0.25087896300E+03  0.30137684577E+03  0.12499796742E+03 0.  0.
          2    1    1    2  501    0  0.98708205452E+02  0.14652178348E+02 -0.57532104380E+03  0.58391120865E+03  0.00000000000E+00 0. -1.
          1    1    1    2  502    0  0.32359483459E+01  0.28598795469E+02  0.16386561986E+04  0.16389089358E+04  0.00000000000E+00 0. -1.
         22    1    3    3    0    0 -0.84397930327E+01  0.19955163449E+02 -0.14504658738E+03  0.14665589373E+03  0.00000000000E+00 0.  1.
         22    1    3    3    0    0 -0.93504360765E+02 -0.63206137267E+02 -0.10583237562E+03  0.15472095204E+03  0.00000000000E+00 0.  1.
</event>
<event>
 7    1  0.5736319E-006  0.1399684E+03  0.7818608E-02  0.1247857E+00
          2   -1    0    0  502    0  0.00000000000E+00  0.00000000000E+00  0.20506256828E+04  0.20506256828E+04  0.00000000000E+00 0. -1.
          1   -1    0    0  501    0 -0.00000000000E+00 -0.00000000000E+00 -0.31900161985E+03  0.31900161985E+03  0.00000000000E+00 0. -1.
         25    2    1    2    0    0  0.13107496153E+03 -0.31859538491E+02 -0.75572356705E+02  0.19882703336E+03  0.12500132945E+03 0.  0.
          2    1    1    2  501    0 -0.93283115416E+02  0.12235398800E+03 -0.14779903166E+03  0.21334664694E+03  0.00000000000E+00 0. -1.
          1    1    1    2  502    0 -0.37791846117E+02 -0.90494449513E+02  0.19549954513E+04  0.19574536223E+04  0.00000000000E+00 0. -1.
         22    1    3    3    0    0  0.63343953190E+02 -0.34197977615E+02  0.26156592935E+02  0.76590635411E+02  0.00000000000E+00 0. -1.
         22    1    3    3    0    0  0.67731008343E+02  0.23384391237E+01 -0.10172894964E+03  0.12223639795E+03  0.00000000000E+00 0. -1.
</event>
<event>
 7    1  0.5736319E-006  0.4296135E+02  0.7818608E-02  0.1547915E+00
          2   -1    0    0  502    0  0.00000000000E+00  0.00000000000E+00  0.19178681571E+03  0.19178681571E+03  0.00000000000E+00 0. -1.
          1   -1    0    0  501    0 -0.00000000000E+00 -0.00000000000E+00 -0.12389479022E+03  0.12389479022E+03  0.00000000000E+00 0. -1.
         25    2    1    2    0    0 -0.29823722338E+02 -0.32658357026E+02  0.57415668030E+02  0.14449016573E+03  0.12499930543E+03 0.  0.
          2    1    1    2  501    0  0.32343165943E+01  0.43300903811E+02 -0.71891147948E+02  0.83986702685E+02  0.00000000000E+00 0. -1.
          1    1    1    2  502    0  0.26589405743E+02 -0.10642546786E+02  0.82367505405E+02  0.87204737523E+02  0.00000000000E+00 0. -1.
         22    1    3    3    0    0 -0.57457545775E+02  0.22075280013E+02  0.15958023336E+01  0.61572998459E+02  0.00000000000E+00 0.  1.
         22    1    3    3    0    0  0.27633823437E+02 -0.54733637039E+02  0.55819865696E+02  0.82917167267E+02  0.00000000000E+00 0.  1.
</event>
<event>
 7    1  0.5736319E-006  0.5998359E+02  0.7818608E-02  0.1537926E+00
          2   -1    0    0  502    0  0.00000000000E+00  0.00000000000E+00  0.34327903605E+03  0.34327903605E+03  0.00000000000E+00 0. -1.
          1   -1    0    0  501    0 -0.00000000000E+00 -0.00000000000E+00 -0.53766195454E+02  0.53766195454E+02  0.00000000000E+00 0. -1.
         25    2    1    2    0    0 -0.56154494146E+02 -0.19328831856E+02  0.20911281297E+03  0.25076134705E+03  0.12500461461E+03 0.  0.
          2    1    1    2  501    0  0.46346798264E+02  0.38893164246E+02 -0.24884759204E+01  0.60554904400E+02  0.00000000000E+00 0. -1.
          1    1    1    2  502    0  0.98076958813E+01 -0.19564332390E+02  0.82888503544E+02  0.85728980048E+02  0.00000000000E+00 0. -1.
         22    1    3    3    0    0  0.38001700129E+02  0.21952287935E+01  0.87792501643E+02  0.95689453896E+02  0.00000000000E+00 0.  1.
         22    1    3    3    0    0 -0.94156194275E+02 -0.21524060650E+02  0.12132031133E+03  0.15507189316E+03  0.00000000000E+00 0.  1.
</event>
<event>
 7    1  0.5736319E-006  0.6206626E+02  0.7818608E-02  0.1491133E+00
          2   -1    0    0  502    0  0.00000000000E+00  0.00000000000E+00  0.47244385318E+02  0.47244385318E+02  0.00000000000E+00 0. -1.
          1   -1    0    0  501    0 -0.00000000000E+00 -0.00000000000E+00 -0.18314327449E+04  0.18314327449E+04  0.00000000000E+00 0. -1.
         25    2    1    2    0    0  0.16459530179E+02  0.71210831856E+02 -0.57487436345E+03  0.59282570029E+03  0.12497951216E+03 0.  0.
          2    1    1    2  501    0 -0.27097531601E+02 -0.10303765410E+02 -0.12223245286E+04  0.12226682694E+04  0.00000000000E+00 0. -1.
          1    1    1    2  502    0  0.10638001422E+02 -0.60907066446E+02  0.13010532477E+02  0.63183160515E+02  0.00000000000E+00 0. -1.
         22    1    3    3    0    0  0.27966438527E+02  0.10115033649E+03 -0.50709017242E+03  0.51783583810E+03  0.00000000000E+00 0.  1.
         22    1    3    3    0    0 -0.11506908348E+02 -0.29939504631E+02 -0.67784191035E+02  0.74989862192E+02  0.00000000000E+00 0.  1.
</event>
<event>
 7    1  0.5736319E-006  0.5451683E+02  0.7818608E-02  0.1432794E+00
          2   -1    0    0  502    0  0.00000000000E+00  0.00000000000E+00  0.13602851709E+04  0.13602851709E+04  0.00000000000E+00 0. -1.
          1   -1    0    0  501    0 -0.00000000000E+00 -0.00000000000E+00 -0.15647884782E+04  0.15647884782E+04  0.00000000000E+00 0. -1.
         25    2    1    2    0    0 -0.46718446335E+01 -0.14024462301E+02  0.56660599554E+01  0.12600000331E+03  0.12500153969E+03 0.  0.
          2    1    1    2  501    0  0.44154474356E+02 -0.24242106687E+02 -0.15036156905E+04  0.15044591859E+04  0.00000000000E+00 0. -1.
          1    1    1    2  502    0 -0.39482629723E+02  0.38266568988E+02  0.12934463233E+04  0.12946144598E+04  0.00000000000E+00 0. -1.
         22    1    3    3    0    0  0.58367087530E+02 -0.20085804009E+02  0.99603177812E+01  0.62524909914E+02  0.00000000000E+00 0. -1.
         22    1    3    3    0    0 -0.63038932164E+02  0.60613417086E+01 -0.42942578258E+01  0.63475093398E+02  0.00000000000E+00 0. -1.
</event>
<event>
 7    1  0.5736319E-006  0.1078040E+03  0.7818608E-02  0.1290001E+00
          2   -1    0    0  502    0  0.00000000000E+00  0.00000000000E+00  0.46766571531E+03  0.46766571531E+03  0.00000000000E+00 0. -1.
          1   -1    0    0  501    0 -0.00000000000E+00 -0.00000000000E+00 -0.12853727183E+04  0.12853727183E+04  0.00000000000E+00 0. -1.
         25    2    1    2    0    0  0.15891659304E+03 -0.76478669029E+02 -0.45578497358E+02  0.22092031059E+03  0.12499965540E+03 0.  0.
          2    1    1    2  501    0 -0.84591660525E+02  0.29271129539E+01 -0.11433356418E+04  0.11464644377E+04  0.00000000000E+00 0. -1.
          1    1    1    2  502    0 -0.74324932517E+02  0.73551556075E+02  0.37120713622E+03  0.38565368529E+03  0.00000000000E+00 0. -1.
         22    1    3    3    0    0  0.75431906847E+02  0.22979752093E+02 -0.45555517308E+02  0.91067813930E+02  0.00000000000E+00 0.  1.
         22    1    3    3    0    0  0.83484686195E+02 -0.99458421122E+02 -0.22980050743E-01  0.12985249666E+03  0.00000000000E+00 0.  1.
</event>
<event>
 7    1  0.5736319E-006  0.7587420E+02  0.7818608E-02  0.1433469E+00
          2   -1    0    0  502    0  0.00000000000E+00  0.00000000000E+00  0.43197264827E+03  0.43197264827E+03  0.00000000000E+00 0. -1.
          1   -1    0    0  501    0 -0.00000000000E+00 -0.00000000000E+00 -0.17368392950E+04  0.17368392950E+04  0.00000000000E+00 0. -1.
         25    2    1    2    0    0  0.83739183129E+02 -0.73117313793E+02 -0.22832063541E+03  0.28304912917E+03  0.12501241779E+03 0.  0.
          2    1    1    2  501    0 -0.29212221750E+02  0.21054274436E+02 -0.14774212484E+04  0.14778600006E+04  0.00000000000E+00 0. -1.
          1    1    1    2  502    0 -0.54526961378E+02  0.52063039357E+02  0.40087523703E+03  0.40790281348E+03  0.00000000000E+00 0. -1.
         22    1    3    3    0    0  0.10279444219E+03 -0.55389122220E+02 -0.22895815900E+03  0.25701457308E+03  0.00000000000E+00 0. -1.
         22    1    3    3    0    0 -0.19055259062E+02 -0.17728191572E+02  0.63752358599E+00  0.26034556087E+02  0.00000000000E+00 0. -1.
</event>
<event>
 7    1  0.5736319E-006  0.1065635E+03  0.7818608E-02  0.1422404E+00
          2   -1    0    0  502    0  0.00000000000E+00  0.00000000000E+00  0.33533940086E+03  0.33533940086E+03  0.00000000000E+00 0. -1.
          1   -1    0    0  501    0 -0.00000000000E+00 -0.00000000000E+00 -0.37905040723E+03  0.37905040723E+03  0.00000000000E+00 0. -1.
         25    2    1    2    0    0 -0.57923539714E+02 -0.96988586279E+02 -0.50877048355E+02  0.17599920959E+03  0.12500130161E+03 0.  0.
          2    1    1    2  501    0 -0.17268966351E+02  0.21899152271E+02 -0.25447208129E+03  0.25599576212E+03  0.00000000000E+00 0. -1.
          1    1    1    2  502    0  0.75192506065E+02  0.75089434007E+02  0.26163812327E+03  0.28239483638E+03  0.00000000000E+00 0. -1.
         22    1    3    3    0    0  0.30258653599E+02 -0.41817722484E+02 -0.50164843949E+02  0.71977910499E+02  0.00000000000E+00 0.  1.
         22    1    3    3    0    0 -0.88182193313E+02 -0.55170863795E+02 -0.71220440576E+00  0.10402129909E+03  0.00000000000E+00 0.  1.
</event>
<event>
 7    1  0.5736319E-006  0.9736514E+02  0.7818608E-02  0.1305310E+00
          2   -1    0    0  502    0  0.00000000000E+00  0.00000000000E+00  0.18604249562E+03  0.18604249562E+03  0.00000000000E+00 0. -1.
          1   -1    0    0  501    0 -0.00000000000E+00 -0.00000000000E+00 -0.51306253325E+03  0.51306253325E+03  0.00000000000E+00 0. -1.
         25    2    1    2    0    0 -0.58338826647E+01 -0.10227429406E+03 -0.14843622331E+03  0.21943847822E+03  0.12500347163E+03 0.  0.
          2    1    1    2  501    0  0.75318221114E+02  0.30713128235E+02 -0.30669856237E+03  0.31730133759E+03  0.00000000000E+00 0. -1.
          1    1    1    2  502    0 -0.69484338449E+02  0.71561165830E+02  0.12811474805E+03  0.16236521306E+03  0.00000000000E+00 0. -1.
         22    1    3    3    0    0 -0.63508776192E+01 -0.12755771474E+03 -0.91413278851E+02  0.15705951670E+03  0.00000000000E+00 0. -1.
         22    1    3    3    0    0  0.51699495449E+00  0.25283420680E+02 -0.57022944458E+02  0.62378961515E+02  0.00000000000E+00 0. -1.
</event>
<event>
 7    1  0.5736319E-006  0.4370557E+02  0.7818608E-02  0.1517276E+00
          2   -1    0    0  502    0  0.00000000000E+00  0.00000000000E+00  0.48032244775E+03  0.48032244775E+03  0.00000000000E+00 0. -1.
          1   -1    0    0  501    0 -0.00000000000E+00 -0.00000000000E+00 -0.12007520669E+04  0.12007520669E+04  0.00000000000E+00 0. -1.
         25    2    1    2    0    0 -0.70046438862E+02 -0.33037221692E+02 -0.57344476829E+02  0.15783217350E+03  0.12499857740E+03 0.  0.
          2    1    1    2  501    0  0.40791391162E+02  0.14873979206E+02 -0.10920423796E+04  0.10929051797E+04  0.00000000000E+00 0. -1.
          1    1    1    2  502    0  0.29255047700E+02  0.18163242486E+02  0.42895723726E+03  0.43033716153E+03  0.00000000000E+00 0. -1.
         22    1    3    3    0    0  0.65105902594E+01 -0.63214105227E+02 -0.15035927828E+02  0.65303062798E+02  0.00000000000E+00 0. -1.
         22    1    3    3    0    0 -0.76557029122E+02  0.30176883535E+02 -0.42308549001E+02  0.92529110697E+02  0.00000000000E+00 0. -1.
</event>
<event>
 7    1  0.5736319E-006  0.9755548E+02  0.7818608E-02  0.1431601E+00
          2   -1    0    0  502    0  0.00000000000E+00  0.00000000000E+00  0.12135145229E+04  0.12135145229E+04  0.00000000000E+00 0. -1.
          1   -1    0    0  501    0 -0.00000000000E+00 -0.00000000000E+00 -0.44141450762E+02  0.44141450762E+02  0.00000000000E+00 0. -1.
         25    2    1    2    0    0 -0.76337246871E+02 -0.25249039046E+02  0.25273811597E+03  0.29320042081E+03  0.12500016907E+03 0.  0.
          2    1    1    2  501    0  0.93774216105E+02  0.47670830511E+02  0.93236310570E+02  0.14056714160E+03  0.00000000000E+00 0. -1.
          1    1    1    2  502    0 -0.17436969234E+02 -0.22421791465E+02  0.82339864563E+03  0.82388841128E+03  0.00000000000E+00 0. -1.
         22    1    3    3    0    0 -0.10887518442E+03 -0.33955875106E+02  0.20781241587E+03  0.23705022131E+03  0.00000000000E+00 0.  1.
         22    1    3    3    0    0  0.32537937547E+02  0.87068360604E+01  0.44925700105E+02  0.56150199500E+02  0.00000000000E+00 0.  1.
</event>
<event>
 7    1  0.5736319E-006  0.1568804E+03  0.7818608E-02  0.1316179E+00
          2   -1    0    0  502    0  0.00000000000E+00  0.00000000000E+00  0.33725357359E+03  0.33725357359E+03  0.00000000000E+00 0. -1.
          1   -1    0    0  501    0 -0.00000000000E+00 -0.00000000000E+00 -0.18655801334E+04  0.18655801334E+04  0.00000000000E+00 0. -1.
         25    2    1    2    0    0 -0.24260980853E+02 -0.13156830473E+03 -0.83875873827E+03  0.85851084286E+03  0.12500332907E+03 0.  0.
          2    1    1    2  501    0  0.53623029017E+02  0.16664800761E+03 -0.10077633288E+04  0.10228557643E+04  0.00000000000E+00 0. -1.
          1    1    1    2  502    0 -0.29362048165E+02 -0.35079702875E+02  0.31819550727E+03  0.32146709983E+03  0.00000000000E+00 0. -1.
         22    1    3    3    0    0  0.44718064729E+02 -0.40096673292E+02 -0.17711761794E+03  0.18702432758E+03  0.00000000000E+00 0. -1.
         22    1    3    3    0    0 -0.68979045581E+02 -0.91471631439E+02 -0.66164112032E+03  0.67148651527E+03  0.00000000000E+00 0. -1.
</event>
<event>
 7    1  0.5736319E-006  0.9201899E+02  0.7818608E-02  0.1424724E+00
          2   -1    0    0  502    0  0.00000000000E+00  0.00000000000E+00  0.43549885927E+03  0.43549885927E+03  0.00000000000E+00 0. -1.
          1   -1    0    0  501    0 -0.00000000000E+00 -0.00000000000E+00 -0.10720123833E+03  0.10720123833E+03  0.00000000000E+00 0. -1.
         25    2    1    2    0    0  0.40380616292E+01  0.11176430678E+03  0.16263641400E+03  0.23362917834E+03  0.12499769438E+03 0.  0.
          2    1    1    2  501    0 -0.23189207027E+02 -0.86467043312E+02 -0.42081014498E+02  0.98919667826E+02  0.00000000000E+00 0. -1.
          1    1    1    2  502    0  0.19151145397E+02 -0.25297263470E+02  0.20774222145E+03  0.21015125144E+03  0.00000000000E+00 0. -1.
         22    1    3    3    0    0 -0.32444116043E+02 -0.61304144326E+01  0.49432432751E+01  0.33386199260E+02  0.00000000000E+00 0.  1.
         22    1    3    3    0    0  0.36482177672E+02  0.11789472121E+03  0.15769317072E+03  0.20024297908E+03  0.00000000000E+00 0.  1.
</event>
<event>
 7    1  0.1030444E-005  0.9630225E+02  0.7818608E-02  0.1313453E+00
          2   -1    0    0  502    0  0.00000000000E+00  0.00000000000E+00  0.24314303252E+04  0.24314303252E+04  0.00000000000E+00 0. -1.
          1   -1    0    0  501    0 -0.00000000000E+00 -0.00000000000E+00 -0.20415677753E+04  0.20415677753E+04  0.00000000000E+00 0. -1.
         25    2    1    2    0    0  0.10537139981E+03  0.78672500255E+01 -0.93955473565E+03  0.95370442622E+03  0.12499602309E+03 0.  0.
          2    1    1    2  501    0 -0.41423171898E+02  0.64165579403E+02 -0.10926479094E+04  0.10953139069E+04  0.00000000000E+00 0. -1.
          1    1    1    2  502    0 -0.63948227915E+02 -0.72032829429E+02  0.24220651949E+04  0.24239797674E+04  0.00000000000E+00 0. -1.
         22    1    3    3    0    0  0.99102316706E+02  0.51577853358E+02 -0.52202309901E+03  0.53384422825E+03  0.00000000000E+00 0. -1.
         22    1    3    3    0    0  0.62690831068E+01 -0.43710603332E+02 -0.41753163664E+03  0.41986019797E+03  0.00000000000E+00 0. -1.
</event>
<event>
 7    1  0.5736319E-006  0.5703607E+02  0.7818608E-02  0.1461252E+00
          2   -1    0    0  502    0  0.00000000000E+00  0.00000000000E+00  0.13217618585E+04  0.13217618585E+04  0.00000000000E+00 0. -1.
          1   -1    0    0  501    0 -0.00000000000E+00 -0.00000000000E+00 -0.95923113088E+03  0.95923113088E+03  0.00000000000E+00 0. -1.
         25    2    1    2    0    0 -0.79714669804E+02 -0.96093385031E+01  0.35558785957E+02  0.15276298753E+03  0.12500134052E+03 0.  0.
          2    1    1    2  501    0  0.26211600980E+02  0.28884803831E+02 -0.89954755727E+03  0.90039279635E+03  0.00000000000E+00 0. -1.
          1    1    1    2  502    0  0.53503068825E+02 -0.19275465328E+02  0.12265194989E+04  0.12278372055E+04  0.00000000000E+00 0. -1.
         22    1    3    3    0    0 -0.27525853991E+02  0.51712528304E+02 -0.11206905040E+02  0.59644387348E+02  0.00000000000E+00 0. -1.
         22    1    3    3    0    0 -0.52188815813E+02 -0.61321866808E+02  0.46765690997E+02  0.93118600179E+02  0.00000000000E+00 0. -1.
</event>
<event>
 7    1  0.5736319E-006  0.5394845E+02  0.7818608E-02  0.1437137E+00
          2   -1    0    0  502    0  0.00000000000E+00  0.00000000000E+00  0.21284714618E+03  0.21284714618E+03  0.00000000000E+00 0. -1.
          1   -1    0    0  501    0 -0.00000000000E+00 -0.00000000000E+00 -0.12808647836E+04  0.12808647836E+04  0.00000000000E+00 0. -1.
         25    2    1    2    0    0 -0.56757974822E+01  0.30088203947E+01  0.11517062043E+03  0.17008634933E+03  0.12499530687E+03 0.  0.
          2    1    1    2  501    0  0.53276764267E+02  0.96876045476E+01 -0.12441038289E+04  0.12452817354E+04  0.00000000000E+00 0. -1.
          1    1    1    2  502    0 -0.47600966785E+02 -0.12696424942E+02  0.60915571132E+02  0.78343845014E+02  0.00000000000E+00 0. -1.
         22    1    3    3    0    0  0.95501929944E+01 -0.59766109649E+02  0.53540687447E+02  0.80807173328E+02  0.00000000000E+00 0. -1.
         22    1    3    3    0    0 -0.15225990477E+02  0.62774930044E+02  0.61629932987E+02  0.89279176004E+02  0.00000000000E+00 0. -1.
</event>
<event>
 7    1  0.5736319E-006  0.5936696E+02  0.7818608E-02  0.1539157E+00
          2   -1    0    0  502    0  0.00000000000E+00  0.00000000000E+00  0.95436721003E+02  0.95436721003E+02  0.00000000000E+00 0. -1.
          1   -1    0    0  501    0 -0.00000000000E+00 -0.00000000000E+00 -0.46863512527E+03  0.46863512527E+03  0.00000000000E+00 0. -1.
         25    2    1    2    0    0 -0.67981428035E+02 -0.14805916864E+02 -0.13386358137E+03  0.19592011942E+03  0.12499818017E+03 0.  0.
          2    1    1    2  501    0  0.16812824546E+02 -0.14088953988E+02 -0.28983874680E+03  0.29066762607E+03  0.00000000000E+00 0. -1.
          1    1    1    2  502    0  0.51168603489E+02  0.28894870852E+02  0.50503923906E+02  0.77484100785E+02  0.00000000000E+00 0. -1.
         22    1    3    3    0    0  0.66863862410E+01 -0.45582726458E+02 -0.96501307395E+02  0.10693453624E+03  0.00000000000E+00 0.  1.
         22    1    3    3    0    0 -0.74667814276E+02  0.30776809594E+02 -0.37362273975E+02  0.88985583182E+02  0.00000000000E+00 0.  1.
</event>
<event>
 7    1  0.5736319E-006  0.2965424E+02  0.7818608E-02  0.1639020E+00
          2   -1    0    0  502    0  0.00000000000E+00  0.00000000000E+00  0.32781870843E+02  0.32781870843E+02  0.00000000000E+00 0. -1.
          1   -1    0    0  501    0 -0.00000000000E+00 -0.00000000000E+00 -0.49091192907E+03  0.49091192907E+03  0.00000000000E+00 0. -1.
         25    2    1    2    0    0 -0.72294889737E+01 -0.18651538809E+01 -0.38555680999E+03  0.40538344635E+03  0.12500376207E+03 0.  0.
          2    1    1    2  501    0 -0.22348978446E+02  0.83606207909E+01 -0.82938121171E+02  0.86302426159E+02  0.00000000000E+00 0. -1.
          1    1    1    2  502    0  0.29578467420E+02 -0.64954669100E+01  0.10364872941E+02  0.32007927399E+02  0.00000000000E+00 0. -1.
         22    1    3    3    0    0  0.50681973404E+02  0.21235021894E+02 -0.25295694398E+03  0.25885672503E+03  0.00000000000E+00 0.  1.
         22    1    3    3    0    0 -0.57911462378E+02 -0.23100175775E+02 -0.13259986601E+03  0.14652672132E+03  0.00000000000E+00 0.  1.
</event>
<event>
 7    1  0.5736319E-006  0.2965025E+02  0.7818608E-02  0.1635902E+00
          2   -1    0    0  502    0  0.00000000000E+00  0.00000000000E+00  0.54702788602E+03  0.54702788602E+03  0.00000000000E+00 0. -1.
          1   -1    0    0  501    0 -0.00000000000E+00 -0.00000000000E+00 -0.32406544141E+02  0.32406544141E+02  0.00000000000E+00 0. -1.
         25    2    1    2    0    0  0.67651266956E+01 -0.67388581475E+00  0.26780801378E+03  0.29561560415E+03  0.12498492752E+03 0.  0.
          2    1    1    2  501    0 -0.28433259665E+02  0.11663116358E+02 -0.47393127200E+01  0.31095652806E+02  0.00000000000E+00 0. -1.
          1    1    1    2  502    0  0.21668132969E+02 -0.10989230543E+02  0.25155264082E+03  0.25272317321E+03  0.00000000000E+00 0. -1.
         22    1    3    3    0    0 -0.11464878038E+02  0.54672254340E+02  0.70877173962E+02  0.90244515688E+02  0.00000000000E+00 0.  1.
         22    1    3    3    0    0  0.18230004733E+02 -0.55346140154E+02  0.19693083982E+03  0.20537108846E+03  0.00000000000E+00 0.  1.
</event>
<event>
 7    1  0.5736319E-006  0.4728680E+02  0.7818608E-02  0.1544148E+00
          2   -1    0    0  502    0  0.00000000000E+00  0.00000000000E+00  0.73798965795E+02  0.73798965795E+02  0.00000000000E+00 0. -1.
          1   -1    0    0  501    0 -0.00000000000E+00 -0.00000000000E+00 -0.20972273608E+04  0.20972273608E+04  0.00000000000E+00 0. -1.
         25    2    1    2    0    0  0.17525294199E+02  0.18947275798E+02 -0.20674481891E+03  0.24297062519E+03  0.12500067744E+03 0.  0.
          2    1    1    2  501    0  0.26648946773E+02  0.80084214754E+00 -0.18617447572E+04  0.18619356456E+04  0.00000000000E+00 0. -1.
          1    1    1    2  502    0 -0.44174240971E+02 -0.19748117945E+02  0.45061181098E+02  0.66120055730E+02  0.00000000000E+00 0. -1.
         22    1    3    3    0    0 -0.10095709616E+02  0.43854827059E+02 -0.20021346909E+03  0.20520868016E+03  0.00000000000E+00 0.  1.
         22    1    3    3    0    0  0.27621003815E+02 -0.24907551262E+02 -0.65313498207E+01  0.37761945025E+02  0.00000000000E+00 0.  1.
</event>
<event>
 7    1  0.5736319E-006  0.1799119E+03  0.7818608E-02  0.1269711E+00
          2   -1    0    0  502    0  0.00000000000E+00  0.00000000000E+00  0.12390222139E+04  0.12390222139E+04  0.00000000000E+00 0. -1.
          1   -1    0    0  501    0 -0.00000000000E+00 -0.00000000000E+00 -0.60419194696E+03  0.60419194696E+03  0.00000000000E+00 0. -1.
         25    2    1    2    0    0  0.21948590411E+03 -0.56382422703E+02  0.48799370966E+03  0.55237304253E+03  0.12500031102E+03 0.  0.
          2    1    1    2  501    0 -0.56616222797E+02  0.24075849236E+02 -0.56070875163E+03  0.56407388466E+03  0.00000000000E+00 0. -1.
          1    1    1    2  502    0 -0.16286968131E+03  0.32306573467E+02  0.70754530894E+03  0.72676723370E+03  0.00000000000E+00 0. -1.
         22    1    3    3    0    0  0.50930617914E+02  0.25607397943E+02  0.20619461044E+03  0.21392962405E+03  0.00000000000E+00 0.  1.
         22    1    3    3    0    0  0.16855528620E+03 -0.81989820646E+02  0.28179909922E+03  0.33844341848E+03  0.00000000000E+00 0.  1.
</event>
<event>
 7    1  0.5736319E-006  0.5276864E+02  0.7818608E-02  0.1526133E+00
          2   -1    0    0  502    0  0.00000000000E+00  0.00000000000E+00  0.14793256814E+04  0.14793256814E+04  0.00000000000E+00 0. -1.
          1   -1    0    0  501    0 -0.00000000000E+00 -0.00000000000E+00 -0.52158370328E+02  0.52158370328E+02  0.00000000000E+00 0. -1.
         25    2    1    2    0    0  0.61541116945E+02 -0.32209531607E+02  0.61811160342E+03  0.63443770735E+03  0.12499794887E+03 0.  0.
          2    1    1    2  501    0 -0.26339727300E+02 -0.53840321394E+01 -0.39032837040E+02  0.47395478726E+02  0.00000000000E+00 0. -1.
          1    1    1    2  502    0 -0.35201389645E+02  0.37593563746E+02  0.84808854466E+03  0.84965086563E+03  0.00000000000E+00 0. -1.
         22    1    3    3    0    0  0.47541708878E+02  0.43797196245E+02  0.32060530890E+03  0.32705683387E+03  0.00000000000E+00 0. -1.
         22    1    3    3    0    0  0.13999408066E+02 -0.76006727852E+02  0.29750629452E+03  0.30738087349E+03  0.00000000000E+00 0. -1.
</event>
<event>
 7    1  0.5736319E-006  0.1198930E+03  0.7818608E-02  0.1332465E+00
          2   -1    0    0  502    0  0.00000000000E+00  0.00000000000E+00  0.18077096525E+04  0.18077096525E+04  0.00000000000E+00 0. -1.
          1   -1    0    0  501    0 -0.00000000000E+00 -0.00000000000E+00 -0.22034923071E+02  0.22034923071E+02  0.00000000000E+00 0. -1.
         25    2    1    2    0    0  0.34327104427E+02 -0.79943821488E+02  0.52078577603E+03  0.54259767888E+03  0.12500020766E+03 0.  0.
          2    1    1    2  501    0 -0.13473441059E+02 -0.50020823237E+02  0.82242122762E+02  0.97197649805E+02  0.00000000000E+00 0. -1.
          1    1    1    2  502    0 -0.20853663367E+02  0.12996464473E+03  0.11826468306E+04  0.11899492469E+04  0.00000000000E+00 0. -1.
         22    1    3    3    0    0  0.22807982082E+02 -0.39516616922E+02  0.48571346179E+03  0.48785175414E+03  0.00000000000E+00 0. -1.
         22    1    3    3    0    0  0.11519122344E+02 -0.40427204566E+02  0.35072314241E+02  0.54745924732E+02  0.00000000000E+00 0. -1.
</event>
<event>
 7    1  0.5736319E-006  0.1016821E+03  0.7818608E-02  0.1449618E+00
          2   -1    0    0  502    0  0.00000000000E+00  0.00000000000E+00  0.35194375117E+04  0.35194375117E+04  0.00000000000E+00 0. -1.
          1   -1    0    0  501    0 -0.00000000000E+00 -0.00000000000E+00 -0.12527587518E+02  0.12527587518E+02  0.00000000000E+00 0. -1.
         25    2    1    2    0    0 -0.77712299788E+02  0.50497857835E+02  0.58734336243E+03  0.60760691469E+03  0.12499880881E+03 0.  0.
          2    1    1    2  501    0  0.60222266402E+01  0.23047364366E+02  0.95549909651E+02  0.98474531999E+02  0.00000000000E+00 0. -1.
          1    1    1    2  502    0  0.71690073148E+02 -0.73545222201E+02  0.28240166521E+04  0.28258836525E+04  0.00000000000E+00 0. -1.
         22    1    3    3    0    0 -0.79281573118E+02  0.61321940892E+02  0.58816017941E+03  0.59663920833E+03  0.00000000000E+00 0. -1.
         22    1    3    3    0    0  0.15692733297E+01 -0.10824083057E+02 -0.81681698145E+00  0.10967706359E+02  0.00000000000E+00 0. -1.
</event>
<event>
 7    1  0.5736319E-006  0.3694011E+02  0.7818608E-02  0.1557186E+00
          2   -1    0    0  502    0  0.00000000000E+00  0.00000000000E+00  0.16956334375E+03  0.16956334375E+03  0.00000000000E+00 0. -1.
          1   -1    0    0  501    0 -0.00000000000E+00 -0.00000000000E+00 -0.26286342878E+04  0.26286342878E+04  0.00000000000E+00 0. -1.
         25    2    1    2    0    0 -0.45392656070E+01 -0.56063499181E+02 -0.36811959108E+03  0.39281093201E+03  0.12499869637E+03 0.  0.
          2    1    1    2  501    0 -0.17186724271E+02  0.26265974109E+02 -0.22458953805E+04  0.22461147221E+04  0.00000000000E+00 0. -1.
          1    1    1    2  502    0  0.21725989878E+02  0.29797525071E+02  0.15494402750E+03  0.15927197743E+03  0.00000000000E+00 0. -1.
         22    1    3    3    0    0  0.31284215633E+02 -0.13568074201E+02 -0.18488098386E+02  0.38789232620E+02  0.00000000000E+00 0. -1.
         22    1    3    3    0    0 -0.35823481240E+02 -0.42495424980E+02 -0.34963149270E+03  0.35402169939E+03  0.00000000000E+00 0. -1.
</event>
<event>
 7    1  0.5736319E-006  0.1011625E+03  0.7818608E-02  0.1303041E+00
          2   -1    0    0  502    0  0.00000000000E+00  0.00000000000E+00  0.22717090772E+04  0.22717090772E+04  0.00000000000E+00 0. -1.
          1   -1    0    0  501    0 -0.00000000000E+00 -0.00000000000E+00 -0.11278840249E+03  0.11278840249E+03  0.00000000000E+00 0. -1.
         25    2    1    2    0    0 -0.72742669937E+02  0.15712069915E+03  0.68119794713E+03  0.71388626730E+03  0.12499819734E+03 0.  0.
          2    1    1    2  501    0  0.22234794652E+02 -0.76774967380E+02 -0.78185584852E+02  0.11181130260E+03  0.00000000000E+00 0. -1.
          1    1    1    2  502    0  0.50507875285E+02 -0.80345731772E+02  0.15559083124E+04  0.15587999098E+04  0.00000000000E+00 0. -1.
         22    1    3    3    0    0 -0.31190869098E+02  0.15923878433E+03  0.61197716201E+03  0.63312392750E+03  0.00000000000E+00 0.  1.
         22    1    3    3    0    0 -0.41551800839E+02 -0.21180851799E+01  0.69220785111E+02  0.80762339795E+02  0.00000000000E+00 0.  1.
</event>
<event>
 7    1  0.5736319E-006  0.1120364E+03  0.7818608E-02  0.1277718E+00
          2   -1    0    0  502    0  0.00000000000E+00  0.00000000000E+00  0.49409279050E+03  0.49409279050E+03  0.00000000000E+00 0. -1.
          1   -1    0    0  501    0 -0.00000000000E+00 -0.00000000000E+00 -0.30596095206E+03  0.30596095206E+03  0.00000000000E+00 0. -1.
         25    2    1    2    0    0  0.11701511044E+03 -0.96554041505E+02 -0.15617860481E+03  0.25106153841E+03  0.12499968185E+03 0.  0.
          2    1    1    2  501    0 -0.54863658433E+01  0.91312113251E+02 -0.72980762810E+02  0.11702219438E+03  0.00000000000E+00 0. -1.
          1    1    1    2  502    0 -0.11152874460E+03  0.52419282548E+01  0.41729120607E+03  0.43197000978E+03  0.00000000000E+00 0. -1.
         22    1    3    3    0    0  0.62797501659E+02 -0.79141748522E+02 -0.16496412590E+03  0.19344277037E+03  0.00000000000E+00 0.  1.
         22    1    3    3    0    0  0.54217608783E+02 -0.17412292984E+02  0.87855210902E+01  0.57618768036E+02  0.00000000000E+00 0.  1.
</event>
<event>
 7    1  0.5736319E-006  0.7808289E+02  0.7818608E-02  0.1360007E+00
          2   -1    0    0  502    0  0.00000000000E+00  0.00000000000E+00  0.12226636687E+04  0.12226636687E+04  0.00000000000E+00 0. -1.
          1   -1    0    0  501    0 -0.00000000000E+00 -0.00000000000E+00 -0.22928112003E+04  0.22928112003E+04  0.00000000000E+00 0. -1.
         25    2    1    2    0    0  0.27432077641E+02 -0.51963824712E+02 -0.11502485099E+03  0.17970489981E+03  0.12494149314E+03 0.  0.
          2    1    1    2  501    0 -0.59677517750E+02 -0.19553133744E+02 -0.21436934027E+04  0.21446130504E+04  0.00000000000E+00 0. -1.
          1    1    1    2  502    0  0.32245440109E+02  0.71516958457E+02  0.11885707221E+04  0.11911569188E+04  0.00000000000E+00 0. -1.
         22    1    3    3    0    0 -0.25716257809E+02 -0.83835400254E-01 -0.10086987537E+03  0.10409642021E+03  0.00000000000E+00 0. -1.
         22    1    3    3    0    0  0.53148335450E+02 -0.51879989312E+02 -0.14154975624E+02  0.75608479598E+02  0.00000000000E+00 0. -1.
</event>
<event>
 7    1  0.5736319E-006  0.1726490E+03  0.7818608E-02  0.1269749E+00
          2   -1    0    0  502    0  0.00000000000E+00  0.00000000000E+00  0.32090469726E+03  0.32090469726E+03  0.00000000000E+00 0. -1.
          1   -1    0    0  501    0 -0.00000000000E+00 -0.00000000000E+00 -0.93895477179E+03  0.93895477179E+03  0.00000000000E+00 0. -1.
         25    2    1    2    0    0  0.65111371892E+02  0.10429611434E+03  0.32775255487E+01  0.17536335889E+03  0.12499758099E+03 0.  0.
          2    1    1    2  501    0 -0.12511187843E+03 -0.12681572215E+03 -0.83893877226E+03  0.85764414130E+03  0.00000000000E+00 0. -1.
          1    1    1    2  502    0  0.60000506535E+02  0.22519607811E+02  0.21761117217E+03  0.22685196886E+03  0.00000000000E+00 0. -1.
         22    1    3    3    0    0  0.89221698379E+02  0.32722047746E+02  0.22011549399E+02  0.97548716943E+02  0.00000000000E+00 0. -1.
         22    1    3    3    0    0 -0.24110326487E+02  0.71574066595E+02 -0.18734023850E+02  0.77814641951E+02  0.00000000000E+00 0. -1.
</event>
<event>
 7    1  0.5736319E-006  0.1665527E+03  0.7818608E-02  0.1245263E+00
          2   -1    0    0  502    0  0.00000000000E+00  0.00000000000E+00  0.10315890950E+04  0.10315890950E+04  0.00000000000E+00 0. -1.
          1   -1    0    0  501    0 -0.00000000000E+00 -0.00000000000E+00 -0.16248588416E+03  0.16248588416E+03  0.00000000000E+00 0. -1.
         25    2    1    2    0    0  0.54807587193E+02 -0.12291211585E+03  0.21554677073E+03  0.28319018274E+03  0.12500003758E+03 0.  0.
          2    1    1    2  501    0  0.98374566331E+01  0.17747022681E+03 -0.63583450428E+02  0.18877317639E+03  0.00000000000E+00 0. -1.
          1    1    1    2  502    0 -0.64645043826E+02 -0.54558110964E+02  0.71713989053E+03  0.72211162001E+03  0.00000000000E+00 0. -1.
         22    1    3    3    0    0  0.82391298075E+02 -0.32150671709E+02  0.95014378681E+02  0.12980648615E+03  0.00000000000E+00 0.  1.
         22    1    3    3    0    0 -0.27583710883E+02 -0.90761444136E+02  0.12053239205E+03  0.15338369660E+03  0.00000000000E+00 0.  1.
</event>
<event>
 7    1  0.5736319E-006  0.7370463E+02  0.7818608E-02  0.1507709E+00
          2   -1    0    0  502    0  0.00000000000E+00  0.00000000000E+00  0.65291697044E+03  0.65291697044E+03  0.00000000000E+00 0. -1.
          1   -1    0    0  501    0 -0.00000000000E+00 -0.00000000000E+00 -0.51385357645E+03  0.51385357645E+03  0.00000000000E+00 0. -1.
         25    2    1    2    0    0  0.65526485114E+02  0.57394358846E+02 -0.25080885253E+03  0.29345387289E+03  0.12498904884E+03 0.  0.
          2    1    1    2  501    0 -0.21711209846E+02  0.17605609442E+01 -0.23908040821E+03  0.24007065168E+03  0.00000000000E+00 0. -1.
          1    1    1    2  502    0 -0.43815275268E+02 -0.59154919790E+02  0.62895265473E+03  0.63324602232E+03  0.00000000000E+00 0. -1.
         22    1    3    3    0    0 -0.22445153864E+02  0.34934562984E+02 -0.15899972722E+03  0.16433235190E+03  0.00000000000E+00 0.  1.
         22    1    3    3    0    0  0.87971638978E+02  0.22459795862E+02 -0.91809125309E+02  0.12912152100E+03  0.00000000000E+00 0.  1.
</event>
<event>
 7    1  0.5736319E-006  0.2191940E+03  0.7818608E-02  0.1318730E+00
          2   -1    0    0  502    0  0.00000000000E+00  0.00000000000E+00  0.16648581506E+04  0.16648581506E+04  0.00000000000E+00 0. -1.
          1   -1    0    0  501    0 -0.00000000000E+00 -0.00000000000E+00 -0.26378173117E+03  0.26378173117E+03  0.00000000000E+00 0. -1.
         25    2    1    2    0    0 -0.12234800120E+03  0.21518362668E+03  0.60561740185E+03  0.66608672983E+03  0.12500427054E+03 0.  0.
          2    1    1    2  501    0  0.11483710383E+03 -0.18407708032E+03 -0.18284088628E+03  0.28373001535E+03  0.00000000000E+00 0. -1.
          1    1    1    2  502    0  0.75108973668E+01 -0.31106546351E+02  0.97829990387E+03  0.97882313659E+03  0.00000000000E+00 0. -1.
         22    1    3    3    0    0 -0.23002379617E+02  0.89282863519E+02  0.36826750543E+03  0.37963336885E+03  0.00000000000E+00 0.  1.
         22    1    3    3    0    0 -0.99345621579E+02  0.12590076316E+03  0.23734989641E+03  0.28645336098E+03  0.00000000000E+00 0.  1.
</event>
<event>
 7    1  0.5736319E-006  0.5140972E+02  0.7818608E-02  0.1530795E+00
          2   -1    0    0  502    0  0.00000000000E+00  0.00000000000E+00  0.92316676374E+03  0.92316676374E+03  0.00000000000E+00 0. -1.
          1   -1    0    0  501    0 -0.00000000000E+00 -0.00000000000E+00 -0.28911573091E+02  0.28911573091E+02  0.00000000000E+00 0. -1.
         25    2    1    2    0    0 -0.10460999698E+02 -0.36040181003E+02  0.59568405604E+03  0.60981413535E+03  0.12500183154E+03 0.  0.
          2    1    1    2  501    0  0.37204850875E+02  0.36897957748E+02  0.11114425542E+02  0.53564826796E+02  0.00000000000E+00 0. -1.
          1    1    1    2  502    0 -0.26743851176E+02 -0.85777674457E+00  0.28745670907E+03  0.28869937469E+03  0.00000000000E+00 0. -1.
         22    1    3    3    0    0  0.23127941164E+02 -0.45354039982E+02  0.54999942032E+03  0.55235066122E+03  0.00000000000E+00 0.  1.
         22    1    3    3    0    0 -0.33588940862E+02  0.93138589790E+01  0.45684635723E+02  0.57463474125E+02  0.00000000000E+00 0.  1.
</event>
<event>
 7    1  0.5736319E-006  0.8530505E+02  0.7818608E-02  0.1450673E+00
          2   -1    0    0  502    0  0.00000000000E+00  0.00000000000E+00  0.13331529297E+03  0.13331529297E+03  0.00000000000E+00 0. -1.
          1   -1    0    0  501    0 -0.00000000000E+00 -0.00000000000E+00 -0.43150084865E+03  0.43150084865E+03  0.00000000000E+00 0. -1.
         25    2    1    2    0    0 -0.66849900597E+02 -0.30369688480E+02 -0.17433511154E+03  0.22674386717E+03  0.12501529105E+03 0.  0.
          2    1    1    2  501    0  0.89124646939E+02  0.13117368520E+02 -0.22007975019E+03  0.23780320539E+03  0.00000000000E+00 0. -1.
          1    1    1    2  502    0 -0.22274746342E+02  0.17252319960E+02  0.96229306043E+02  0.10026906906E+03  0.00000000000E+00 0. -1.
         22    1    3    3    0    0  0.39182311354E+01  0.37919375939E+02 -0.87914951033E+02  0.95824163038E+02  0.00000000000E+00 0.  1.
         22    1    3    3    0    0 -0.70768131732E+02 -0.68289064419E+02 -0.86420160505E+02  0.13091970413E+03  0.00000000000E+00 0.  1.
</event>
<event>
 7    1  0.5736319E-006  0.4720992E+02  0.7818608E-02  0.1470307E+00
          2   -1    0    0  502    0  0.00000000000E+00  0.00000000000E+00  0.93563488670E+03  0.93563488670E+03  0.00000000000E+00 0. -1.
          1   -1    0    0  501    0 -0.00000000000E+00 -0.00000000000E+00 -0.73835268404E+02  0.73835268404E+02  0.00000000000E+00 0. -1.
         25    2    1    2    0    0  0.96007405662E+01 -0.49902293742E+02  0.14103797992E+03  0.19519710901E+03  0.12501114528E+03 0.  0.
          2    1    1    2  501    0 -0.41652695272E+02  0.14629190606E+02 -0.35414541062E+02  0.56596377621E+02  0.00000000000E+00 0. -1.
          1    1    1    2  502    0  0.32051954706E+02  0.35273103135E+02  0.75617617944E+03  0.75767666848E+03  0.00000000000E+00 0. -1.
         22    1    3    3    0    0 -0.44071358086E+02 -0.54325108749E+02  0.11678664914E+03  0.13613457849E+03  0.00000000000E+00 0. -1.
         22    1    3    3    0    0  0.53672098652E+02  0.44228150073E+01  0.24251330786E+02  0.59062530518E+02  0.00000000000E+00 0. -1.
</event>
<event>
 7    1  0.5736319E-006  0.4059999E+02  0.7818608E-02  0.1564988E+00
          2   -1    0    0  502    0  0.00000000000E+00  0.00000000000E+00  0.77481311498E+03  0.77481311498E+03  0.00000000000E+00 0. -1.
          1   -1    0    0  501    0 -0.00000000000E+00 -0.00000000000E+00 -0.68950997751E+03  0.68950997751E+03  0.00000000000E+00 0. -1.
         25    2    1    2    0    0 -0.63076253790E+02 -0.53009552557E+01 -0.34345207660E+03  0.37093229324E+03  0.12499889332E+03 0.  0.
          2    1    1    2  501    0  0.36830447273E+02  0.12379372507E+02 -0.33093810811E+03  0.33321128748E+03  0.00000000000E+00 0. -1.
          1    1    1    2  502    0  0.26245806517E+02 -0.70784172509E+01  0.75969332217E+03  0.76017951176E+03  0.00000000000E+00 0. -1.
         22    1    3    3    0    0 -0.94639354142E+02  0.18805202287E+02 -0.19960794830E+03  0.22170605768E+03  0.00000000000E+00 0.  1.
         22    1    3    3    0    0  0.31563100352E+02 -0.24106157543E+02 -0.14384412830E+03  0.14922623556E+03  0.00000000000E+00 0.  1.
</event>
<event>
 7    1  0.5736319E-006  0.7443255E+02  0.7818608E-02  0.1502938E+00
          2   -1    0    0  502    0  0.00000000000E+00  0.00000000000E+00  0.10366185358E+04  0.10366185358E+04  0.00000000000E+00 0. -1.
          1   -1    0    0  501    0 -0.00000000000E+00 -0.00000000000E+00 -0.14379506090E+03  0.14379506090E+03  0.00000000000E+00 0. -1.
         25    2    1    2    0    0 -0.83946222249E+00 -0.96266911432E+02  0.49958978732E+03  0.52391135721E+03  0.12500052672E+03 0.  0.
          2    1    1    2  501    0  0.77160153364E+00  0.73984055072E+02 -0.12097721647E+03  0.14180875388E+03  0.00000000000E+00 0. -1.
          1    1    1    2  502    0  0.67860688855E-01  0.22282856360E+02  0.51421090405E+03  0.51469348562E+03  0.00000000000E+00 0. -1.
         22    1    3    3    0    0  0.38445312059E+02 -0.98444277521E+01  0.47193064484E+02  0.61661496190E+02  0.00000000000E+00 0.  1.
         22    1    3    3    0    0 -0.39284774281E+02 -0.86422483680E+02  0.45239672284E+03  0.46224986102E+03  0.00000000000E+00 0.  1.
</event>
<event>
 7    1  0.5736319E-006  0.1332835E+03  0.7818608E-02  0.1403889E+00
          2   -1    0    0  502    0  0.00000000000E+00  0.00000000000E+00  0.10480099460E+04  0.10480099460E+04  0.00000000000E+00 0. -1.
          1   -1    0    0  501    0 -0.00000000000E+00 -0.00000000000E+00 -0.12423238509E+04  0.12423238509E+04  0.00000000000E+00 0. -1.
         25    2    1    2    0    0 -0.66479498557E+02  0.14415073254E+03  0.35848415561E+03  0.41150280928E+03  0.12499885921E+03 0.  0.
          2    1    1    2  501    0  0.54409438402E+02 -0.12140843346E+03 -0.12119228195E+04  0.12192035577E+04  0.00000000000E+00 0. -1.
          1    1    1    2  502    0  0.12070060155E+02 -0.22742299079E+02  0.65912475897E+03  0.65962743000E+03  0.00000000000E+00 0. -1.
         22    1    3    3    0    0  0.35544634557E+02  0.31877208025E+02  0.59995559866E+02  0.76674928372E+02  0.00000000000E+00 0. -1.
         22    1    3    3    0    0 -0.10202413311E+03  0.11227352452E+03  0.29848859574E+03  0.33482788091E+03  0.00000000000E+00 0. -1.
</event>
<event>
 7    1  0.5736319E-006  0.6221256E+02  0.7818608E-02  0.1505513E+00
          2   -1    0    0  502    0  0.00000000000E+00  0.00000000000E+00  0.25073293550E+04  0.25073293550E+04  0.00000000000E+00 0. -1.
          1   -1    0    0  501    0 -0.00000000000E+00 -0.00000000000E+00 -0.73438926759E+02  0.73438926759E+02  0.00000000000E+00 0. -1.
         25    2    1    2    0    0 -0.61366027663E+02 -0.56055409262E+02  0.11469969344E+04  0.11567775402E+04  0.12499724709E+03 0.  0.
          2    1    1    2  501    0  0.35736539795E+02  0.50641363688E+02 -0.54383883712E+02  0.82457593952E+02  0.00000000000E+00 0. -1.
          1    1    1    2  502    0  0.25629487868E+02  0.54140455735E+01  0.13412773776E+04  0.13415331476E+04  0.00000000000E+00 0. -1.
         22    1    3    3    0    0 -0.73336523547E+02 -0.53363538947E+02  0.11378870588E+04  0.11414958921E+04  0.00000000000E+00 0. -1.
         22    1    3    3    0    0  0.11970495884E+02 -0.26918703150E+01  0.91098756021E+01  0.15281648177E+02  0.00000000000E+00 0. -1.
</event>
<event>
 7    1  0.5736319E-006  0.1072229E+03  0.7818608E-02  0.1315442E+00
          2   -1    0    0  502    0  0.00000000000E+00  0.00000000000E+00  0.10044326281E+04  0.10044326281E+04  0.00000000000E+00 0. -1.
          1   -1    0    0  501    0 -0.00000000000E+00 -0.00000000000E+00 -0.71451603815E+03  0.71451603815E+03  0.00000000000E+00 0. -1.
         25    2    1    2    0    0  0.14811821189E+03  0.23182069404E+02  0.83627842164E+02  0.21235715266E+03  0.12500212504E+03 0.  0.
          2    1    1    2  501    0 -0.45792961937E+02 -0.49423294250E+02 -0.64513287680E+03  0.64864172399E+03  0.00000000000E+00 0. -1.
          1    1    1    2  502    0 -0.10232524995E+03  0.26241224847E+02  0.85142162462E+03  0.85794978963E+03  0.00000000000E+00 0. -1.
         22    1    3    3    0    0  0.16934707204E+03  0.13100005511E+02  0.63236850372E+02  0.18124276592E+03  0.00000000000E+00 0.  1.
         22    1    3    3    0    0 -0.21228860153E+02  0.10082063893E+02  0.20390991791E+02  0.31114386737E+02  0.00000000000E+00 0.  1.
</event>
<event>
 7    1  0.5736319E-006  0.4732091E+02  0.7818608E-02  0.1534298E+00
          2   -1    0    0  502    0  0.00000000000E+00  0.00000000000E+00  0.12957828848E+03  0.12957828848E+03  0.00000000000E+00 0. -1.
          1   -1    0    0  501    0 -0.00000000000E+00 -0.00000000000E+00 -0.47832804379E+03  0.47832804379E+03  0.00000000000E+00 0. -1.
         25    2    1    2    0    0  0.12338109370E+02 -0.59447657226E+02 -0.24536940568E+02  0.14111707319E+03  0.12500285597E+03 0.  0.
          2    1    1    2  501    0 -0.24468929249E+02  0.14431729287E+02 -0.38730224491E+03  0.38834267370E+03  0.00000000000E+00 0. -1.
          1    1    1    2  502    0  0.12130819880E+02  0.45015927939E+02  0.63089430157E+02  0.78446585374E+02  0.00000000000E+00 0. -1.
         22    1    3    3    0    0  0.41347599705E+02 -0.18570374987E+02 -0.63228114862E+02  0.77796383833E+02  0.00000000000E+00 0.  1.
         22    1    3    3    0    0 -0.29009490335E+02 -0.40877282239E+02  0.38691174294E+02  0.63320689360E+02  0.00000000000E+00 0.  1.
</event>
<event>
 7    1  0.5736319E-006  0.1237445E+03  0.7818608E-02  0.1287046E+00
          2   -1    0    0  502    0  0.00000000000E+00  0.00000000000E+00  0.10752338607E+04  0.10752338607E+04  0.00000000000E+00 0. -1.
          1   -1    0    0  501    0 -0.00000000000E+00 -0.00000000000E+00 -0.10391658121E+03  0.10391658121E+03  0.00000000000E+00 0. -1.
         25    2    1    2    0    0 -0.12009811276E+03  0.14241395570E+03  0.23766393309E+03  0.32682576189E+03  0.12500256828E+03 0.  0.
          2    1    1    2  501    0  0.63384124726E+02 -0.92104196049E+02 -0.29349660388E+01  0.11184517970E+03  0.00000000000E+00 0. -1.
          1    1    1    2  502    0  0.56713988039E+02 -0.50309759652E+02  0.73658831246E+03  0.74047950033E+03  0.00000000000E+00 0. -1.
         22    1    3    3    0    0 -0.62451199276E+02 -0.17455434479E+01  0.35280536694E+02  0.71748975480E+02  0.00000000000E+00 0. -1.
         22    1    3    3    0    0 -0.57646913488E+02  0.14415949915E+03  0.20238339640E+03  0.25507678641E+03  0.00000000000E+00 0. -1.
</event>
<event>
 7    1  0.5736319E-006  0.6771576E+02  0.7818608E-02  0.1395611E+00
          2   -1    0    0  502    0  0.00000000000E+00  0.00000000000E+00  0.54464671320E+04  0.54464671320E+04  0.00000000000E+00 0. -1.
          1   -1    0    0  501    0 -0.00000000000E+00 -0.00000000000E+00 -0.90966156191E+02  0.90966156191E+02  0.00000000000E+00 0. -1.
         25    2    1    2    0    0  0.92104599528E+02  0.71153125083E+02  0.41950004886E+04  0.41984758163E+04  0.12499622549E+03 0.  0.
          2    1    1    2  501    0 -0.62411552754E+02 -0.25916774484E+02 -0.75755761488E+02  0.10151756752E+03  0.00000000000E+00 0. -1.
          1    1    1    2  502    0 -0.29693046774E+02 -0.45236350599E+02  0.12362562487E+04  0.12374399043E+04  0.00000000000E+00 0. -1.
         22    1    3    3    0    0  0.57033937103E+02  0.93811712120E+02  0.19507907006E+04  0.19538776484E+04  0.00000000000E+00 0. -1.
         22    1    3    3    0    0  0.35070662425E+02 -0.22658587037E+02  0.22442097880E+04  0.22445981680E+04  0.00000000000E+00 0. -1.
</event>
<event>
 7    1  0.5736319E-006  0.3454933E+02  0.7818608E-02  0.1606679E+00
          2   -1    0    0  502    0  0.00000000000E+00  0.00000000000E+00  0.16101434253E+04  0.16101434253E+04  0.00000000000E+00 0. -1.
          1   -1    0    0  501    0 -0.00000000000E+00 -0.00000000000E+00 -0.59359805892E+02  0.59359805892E+02  0.00000000000E+00 0. -1.
         25    2    1    2    0    0  0.10476135378E+02 -0.85047043719E+01  0.10215291496E+04  0.10292373309E+04  0.12500240122E+03 0.  0.
          2    1    1    2  501    0  0.22491732610E+02 -0.10308287957E+02 -0.52098592475E+02  0.57674970085E+02  0.00000000000E+00 0. -1.
          1    1    1    2  502    0 -0.32967867988E+02  0.18812992329E+02  0.58135306224E+03  0.58259093022E+03  0.00000000000E+00 0. -1.
         22    1    3    3    0    0  0.19719158680E+02 -0.98033960846E+01  0.10194332740E+04  0.10196710999E+04  0.00000000000E+00 0.  1.
         22    1    3    3    0    0 -0.92430233027E+01  0.12986917127E+01  0.20958755761E+01  0.95662309386E+01  0.00000000000E+00 0.  1.
</event>
<event>
 7    1  0.5736319E-006  0.9667156E+02  0.7818608E-02  0.1334936E+00
          2   -1    0    0  502    0  0.00000000000E+00  0.00000000000E+00  0.12812981035E+03  0.12812981035E+03  0.00000000000E+00 0. -1.
          1   -1    0    0  501    0 -0.00000000000E+00 -0.00000000000E+00 -0.60375373073E+03  0.60375373073E+03  0.00000000000E+00 0. -1.
         25    2    1    2    0    0 -0.26544716333E+02 -0.11195252663E+03 -0.40036430932E+03  0.43491909699E+03  0.12500020228E+03 0.  0.
          2    1    1    2  501    0 -0.43507434178E+02  0.45389468346E+02 -0.15780882594E+03  0.16987267647E+03  0.00000000000E+00 0. -1.
          1    1    1    2  502    0  0.70052150511E+02  0.66563058282E+02  0.82549214878E+02  0.12709176762E+03  0.00000000000E+00 0. -1.
         22    1    3    3    0    0 -0.40238854862E+02 -0.11908620543E+03 -0.21603059028E+03  0.24993980415E+03  0.00000000000E+00 0.  1.
         22    1    3    3    0    0  0.13694138529E+02  0.71336788044E+01 -0.18433371904E+03  0.18497929284E+03  0.00000000000E+00 0.  1.
</event>
<event>
 7    1  0.5736319E-006  0.4500596E+02  0.7818608E-02  0.1557278E+00
          2   -1    0    0  502    0  0.00000000000E+00  0.00000000000E+00  0.56396234501E+03  0.56396234501E+03  0.00000000000E+00 0. -1.
          1   -1    0    0  501    0 -0.00000000000E+00 -0.00000000000E+00 -0.34103872861E+03  0.34103872861E+03  0.00000000000E+00 0. -1.
         25    2    1    2    0    0  0.30967304070E+01  0.22809384383E+02  0.36391377407E+02  0.13219514540E+03  0.12498546460E+03 0.  0.
          2    1    1    2  501    0 -0.22811645068E+02 -0.39372008840E+02 -0.29102208879E+03  0.29455794404E+03  0.00000000000E+00 0. -1.
          1    1    1    2  502    0  0.19714914661E+02  0.16562624458E+02  0.47755432778E+03  0.47824798418E+03  0.00000000000E+00 0. -1.
         22    1    3    3    0    0  0.34745397286E+02 -0.10060488021E+02 -0.33120338360E+02  0.49045008562E+02  0.00000000000E+00 0. -1.
         22    1    3    3    0    0 -0.31648666879E+02  0.32869872404E+02  0.69511715767E+02  0.83150136836E+02  0.00000000000E+00 0. -1.
</event>
<event>
 7    1  0.5736319E-006  0.4603588E+02  0.7818608E-02  0.1513852E+00
          2   -1    0    0  502    0  0.00000000000E+00  0.00000000000E+00  0.69691526056E+03  0.69691526056E+03  0.00000000000E+00 0. -1.
          1   -1    0    0  501    0 -0.00000000000E+00 -0.00000000000E+00 -0.50747820499E+02  0.50747820499E+02  0.00000000000E+00 0. -1.
         25    2    1    2    0    0 -0.20986064499E+02  0.74595156325E+02  0.24170621846E+03  0.28293186480E+03  0.12499476719E+03 0.  0.
          2    1    1    2  501    0  0.11001773258E+02 -0.42666137324E+02 -0.12993913541E+02  0.45937784863E+02  0.00000000000E+00 0. -1.
          1    1    1    2  502    0  0.99842912417E+01 -0.31929019001E+02  0.41745513514E+03  0.41879343139E+03  0.00000000000E+00 0. -1.
         22    1    3    3    0    0  0.19823927320E+02  0.47503817665E+02  0.22555531421E+03  0.23135427499E+03  0.00000000000E+00 0. -1.
         22    1    3    3    0    0 -0.40809991819E+02  0.27091338660E+02  0.16150904252E+02  0.51577589812E+02  0.00000000000E+00 0. -1.
</event>
<event>
 7    1  0.5736319E-006  0.7121217E+02  0.7818608E-02  0.1374636E+00
          2   -1    0    0  502    0  0.00000000000E+00  0.00000000000E+00  0.20662597519E+04  0.20662597519E+04  0.00000000000E+00 0. -1.
          1   -1    0    0  501    0 -0.00000000000E+00 -0.00000000000E+00 -0.47575948430E+03  0.47575948430E+03  0.00000000000E+00 0. -1.
         25    2    1    2    0    0  0.99550268157E+02  0.24757993979E+02 -0.40676584062E+02  0.16674211892E+03  0.12500054229E+03 0.  0.
          2    1    1    2  501    0 -0.33428430649E+02 -0.50994722585E+02 -0.36891528409E+03  0.37392032379E+03  0.00000000000E+00 0. -1.
          1    1    1    2  502    0 -0.66121837508E+02  0.26236728607E+02  0.20000921358E+04  0.20013567935E+04  0.00000000000E+00 0. -1.
         22    1    3    3    0    0  0.43111137377E+02  0.54530231727E+02 -0.68078052901E+02  0.97297161444E+02  0.00000000000E+00 0.  1.
         22    1    3    3    0    0  0.56439130780E+02 -0.29772237748E+02  0.27401468840E+02  0.69444957472E+02  0.00000000000E+00 0.  1.
</event>
<event>
 7    1  0.5736319E-006  0.1585451E+03  0.7818608E-02  0.1335751E+00
          2   -1    0    0  502    0  0.00000000000E+00  0.00000000000E+00  0.16404173646E+04  0.16404173646E+04  0.00000000000E+00 0. -1.
          1   -1    0    0  501    0 -0.00000000000E+00 -0.00000000000E+00 -0.28722315306E+04  0.28722315306E+04  0.00000000000E+00 0. -1.
         25    2    1    2    0    0 -0.86920648746E+02  0.15186215780E+03 -0.16693012774E+03  0.27222728152E+03  0.12499884443E+03 0.  0.
          2    1    1    2  501    0  0.48891335989E+02 -0.15021083047E+03 -0.26500723773E+04  0.26547763110E+04  0.00000000000E+00 0. -1.
          1    1    1    2  502    0  0.38029312757E+02 -0.16513273250E+01  0.15851883391E+04  0.15856453027E+04  0.00000000000E+00 0. -1.
         22    1    3    3    0    0 -0.69571990702E+02  0.15617779733E+03 -0.18136561604E+03  0.24924937903E+03  0.00000000000E+00 0.  1.
         22    1    3    3    0    0 -0.17348658044E+02 -0.43156395270E+01  0.14435488298E+02  0.22977902490E+02  0.00000000000E+00 0.  1.
</event>
<event>
 7    1  0.5736319E-006  0.3803796E+02  0.7818608E-02  0.1547419E+00
          2   -1    0    0  502    0  0.00000000000E+00  0.00000000000E+00  0.78399007687E+03  0.78399007687E+03  0.00000000000E+00 0. -1.
          1   -1    0    0  501    0 -0.00000000000E+00 -0.00000000000E+00 -0.82262414481E+03  0.82262414481E+03  0.00000000000E+00 0. -1.
         25    2    1    2    0    0  0.48074776942E+01  0.15378566176E+02  0.23491162102E+03  0.26658591041E+03  0.12499986319E+03 0.  0.
          2    1    1    2  501    0 -0.36788227603E+02 -0.98756694425E+01 -0.80584301244E+03  0.80674274911E+03  0.00000000000E+00 0. -1.
          1    1    1    2  502    0  0.31980749908E+02 -0.55028967332E+01  0.53229732348E+03  0.53328556217E+03  0.00000000000E+00 0. -1.
         22    1    3    3    0    0  0.33703863392E+02 -0.41407401370E+02  0.59404984016E+02  0.79871618374E+02  0.00000000000E+00 0.  1.
         22    1    3    3    0    0 -0.28896385698E+02  0.56785967546E+02  0.17550663700E+03  0.18671429203E+03  0.00000000000E+00 0.  1.
</event>
<event>
 7    1  0.5736319E-006  0.1950197E+03  0.7818608E-02  0.1228944E+00
          2   -1    0    0  502    0  0.00000000000E+00  0.00000000000E+00  0.11103840517E+04  0.11103840517E+04  0.00000000000E+00 0. -1.
          1   -1    0    0  501    0 -0.00000000000E+00 -0.00000000000E+00 -0.31498657348E+03  0.31498657348E+03  0.00000000000E+00 0. -1.
         25    2    1    2    0    0 -0.23739593512E+03  0.99418586213E+02  0.51874869686E+03  0.59242355908E+03  0.12499831021E+03 0.  0.
          2    1    1    2  501    0  0.79977150466E+02 -0.29752972158E+02 -0.25774891677E+03  0.27150706813E+03  0.00000000000E+00 0. -1.
          1    1    1    2  502    0  0.15741878466E+03 -0.69665614055E+02  0.53439769811E+03  0.56143999794E+03  0.00000000000E+00 0. -1.
         22    1    3    3    0    0 -0.18291763304E+03  0.74652029991E+02  0.25832879742E+03  0.32521616447E+03  0.00000000000E+00 0. -1.
         22    1    3    3    0    0 -0.54478302085E+02  0.24766556222E+02  0.26041989945E+03  0.26720739461E+03  0.00000000000E+00 0. -1.
</event>
<event>
 7    1  0.5736319E-006  0.1074360E+03  0.7818608E-02  0.1270691E+00
          2   -1    0    0  502    0  0.00000000000E+00  0.00000000000E+00  0.13254491498E+04  0.13254491498E+04  0.00000000000E+00 0. -1.
          1   -1    0    0  501    0 -0.00000000000E+00 -0.00000000000E+00 -0.10457496318E+04  0.10457496318E+04  0.00000000000E+00 0. -1.
         25    2    1    2    0    0 -0.71779053281E+02  0.56830231631E+01  0.20988898812E+03  0.25468282506E+03  0.12500169920E+03 0.  0.
          2    1    1    2  501    0  0.21017956285E+02  0.99866088841E+02 -0.10176561330E+04  0.10227604780E+04  0.00000000000E+00 0. -1.
          1    1    1    2  502    0  0.50761096996E+02 -0.10554911200E+03  0.10874666629E+04  0.10937554786E+04  0.00000000000E+00 0. -1.
         22    1    3    3    0    0 -0.13873673644E+02  0.50689476528E+02  0.30222111568E+02  0.60624070126E+02  0.00000000000E+00 0.  1.
         22    1    3    3    0    0 -0.57905379636E+02 -0.45006453365E+02  0.17966687656E+03  0.19405875493E+03  0.00000000000E+00 0.  1.
</event>
<event>
 7    1  0.5736319E-006  0.1005773E+03  0.7818608E-02  0.1424337E+00
          2   -1    0    0  502    0  0.00000000000E+00  0.00000000000E+00  0.12877975690E+04  0.12877975690E+04  0.00000000000E+00 0. -1.
          1   -1    0    0  501    0 -0.00000000000E+00 -0.00000000000E+00 -0.11736306930E+03  0.11736306930E+03  0.00000000000E+00 0. -1.
         25    2    1    2    0    0  0.72807419534E+02 -0.19874833046E+02  0.15918319558E+02  0.14686879681E+03  0.12498448404E+03 0.  0.
          2    1    1    2  501    0  0.27941368382E+02  0.81824478053E+01 -0.45488734571E+02  0.54008309472E+02  0.00000000000E+00 0. -1.
          1    1    1    2  502    0 -0.10074878792E+03  0.11692385241E+02  0.12000049147E+04  0.12042835320E+04  0.00000000000E+00 0. -1.
         22    1    3    3    0    0  0.82254893699E+02  0.35037216722E+02  0.17611238927E+02  0.91124254892E+02  0.00000000000E+00 0. -1.
         22    1    3    3    0    0 -0.94474741656E+01 -0.54912049768E+02 -0.16929193687E+01  0.55744541919E+02  0.00000000000E+00 0. -1.
</event>
<event>
 7    1  0.5736319E-006  0.2526059E+03  0.7818608E-02  0.1320538E+00
          2   -1    0    0  502    0  0.00000000000E+00  0.00000000000E+00  0.99353672772E+02  0.99353672772E+02  0.00000000000E+00 0. -1.
          1   -1    0    0  501    0 -0.00000000000E+00 -0.00000000000E+00 -0.15813176060E+04  0.15813176060E+04  0.00000000000E+00 0. -1.
         25    2    1    2    0    0  0.10585186487E+03 -0.24844293641E+03 -0.53477829048E+03  0.61199790511E+03  0.12500042377E+03 0.  0.
          2    1    1    2  501    0 -0.19665008451E+02  0.18968742889E+02 -0.75938469275E+03  0.75987606709E+03  0.00000000000E+00 0. -1.
          1    1    1    2  502    0 -0.86186856416E+02  0.22947419352E+03 -0.18780094997E+03  0.30879730653E+03  0.00000000000E+00 0. -1.
         22    1    3    3    0    0  0.12207310060E+03 -0.17002970345E+03 -0.31608642403E+03  0.37910759607E+03  0.00000000000E+00 0. -1.
         22    1    3    3    0    0 -0.16221235730E+02 -0.78413232965E+02 -0.21869186645E+03  0.23289030904E+03  0.00000000000E+00 0. -1.
</event>
<event>
 7    1  0.5736319E-006  0.1514338E+03  0.7818608E-02  0.1287043E+00
          2   -1    0    0  502    0  0.00000000000E+00  0.00000000000E+00  0.33883933377E+04  0.33883933377E+04  0.00000000000E+00 0. -1.
          1   -1    0    0  501    0 -0.00000000000E+00 -0.00000000000E+00 -0.24944912654E+03  0.24944912654E+03  0.00000000000E+00 0. -1.
         25    2    1    2    0    0 -0.80495434374E+02 -0.13464100349E+03  0.15084177549E+03  0.25097293673E+03  0.12500583571E+03 0.  0.
          2    1    1    2  501    0 -0.42150448905E+02  0.45403056542E+02 -0.19271996552E+03  0.20243290986E+03  0.00000000000E+00 0. -1.
          1    1    1    2  502    0  0.12264588328E+03  0.89237946953E+02  0.31808224012E+04  0.31844366176E+04  0.00000000000E+00 0. -1.
         22    1    3    3    0    0  0.14714490832E+02  0.14427486064E+02  0.37968642189E+01  0.20954349727E+02  0.00000000000E+00 0. -1.
         22    1    3    3    0    0 -0.95209925206E+02 -0.14906848956E+03  0.14704491127E+03  0.23001858700E+03  0.00000000000E+00 0. -1.
</event>
<event>
 7    1  0.5736319E-006  0.8521060E+02  0.7818608E-02  0.1440084E+00
          2   -1    0    0  502    0  0.00000000000E+00  0.00000000000E+00  0.17362497563E+03  0.17362497563E+03  0.00000000000E+00 0. -1.
          1   -1    0    0  501    0 -0.00000000000E+00 -0.00000000000E+00 -0.12553751282E+04  0.12553751282E+04  0.00000000000E+00 0. -1.
         25    2    1    2    0    0 -0.56174966940E+02 -0.58445542693E+02  0.25993326415E+02  0.15122990256E+03  0.12499328798E+03 0.  0.
          2    1    1    2  501    0  0.77237501080E+02  0.36372230990E+02 -0.11884379807E+04  0.11915004845E+04  0.00000000000E+00 0. -1.
          1    1    1    2  502    0 -0.21062534140E+02  0.22073311702E+02  0.80694501648E+02  0.86269716761E+02  0.00000000000E+00 0. -1.
         22    1    3    3    0    0 -0.83591406053E+02 -0.12524354749E+02 -0.12350655111E+02  0.85422018880E+02  0.00000000000E+00 0. -1.
         22    1    3    3    0    0  0.27416439113E+02 -0.45921187944E+02  0.38343981526E+02  0.65807883685E+02  0.00000000000E+00 0. -1.
</event>
<event>
 7    1  0.5736319E-006  0.6764364E+02  0.7818608E-02  0.1375750E+00
          2   -1    0    0  502    0  0.00000000000E+00  0.00000000000E+00  0.54183910835E+03  0.54183910835E+03  0.00000000000E+00 0. -1.
          1   -1    0    0  501    0 -0.00000000000E+00 -0.00000000000E+00 -0.22717845129E+03  0.22717845129E+03  0.00000000000E+00 0. -1.
         25    2    1    2    0    0  0.36907893013E+02 -0.77631030357E+02  0.43724159355E+02  0.15787432551E+03  0.12499492430E+03 0.  0.
          2    1    1    2  501    0 -0.64963759164E+02  0.20546049530E+02 -0.16085577308E+03  0.17469118435E+03  0.00000000000E+00 0. -1.
          1    1    1    2  502    0  0.28055866151E+02  0.57084980827E+02  0.43179227078E+03  0.43645204979E+03  0.00000000000E+00 0. -1.
         22    1    3    3    0    0  0.72241434158E+02 -0.26797959802E+02 -0.76453568474E+01  0.77430013174E+02  0.00000000000E+00 0.  1.
         22    1    3    3    0    0 -0.35333541145E+02 -0.50833070554E+02  0.51369516203E+02  0.80444312333E+02  0.00000000000E+00 0.  1.
</event>
<event>
 7    1  0.5736319E-006  0.8391371E+02  0.7818608E-02  0.1344717E+00
          2   -1    0    0  502    0  0.00000000000E+00  0.00000000000E+00  0.79944594619E+03  0.79944594619E+03  0.00000000000E+00 0. -1.
          1   -1    0    0  501    0 -0.00000000000E+00 -0.00000000000E+00 -0.50216009368E+03  0.50216009368E+03  0.00000000000E+00 0. -1.
         25    2    1    2    0    0  0.37794295933E+02  0.34571426285E+02  0.19559887180E+03  0.23771181008E+03  0.12499757471E+03 0.  0.
          2    1    1    2  501    0  0.60937315149E+01 -0.84594967918E+02 -0.47543870524E+03  0.48294451504E+03  0.00000000000E+00 0. -1.
          1    1    1    2  502    0 -0.43888027448E+02  0.50023541632E+02  0.57712568596E+03  0.58094971474E+03  0.00000000000E+00 0. -1.
         22    1    3    3    0    0  0.38591464157E+02  0.79600595222E+02  0.14606928747E+03  0.17076824239E+03  0.00000000000E+00 0.  1.
         22    1    3    3    0    0 -0.79716822436E+00 -0.45029168936E+02  0.49529584329E+02  0.66943567697E+02  0.00000000000E+00 0.  1.
</event>
<event>
 7    1  0.5736319E-006  0.9936812E+02  0.7818608E-02  0.1352264E+00
          2   -1    0    0  502    0  0.00000000000E+00  0.00000000000E+00  0.19609753124E+04  0.19609753124E+04  0.00000000000E+00 0. -1.
          1   -1    0    0  501    0 -0.00000000000E+00 -0.00000000000E+00 -0.47317114967E+03  0.47317114967E+03  0.00000000000E+00 0. -1.
         25    2    1    2    0    0  0.14287350405E+01 -0.10307380411E+03  0.64513392346E+02  0.17439699183E+03  0.12500433028E+03 0.  0.
          2    1    1    2  501    0 -0.51176547146E+02  0.85728763738E+02 -0.41188718518E+03  0.42381542354E+03  0.00000000000E+00 0. -1.
          1    1    1    2  502    0  0.49747812105E+02  0.17345040369E+02  0.18351779556E+04  0.18359340467E+04  0.00000000000E+00 0. -1.
         22    1    3    3    0    0 -0.47349322821E+02 -0.73776570798E+02 -0.94000049720E+00  0.87668833523E+02  0.00000000000E+00 0. -1.
         22    1    3    3    0    0  0.48778057862E+02 -0.29297233309E+02  0.65453392843E+02  0.86728158305E+02  0.00000000000E+00 0. -1.
</event>
<event>
 7    1  0.5736319E-006  0.1520966E+03  0.7818608E-02  0.1246246E+00
          2   -1    0    0  502    0  0.00000000000E+00  0.00000000000E+00  0.19218635023E+04  0.19218635023E+04  0.00000000000E+00 0. -1.
          1   -1    0    0  501    0 -0.00000000000E+00 -0.00000000000E+00 -0.20031573515E+04  0.20031573515E+04  0.00000000000E+00 0. -1.
         25    2    1    2    0    0 -0.12523325051E+03 -0.20801108583E+03  0.16392070148E+04  0.16617989517E+04  0.12499655845E+03 0.  0.
          2    1    1    2  501    0  0.69726500918E+02  0.13499361300E+03 -0.19811181935E+04  0.19869359217E+04  0.00000000000E+00 0. -1.
          1    1    1    2  502    0  0.55506749591E+02  0.73017472834E+02  0.26061732943E+03  0.27628598044E+03  0.00000000000E+00 0. -1.
         22    1    3    3    0    0 -0.19354600003E+02 -0.33559634329E+02  0.75763928404E+02  0.85094197480E+02  0.00000000000E+00 0.  1.
         22    1    3    3    0    0 -0.10587865051E+03 -0.17445145150E+03  0.15634430864E+04  0.15767047542E+04  0.00000000000E+00 0.  1.
</event>
<event>
 7    1  0.5736319E-006  0.1997279E+03  0.7818608E-02  0.1313731E+00
          2   -1    0    0  502    0  0.00000000000E+00  0.00000000000E+00  0.17587955449E+04  0.17587955449E+04  0.00000000000E+00 0. -1.
          1   -1    0    0  501    0 -0.00000000000E+00 -0.00000000000E+00 -0.14098493592E+03  0.14098493592E+03  0.00000000000E+00 0. -1.
         25    2    1    2    0    0  0.19554587436E+03 -0.16467383854E+02  0.31358774036E+03  0.39047559008E+03  0.12499820731E+03 0.  0.
          2    1    1    2  501    0  0.43593348353E+01  0.36473549837E+02 -0.91812204044E+02  0.98887837722E+02  0.00000000000E+00 0. -1.
          1    1    1    2  502    0 -0.19990520920E+03 -0.20006165983E+02  0.13960350726E+04  0.14104170530E+04  0.00000000000E+00 0. -1.
         22    1    3    3    0    0  0.23858483249E+02 -0.18076455330E+02 -0.32483457411E+01  0.30108756372E+02  0.00000000000E+00 0.  1.
         22    1    3    3    0    0  0.17168739111E+03  0.16090714762E+01  0.31683608610E+03  0.36036683371E+03  0.00000000000E+00 0.  1.
</event>
<event>
 7    1  0.5736319E-006  0.1113570E+03  0.7818608E-02  0.1366348E+00
          2   -1    0    0  502    0  0.00000000000E+00  0.00000000000E+00  0.15237556911E+04  0.15237556911E+04  0.00000000000E+00 0. -1.
          1   -1    0    0  501    0 -0.00000000000E+00 -0.00000000000E+00 -0.22555823106E+03  0.22555823106E+03  0.00000000000E+00 0. -1.
         25    2    1    2    0    0 -0.13229544100E+03  0.30314313322E+02  0.25427623791E+03  0.31416931837E+03  0.12499965655E+03 0.  0.
          2    1    1    2  501    0  0.11015961389E+03  0.50964961215E+01 -0.17968471478E+03  0.21082625911E+03  0.00000000000E+00 0. -1.
          1    1    1    2  502    0  0.22135827107E+02 -0.35410809443E+02  0.12236059369E+04  0.12243183447E+04  0.00000000000E+00 0. -1.
         22    1    3    3    0    0 -0.65230279064E+02 -0.48310395759E+02  0.11248364107E+03  0.13871356514E+03  0.00000000000E+00 0.  1.
         22    1    3    3    0    0 -0.67065161935E+02  0.78624709081E+02  0.14179259683E+03  0.17545575323E+03  0.00000000000E+00 0.  1.
</event>
<event>
 7    1  0.5736319E-006  0.2769568E+03  0.7818608E-02  0.1225744E+00
          2   -1    0    0  502    0  0.00000000000E+00  0.00000000000E+00  0.12981422128E+04  0.12981422128E+04  0.00000000000E+00 0. -1.
          1   -1    0    0  501    0 -0.00000000000E+00 -0.00000000000E+00 -0.53901174589E+03  0.53901174589E+03  0.00000000000E+00 0. -1.
         25    2    1    2    0    0  0.57642947865E+02 -0.31990966757E+03  0.33948235911E+03  0.48635208498E+03  0.12500069431E+03 0.  0.
          2    1    1    2  501    0 -0.39162397529E+00  0.62113154876E+02 -0.44367051805E+03  0.44799746201E+03  0.00000000000E+00 0. -1.
          1    1    1    2  502    0 -0.57251323890E+02  0.25779651269E+03  0.86331862585E+03  0.90280441170E+03  0.00000000000E+00 0. -1.
         22    1    3    3    0    0 -0.26733184306E+01 -0.13914139544E+02  0.78238246202E+02  0.79510836239E+02  0.00000000000E+00 0. -1.
         22    1    3    3    0    0  0.60316266296E+02 -0.30599552803E+03  0.26124411291E+03  0.40684124875E+03  0.00000000000E+00 0. -1.
</event>
<event>
 7    1  0.5736319E-006  0.4854345E+02  0.7818608E-02  0.1461134E+00
          2   -1    0    0  502    0  0.00000000000E+00  0.00000000000E+00  0.33068562790E+03  0.33068562790E+03  0.00000000000E+00 0. -1.
          1   -1    0    0  501    0 -0.00000000000E+00 -0.00000000000E+00 -0.29161233029E+03  0.29161233029E+03  0.00000000000E+00 0. -1.
         25    2    1    2    0    0 -0.10981957490E+02 -0.66319008883E+02 -0.11152791083E+03  0.18050547602E+03  0.12499975060E+03 0.  0.
          2    1    1    2  501    0  0.37852077143E+02  0.25905358992E+02 -0.13991966046E+03  0.14724598042E+03  0.00000000000E+00 0. -1.
          1    1    1    2  502    0 -0.26870119654E+02  0.40413649891E+02  0.29052086890E+03  0.29454650175E+03  0.00000000000E+00 0. -1.
         22    1    3    3    0    0 -0.41989060474E+01 -0.76669066396E+02 -0.13423569796E+03  0.15464475148E+03  0.00000000000E+00 0.  1.
         22    1    3    3    0    0 -0.67830514424E+01  0.10350057513E+02  0.22707787130E+02  0.25860724540E+02  0.00000000000E+00 0.  1.
</event>
<event>
 7    1  0.5736319E-006  0.7083555E+02  0.7818608E-02  0.1370060E+00
          2   -1    0    0  502    0  0.00000000000E+00  0.00000000000E+00  0.18071902940E+04  0.18071902940E+04  0.00000000000E+00 0. -1.
          1   -1    0    0  501    0 -0.00000000000E+00 -0.00000000000E+00 -0.84735294663E+02  0.84735294663E+02  0.00000000000E+00 0. -1.
         25    2    1    2    0    0  0.10060341779E+03  0.34598032283E+02  0.10605275977E+04  0.10731572186E+04  0.12501823407E+03 0.  0.
          2    1    1    2  501    0 -0.61106652068E+02  0.17837998719E+02 -0.63771897576E+02  0.90105893512E+02  0.00000000000E+00 0. -1.
          1    1    1    2  502    0 -0.39496765721E+02 -0.52436031002E+02  0.72569929914E+03  0.72866247647E+03  0.00000000000E+00 0. -1.
         22    1    3    3    0    0 -0.24020356888E+02 -0.14223634329E+02  0.26286106907E+03  0.26433923460E+03  0.00000000000E+00 0. -1.
         22    1    3    3    0    0  0.12462377468E+03  0.48821666612E+02  0.79766652867E+03  0.80881798404E+03  0.00000000000E+00 0. -1.
</event>
<event>
 7    1  0.5736319E-006  0.1859386E+03  0.7818608E-02  0.1167290E+00
          2   -1    0    0  502    0  0.00000000000E+00  0.00000000000E+00  0.10749281391E+04  0.10749281391E+04  0.00000000000E+00 0. -1.
          1   -1    0    0  501    0 -0.00000000000E+00 -0.00000000000E+00 -0.38787927090E+03  0.38787927090E+03  0.00000000000E+00 0. -1.
         25    2    1    2    0    0 -0.46633951498E+01 -0.11463188334E+03 -0.10842730691E+02  0.17001373403E+03  0.12499955607E+03 0.  0.
          2    1    1    2  501    0  0.18964120783E+03  0.13350955066E+03 -0.24170407661E+03  0.33497678796E+03  0.00000000000E+00 0. -1.
          1    1    1    2  502    0 -0.18497781268E+03 -0.18877667317E+02  0.93959567548E+03  0.95781688798E+03  0.00000000000E+00 0. -1.
         22    1    3    3    0    0 -0.37843734891E+02 -0.15291079675E+02  0.36795312868E+02  0.54953256838E+02  0.00000000000E+00 0. -1.
         22    1    3    3    0    0  0.33180339741E+02 -0.99340803664E+02 -0.47638043558E+02  0.11506047719E+03  0.00000000000E+00 0. -1.
</event>
<event>
 7    1  0.5736319E-006  0.9904345E+02  0.7818608E-02  0.1296813E+00
          2   -1    0    0  502    0  0.00000000000E+00  0.00000000000E+00  0.10357477988E+04  0.10357477988E+04  0.00000000000E+00 0. -1.
          1   -1    0    0  501    0 -0.00000000000E+00 -0.00000000000E+00 -0.36794446299E+03  0.36794446299E+03  0.00000000000E+00 0. -1.
         25    2    1    2    0    0  0.17519024517E+03  0.37351395886E+02  0.13682947028E+03  0.25774945976E+03  0.12500292514E+03 0.  0.
          2    1    1    2  501    0 -0.96048927771E+02 -0.25255877527E+01 -0.29767383462E+03  0.31279623869E+03  0.00000000000E+00 0. -1.
          1    1    1    2  502    0 -0.79141317403E+02 -0.34825808133E+02  0.82864770012E+03  0.83314656330E+03  0.00000000000E+00 0. -1.
         22    1    3    3    0    0  0.10682108150E+03  0.80258298722E+01  0.60516997214E+01  0.10729296560E+03  0.00000000000E+00 0. -1.
         22    1    3    3    0    0  0.68369163673E+02  0.29325566013E+02  0.13077777056E+03  0.15045649416E+03  0.00000000000E+00 0. -1.
</event>
<event>
 7    1  0.5736319E-006  0.1018874E+03  0.7818608E-02  0.1411937E+00
          2   -1    0    0  502    0  0.00000000000E+00  0.00000000000E+00  0.63366206207E+03  0.63366206207E+03  0.00000000000E+00 0. -1.
          1   -1    0    0  501    0 -0.00000000000E+00 -0.00000000000E+00 -0.54937600253E+03  0.54937600253E+03  0.00000000000E+00 0. -1.
         25    2    1    2    0    0  0.58479871711E+02 -0.42496849848E+02  0.37129331015E+03  0.39838394201E+03  0.12500066177E+03 0.  0.
          2    1    1    2  501    0 -0.75138034968E+02  0.69378325876E+02 -0.52991651495E+03  0.53969490383E+03  0.00000000000E+00 0. -1.
          1    1    1    2  502    0  0.16658163257E+02 -0.26881476028E+02  0.24290926434E+03  0.24495921876E+03  0.00000000000E+00 0. -1.
         22    1    3    3    0    0  0.92050719258E+02 -0.27684596142E+02  0.18468839883E+03  0.20820561098E+03  0.00000000000E+00 0. -1.
         22    1    3    3    0    0 -0.33570847547E+02 -0.14812253706E+02  0.18660491132E+03  0.19017833103E+03  0.00000000000E+00 0. -1.
</event>
<event>
 7    1  0.5736319E-006  0.1215803E+03  0.7818608E-02  0.1340376E+00
          2   -1    0    0  502    0  0.00000000000E+00  0.00000000000E+00  0.27902664129E+02  0.27902664129E+02  0.00000000000E+00 0. -1.
          1   -1    0    0  501    0 -0.00000000000E+00 -0.00000000000E+00 -0.18096307755E+04  0.18096307755E+04  0.00000000000E+00 0. -1.
         25    2    1    2    0    0 -0.12528726405E+03  0.86744020943E+02 -0.55215033043E+03  0.58627345575E+03  0.12500061527E+03 0.  0.
          2    1    1    2  501    0  0.44652688199E+02 -0.16728159018E+02 -0.96168879120E+03  0.96287020152E+03  0.00000000000E+00 0. -1.
          1    1    1    2  502    0  0.80634575852E+02 -0.70015861925E+02 -0.26788898978E+03  0.28838978240E+03  0.00000000000E+00 0. -1.
         22    1    3    3    0    0  0.24492846632E+02  0.24285130317E+02 -0.11013396314E+03  0.11540865187E+03  0.00000000000E+00 0. -1.
         22    1    3    3    0    0 -0.14978011068E+03  0.62458890625E+02 -0.44201636730E+03  0.47086480388E+03  0.00000000000E+00 0. -1.
</event>
<event>
 7    1  0.5736319E-006  0.1216189E+03  0.7818608E-02  0.1332388E+00
          2   -1    0    0  502    0  0.00000000000E+00  0.00000000000E+00  0.25055605535E+04  0.25055605535E+04  0.00000000000E+00 0. -1.
          1   -1    0    0  501    0 -0.00000000000E+00 -0.00000000000E+00 -0.30578595077E+02  0.30578595077E+02  0.00000000000E+00 0. -1.
         25    2    1    2    0    0 -0.29843027993E+02  0.11551736839E+03  0.37788040901E+03  0.41551600103E+03  0.12500029952E+03 0.  0.
          2    1    1    2  501    0 -0.19932587081E+02 -0.12708984396E+03  0.35195470672E+03  0.37472823759E+03  0.00000000000E+00 0. -1.
          1    1    1    2  502    0  0.49775615074E+02  0.11572475568E+02  0.17451468427E+04  0.17458949099E+04  0.00000000000E+00 0. -1.
         22    1    3    3    0    0  0.21480307095E+02  0.10951024688E+03  0.31466532424E+03  0.33386848315E+03  0.00000000000E+00 0.  1.
         22    1    3    3    0    0 -0.51323335087E+02  0.60071215122E+01  0.63215084771E+02  0.81647517880E+02  0.00000000000E+00 0.  1.
</event>
<event>
 7    1  0.5736319E-006  0.3669329E+02  0.7818608E-02  0.1548107E+00
          2   -1    0    0  502    0  0.00000000000E+00  0.00000000000E+00  0.34802280425E+04  0.34802280425E+04  0.00000000000E+00 0. -1.
          1   -1    0    0  501    0 -0.00000000000E+00 -0.00000000000E+00 -0.74119432597E+01  0.74119432597E+01  0.00000000000E+00 0. -1.
         25    2    1    2    0    0 -0.76296794961E+00  0.44838227069E+01  0.82905689678E+03  0.83843978589E+03  0.12500099876E+03 0.  0.
          2    1    1    2  501    0 -0.19074781438E+02  0.27528376362E+02  0.10607419962E+03  0.11123576141E+03  0.00000000000E+00 0. -1.
          1    1    1    2  502    0  0.19837749388E+02 -0.32012199068E+02  0.25376850028E+04  0.25379644385E+04  0.00000000000E+00 0. -1.
         22    1    3    3    0    0  0.33346525324E+01  0.24518268410E+02  0.29000517686E+02  0.38122111948E+02  0.00000000000E+00 0. -1.
         22    1    3    3    0    0 -0.40976204820E+01 -0.20034445703E+02  0.80005637909E+03  0.80031767395E+03  0.00000000000E+00 0. -1.
</event>
<event>
 7    1  0.5736319E-006  0.4054229E+02  0.7818608E-02  0.1557381E+00
          2   -1    0    0  502    0  0.00000000000E+00  0.00000000000E+00  0.58476297098E+03  0.58476297098E+03  0.00000000000E+00 0. -1.
          1   -1    0    0  501    0 -0.00000000000E+00 -0.00000000000E+00 -0.81075178773E+02  0.81075178773E+02  0.00000000000E+00 0. -1.
         25    2    1    2    0    0 -0.21043761390E+02 -0.53572220705E+02  0.98427138594E+02  0.16918852954E+03  0.12499613671E+03 0.  0.
          2    1    1    2  501    0 -0.38800689660E+01  0.39616913322E+02 -0.36475478900E+02  0.53990881799E+02  0.00000000000E+00 0. -1.
          1    1    1    2  502    0  0.24923830356E+02  0.13955307382E+02  0.44173613251E+03  0.44265873841E+03  0.00000000000E+00 0. -1.
         22    1    3    3    0    0 -0.28795051707E+02  0.99981638866E+01 -0.18654542542E+02  0.35736679215E+02  0.00000000000E+00 0.  1.
         22    1    3    3    0    0  0.77512903162E+01 -0.63570384591E+02  0.11708168114E+03  0.13345185033E+03  0.00000000000E+00 0.  1.
</event>
<event>
 7    1  0.5736319E-006  0.6876840E+02  0.7818608E-02  0.1405304E+00
          2   -1    0    0  502    0  0.00000000000E+00  0.00000000000E+00  0.80934011747E+03  0.80934011747E+03  0.00000000000E+00 0. -1.
          1   -1    0    0  501    0 -0.00000000000E+00 -0.00000000000E+00 -0.17898327780E+03  0.17898327780E+03  0.00000000000E+00 0. -1.
         25    2    1    2    0    0 -0.22833995887E+02 -0.79701476103E+02 -0.79137926912E+01  0.15020406728E+03  0.12499966821E+03 0.  0.
          2    1    1    2  501    0 -0.31734031159E+02  0.37792400745E+02 -0.92114433162E+02  0.10450063677E+03  0.00000000000E+00 0. -1.
          1    1    1    2  502    0  0.54568027046E+02  0.41909075358E+02  0.73038506552E+03  0.73361869122E+03  0.00000000000E+00 0. -1.
         22    1    3    3    0    0 -0.49043551371E+02  0.10222824916E+02 -0.23354431446E+02  0.55273913816E+02  0.00000000000E+00 0.  1.
         22    1    3    3    0    0  0.26209555485E+02 -0.89924301019E+02  0.15440638754E+02  0.94930153469E+02  0.00000000000E+00 0.  1.
</event>
<event>
 7    1  0.5736319E-006  0.3269583E+02  0.7818608E-02  0.1641835E+00
          2   -1    0    0  502    0  0.00000000000E+00  0.00000000000E+00  0.94046923821E+03  0.94046923821E+03  0.00000000000E+00 0. -1.
          1   -1    0    0  501    0 -0.00000000000E+00 -0.00000000000E+00 -0.91429038614E+03  0.91429038614E+03  0.00000000000E+00 0. -1.
         25    2    1    2    0    0  0.85439307453E+01  0.75996454350E+01  0.16355929789E+03  0.20617481527E+03  0.12500262862E+03 0.  0.
          2    1    1    2  501    0 -0.24680085895E+02 -0.21498084856E+02 -0.89253254295E+03  0.89313247311E+03  0.00000000000E+00 0. -1.
          1    1    1    2  502    0  0.16136155149E+02  0.13898439421E+02  0.75515209714E+03  0.75545233598E+03  0.00000000000E+00 0. -1.
         22    1    3    3    0    0 -0.18563141317E+02 -0.20928191612E+02  0.16444967671E+03  0.16681209665E+03  0.00000000000E+00 0.  1.
         22    1    3    3    0    0  0.27107072062E+02  0.28527837047E+02 -0.89037882172E+00  0.39362718616E+02  0.00000000000E+00 0.  1.
</event>
<event>
 7    1  0.5736319E-006  0.6289575E+02  0.7818608E-02  0.1458580E+00
          2   -1    0    0  502    0  0.00000000000E+00  0.00000000000E+00  0.33687708933E+03  0.33687708933E+03  0.00000000000E+00 0. -1.
          1   -1    0    0  501    0 -0.00000000000E+00 -0.00000000000E+00 -0.24304186693E+04  0.24304186693E+04  0.00000000000E+00 0. -1.
         25    2    1    2    0    0  0.83145933371E+02 -0.20173496199E+02  0.18022662587E+02  0.15254347314E+03  0.12499791457E+03 0.  0.
          2    1    1    2  501    0 -0.62145715387E+02 -0.91459252891E+01 -0.23614460670E+04  0.23622813688E+04  0.00000000000E+00 0. -1.
          1    1    1    2  502    0 -0.21000217984E+02  0.29319421488E+02  0.24988182441E+03  0.25247091675E+03  0.00000000000E+00 0. -1.
         22    1    3    3    0    0  0.19956458814E+02  0.37526468642E+02 -0.32200918885E+02  0.53323496455E+02  0.00000000000E+00 0. -1.
         22    1    3    3    0    0  0.63189474557E+02 -0.57699964841E+02  0.50223581472E+02  0.99219976685E+02  0.00000000000E+00 0. -1.
</event>
<event>
 7    1  0.5736319E-006  0.1125247E+03  0.7818608E-02  0.1457435E+00
          2   -1    0    0  502    0  0.00000000000E+00  0.00000000000E+00  0.46262787560E+04  0.46262787560E+04  0.00000000000E+00 0. -1.
          1   -1    0    0  501    0 -0.00000000000E+00 -0.00000000000E+00 -0.32323285888E+03  0.32323285888E+03  0.00000000000E+00 0. -1.
         25    2    1    2    0    0 -0.33528543399E+02 -0.12722796164E+03  0.41562608498E+04  0.41602211343E+04  0.12499806733E+03 0.  0.
          2    1    1    2  501    0  0.22379772549E+02  0.11023117206E+03 -0.31117470670E+03  0.33087983257E+03  0.00000000000E+00 0. -1.
          1    1    1    2  502    0  0.11148770850E+02  0.16996789586E+02  0.45795975396E+03  0.45841064800E+03  0.00000000000E+00 0. -1.
         22    1    3    3    0    0 -0.40476453092E+02 -0.11602083587E+03  0.19232909994E+04  0.19272123510E+04  0.00000000000E+00 0. -1.
         22    1    3    3    0    0  0.69479096928E+01 -0.11207125771E+02  0.22329698505E+04  0.22330087833E+04  0.00000000000E+00 0. -1.
</event>
<event>
 7    1  0.5736319E-006  0.1502902E+03  0.7818608E-02  0.1217069E+00
          2   -1    0    0  502    0  0.00000000000E+00  0.00000000000E+00  0.34045262390E+04  0.34045262390E+04  0.00000000000E+00 0. -1.
          1   -1    0    0  501    0 -0.00000000000E+00 -0.00000000000E+00 -0.19520425365E+03  0.19520425365E+03  0.00000000000E+00 0. -1.
         25    2    1    2    0    0  0.64325699455E+01 -0.12733162663E+03  0.24792497888E+02  0.18025745159E+03  0.12499343905E+03 0.  0.
          2    1    1    2  501    0  0.11849707696E+03  0.40887752425E+02 -0.81755199813E+02  0.14965720244E+03  0.00000000000E+00 0. -1.
          1    1    1    2  502    0 -0.12492964691E+03  0.86443874208E+02  0.32662846872E+04  0.32698158386E+04  0.00000000000E+00 0. -1.
         22    1    3    3    0    0  0.40220457540E+02 -0.13728453483E+03  0.23791821011E+02  0.14501992779E+03  0.00000000000E+00 0.  1.
         22    1    3    3    0    0 -0.33787887595E+02  0.99529081982E+01  0.10006768771E+01  0.35237523805E+02  0.00000000000E+00 0.  1.
</event>
<event>
 7    1  0.5736319E-006  0.2176113E+03  0.7818608E-02  0.1255919E+00
          2   -1    0    0  502    0  0.00000000000E+00  0.00000000000E+00  0.26749601863E+04  0.26749601863E+04  0.00000000000E+00 0. -1.
          1   -1    0    0  501    0 -0.00000000000E+00 -0.00000000000E+00 -0.44286141728E+03  0.44286141728E+03  0.00000000000E+00 0. -1.
         25    2    1    2    0    0  0.17387620961E+03 -0.75439255800E+02  0.66766207753E+03  0.70520998919E+03  0.12499784595E+03 0.  0.
          2    1    1    2  501    0  0.12495389095E+02 -0.56854791596E+02 -0.41548452346E+03  0.41954259773E+03  0.00000000000E+00 0. -1.
          1    1    1    2  502    0 -0.18637159871E+03  0.13229404740E+03  0.19799212149E+04  0.19930690167E+04  0.00000000000E+00 0. -1.
         22    1    3    3    0    0  0.17491706457E+03 -0.91486899283E+02  0.65675403959E+03  0.68577817167E+03  0.00000000000E+00 0. -1.
         22    1    3    3    0    0 -0.10408549568E+01  0.16047643483E+02  0.10908037942E+02  0.19431817520E+02  0.00000000000E+00 0. -1.
</event>
<event>
 7    1  0.5736319E-006  0.5344748E+02  0.7818608E-02  0.1478593E+00
          2   -1    0    0  502    0  0.00000000000E+00  0.00000000000E+00  0.38443020185E+04  0.38443020185E+04  0.00000000000E+00 0. -1.
          1   -1    0    0  501    0 -0.00000000000E+00 -0.00000000000E+00 -0.68219119671E+01  0.68219119671E+01  0.00000000000E+00 0. -1.
         25    2    1    2    0    0 -0.18077692354E+02 -0.75056497370E+02  0.20442093625E+04  0.20494819957E+04  0.12499700959E+03 0.  0.
          2    1    1    2  501    0 -0.97716671891E+01  0.51060286177E+02  0.16587018802E+03  0.17382622810E+03  0.00000000000E+00 0. -1.
          1    1    1    2  502    0  0.27849359544E+02  0.23996211193E+02  0.16274005560E+04  0.16278157066E+04  0.00000000000E+00 0. -1.
         22    1    3    3    0    0  0.34077292579E+02  0.11796068112E+02  0.27210399538E+03  0.27448313864E+03  0.00000000000E+00 0.  1.
         22    1    3    3    0    0 -0.52154984934E+02 -0.86852565483E+02  0.17721053671E+04  0.17749988571E+04  0.00000000000E+00 0.  1.
</event>
<event>
 7    1  0.5736319E-006  0.1488676E+03  0.7818608E-02  0.1399909E+00
          2   -1    0    0  502    0  0.00000000000E+00  0.00000000000E+00  0.10907288618E+04  0.10907288618E+04  0.00000000000E+00 0. -1.
          1   -1    0    0  501    0 -0.00000000000E+00 -0.00000000000E+00 -0.38454471035E+03  0.38454471035E+03  0.00000000000E+00 0. -1.
         25    2    1    2    0    0 -0.51719539929E+01  0.15117215298E+03  0.36001925542E+03  0.41002126466E+03  0.12499521694E+03 0.  0.
          2    1    1    2  501    0  0.28413871655E+02 -0.14610693852E+03 -0.34392533858E+03  0.37475221695E+03  0.00000000000E+00 0. -1.
          1    1    1    2  502    0 -0.23241917662E+02 -0.50652144528E+01  0.69009023456E+03  0.69050009049E+03  0.00000000000E+00 0. -1.
         22    1    3    3    0    0 -0.14395283011E+02  0.46090782569E+01 -0.55158685890E+01  0.16090139267E+02  0.00000000000E+00 0.  1.
         22    1    3    3    0    0  0.92233290183E+01  0.14656307472E+03  0.36553512401E+03  0.39393112539E+03  0.00000000000E+00 0.  1.
</event>
<event>
 7    1  0.5736319E-006  0.8689482E+02  0.7818608E-02  0.1397750E+00
          2   -1    0    0  502    0  0.00000000000E+00  0.00000000000E+00  0.24144492618E+03  0.24144492618E+03  0.00000000000E+00 0. -1.
          1   -1    0    0  501    0 -0.00000000000E+00 -0.00000000000E+00 -0.36084777236E+03  0.36084777236E+03  0.00000000000E+00 0. -1.
         25    2    1    2    0    0  0.10180400308E+03  0.42959056980E+02 -0.11823222012E+03  0.20448365916E+03  0.12500069348E+03 0.  0.
          2    1    1    2  501    0 -0.62156127516E+02 -0.55069485504E+02 -0.18848206449E+03  0.20596485394E+03  0.00000000000E+00 0. -1.
          1    1    1    2  502    0 -0.39647875562E+02  0.12110428524E+02  0.18731143844E+03  0.19184418544E+03  0.00000000000E+00 0. -1.
         22    1    3    3    0    0  0.17339649955E+01 -0.33845816212E+02 -0.51832644677E+02  0.61928741017E+02  0.00000000000E+00 0. -1.
         22    1    3    3    0    0  0.10007003808E+03  0.76804873192E+02 -0.66399575446E+02  0.14255491814E+03  0.00000000000E+00 0. -1.
</event>
<event>
 7    1  0.5736319E-006  0.4112693E+02  0.7818608E-02  0.1559677E+00
          2   -1    0    0  502    0  0.00000000000E+00  0.00000000000E+00  0.78032936447E+01  0.78032936447E+01  0.00000000000E+00 0. -1.
          1   -1    0    0  501    0 -0.00000000000E+00 -0.00000000000E+00 -0.20367195267E+04  0.20367195267E+04  0.00000000000E+00 0. -1.
         25    2    1    2    0    0  0.67620061512E+01  0.63198040216E+02 -0.11251150589E+04  0.11338200510E+04  0.12499718155E+03 0.  0.
          2    1    1    2  501    0 -0.13978270199E+02 -0.36401438708E+02 -0.84262191279E+03  0.84352364798E+03  0.00000000000E+00 0. -1.
          1    1    1    2  502    0  0.72162640481E+01 -0.26796601508E+02 -0.61179261338E+02  0.67179121289E+02  0.00000000000E+00 0. -1.
         22    1    3    3    0    0 -0.51689291645E+02  0.41216804436E+02 -0.80237326346E+03  0.80509220699E+03  0.00000000000E+00 0.  1.
         22    1    3    3    0    0  0.58451297796E+02  0.21981235781E+02 -0.32274179543E+03  0.32872784406E+03  0.00000000000E+00 0.  1.
</event>
<event>
 7    1  0.5736319E-006  0.1409858E+03  0.7818608E-02  0.1236425E+00
          2   -1    0    0  502    0  0.00000000000E+00  0.00000000000E+00  0.27987564976E+04  0.27987564976E+04  0.00000000000E+00 0. -1.
          1   -1    0    0  501    0 -0.00000000000E+00 -0.00000000000E+00 -0.46843112502E+03  0.46843112502E+03  0.00000000000E+00 0. -1.
         25    2    1    2    0    0  0.22249604313E+03 -0.87591760001E+02  0.17771843186E+03  0.32308513357E+03  0.12499342734E+03 0.  0.
          2    1    1    2  501    0 -0.11387545657E+03  0.75413669772E+02 -0.38275058855E+03  0.40639002723E+03  0.00000000000E+00 0. -1.
          1    1    1    2  502    0 -0.10862058656E+03  0.12178090229E+02  0.25353575292E+04  0.25377124618E+04  0.00000000000E+00 0. -1.
         22    1    3    3    0    0  0.74376695332E+02 -0.52966488788E+02  0.29027463247E+01  0.91355173249E+02  0.00000000000E+00 0. -1.
         22    1    3    3    0    0  0.14811934780E+03 -0.34625271213E+02  0.17481568553E+03  0.23172996032E+03  0.00000000000E+00 0. -1.
</event>
<event>
 7    1  0.5736319E-006  0.4094442E+02  0.7818608E-02  0.1519890E+00
          2   -1    0    0  502    0  0.00000000000E+00  0.00000000000E+00  0.13953409327E+04  0.13953409327E+04  0.00000000000E+00 0. -1.
          1   -1    0    0  501    0 -0.00000000000E+00 -0.00000000000E+00 -0.19822468938E+03  0.19822468938E+03  0.00000000000E+00 0. -1.
         25    2    1    2    0    0 -0.52969723668E+02  0.68772320112E+01  0.13933112316E+03  0.19465695694E+03  0.12500032424E+03 0.  0.
          2    1    1    2  501    0  0.26582919375E+02  0.24452733194E+02 -0.16830372309E+03  0.17213579224E+03  0.00000000000E+00 0. -1.
          1    1    1    2  502    0  0.26386804293E+02 -0.31329965205E+02  0.12260888432E+04  0.12267728729E+04  0.00000000000E+00 0. -1.
         22    1    3    3    0    0 -0.64716879612E+02  0.51900090839E+02  0.58913666361E+02  0.10174828755E+03  0.00000000000E+00 0. -1.
         22    1    3    3    0    0  0.11747155944E+02 -0.45022858828E+02  0.80417456801E+02  0.92908669392E+02  0.00000000000E+00 0. -1.
</event>
<event>
 7    1  0.5736319E-006  0.4828597E+02  0.7818608E-02  0.1455411E+00
          2   -1    0    0  502    0  0.00000000000E+00  0.00000000000E+00  0.46018322617E+02  0.46018322617E+02  0.00000000000E+00 0. -1.
          1   -1    0    0  501    0 -0.00000000000E+00 -0.00000000000E+00 -0.59475794194E+03  0.59475794194E+03  0.00000000000E+00 0. -1.
         25    2    1    2    0    0 -0.59069234239E+01  0.10830306017E+02 -0.30027617841E+03  0.32548875164E+03  0.12499982739E+03 0.  0.
          2    1    1    2  501    0  0.38711602744E+02  0.28505974679E+02 -0.25863687591E+03  0.26306693513E+03  0.00000000000E+00 0. -1.
          1    1    1    2  502    0 -0.32804679320E+02 -0.39336280695E+02  0.10173435003E+02  0.52220577783E+02  0.00000000000E+00 0. -1.
         22    1    3    3    0    0 -0.51949308300E+02 -0.28255770643E+02 -0.98707810131E+02  0.11506672407E+03  0.00000000000E+00 0. -1.
         22    1    3    3    0    0  0.46042384876E+02  0.39086076659E+02 -0.20156836828E+03  0.21042202757E+03  0.00000000000E+00 0. -1.
</event>
<event>
 7    1  0.5736319E-006  0.5415633E+02  0.7818608E-02  0.1435269E+00
          2   -1    0    0  502    0  0.00000000000E+00  0.00000000000E+00  0.38429888259E+03  0.38429888259E+03  0.00000000000E+00 0. -1.
          1   -1    0    0  501    0 -0.00000000000E+00 -0.00000000000E+00 -0.20995797499E+03  0.20995797499E+03  0.00000000000E+00 0. -1.
         25    2    1    2    0    0  0.12135473836E+02 -0.90944290269E+02  0.21951397806E+03  0.26875531338E+03  0.12499959298E+03 0.  0.
          2    1    1    2  501    0 -0.30038858851E+02  0.44506177772E+02 -0.17680301924E+03  0.18477673153E+03  0.00000000000E+00 0. -1.
          1    1    1    2  502    0  0.17903385015E+02  0.46438112498E+02  0.13162994877E+03  0.14072481267E+03  0.00000000000E+00 0. -1.
         22    1    3    3    0    0  0.48157664056E+02 -0.10507733571E+03  0.15225649671E+03  0.19116079064E+03  0.00000000000E+00 0. -1.
         22    1    3    3    0    0 -0.36022190219E+02  0.14133045436E+02  0.67257481355E+02  0.77594522743E+02  0.00000000000E+00 0. -1.
</event>
<event>
 7    1  0.5736319E-006  0.2309430E+03  0.7818608E-02  0.1262031E+00
          2   -1    0    0  502    0  0.00000000000E+00  0.00000000000E+00  0.95331200406E+03  0.95331200406E+03  0.00000000000E+00 0. -1.
          1   -1    0    0  501    0 -0.00000000000E+00 -0.00000000000E+00 -0.74295791107E+03  0.74295791107E+03  0.00000000000E+00 0. -1.
         25    2    1    2    0    0  0.13060169275E+03 -0.14878375616E+03 -0.31333592028E+03  0.39114902951E+03  0.12499902440E+03 0.  0.
          2    1    1    2  501    0 -0.10900346367E+02 -0.50485137026E+02 -0.37413898762E+03  0.37768710418E+03  0.00000000000E+00 0. -1.
          1    1    1    2  502    0 -0.11970134639E+03  0.19926889318E+03  0.89782900089E+03  0.92743378144E+03  0.00000000000E+00 0. -1.
         22    1    3    3    0    0  0.10203464896E+03 -0.12710175324E+03 -0.14222113367E+03  0.21631637970E+03  0.00000000000E+00 0.  1.
         22    1    3    3    0    0  0.28567043798E+02 -0.21682002916E+02 -0.17111478661E+03  0.17483264980E+03  0.00000000000E+00 0.  1.
</event>
<event>
 7    1  0.5736319E-006  0.7696057E+02  0.7818608E-02  0.1392689E+00
          2   -1    0    0  502    0  0.00000000000E+00  0.00000000000E+00  0.10703677773E+04  0.10703677773E+04  0.00000000000E+00 0. -1.
          1   -1    0    0  501    0 -0.00000000000E+00 -0.00000000000E+00 -0.19969538719E+03  0.19969538719E+03  0.00000000000E+00 0. -1.
         25    2    1    2    0    0 -0.30699572014E+02  0.32989962836E+02  0.10483553911E+03  0.16925704326E+03  0.12500662007E+03 0.  0.
          2    1    1    2  501    0  0.18516230532E+02  0.45080584226E+02 -0.16222465940E+03  0.16938698292E+03  0.00000000000E+00 0. -1.
          1    1    1    2  502    0  0.12183341482E+02 -0.78070547062E+02  0.92806151042E+03  0.93141913834E+03  0.00000000000E+00 0. -1.
         22    1    3    3    0    0 -0.40540125095E+02  0.28799263737E+02  0.13146717067E+03  0.14055787526E+03  0.00000000000E+00 0. -1.
         22    1    3    3    0    0  0.98405530817E+01  0.41906990994E+01 -0.26631631561E+02  0.28699167993E+02  0.00000000000E+00 0. -1.
</event>
<event>
 7    1  0.5736319E-006  0.1016011E+03  0.7818608E-02  0.1289995E+00
          2   -1    0    0  502    0  0.00000000000E+00  0.00000000000E+00  0.28669937942E+04  0.28669937942E+04  0.00000000000E+00 0. -1.
          1   -1    0    0  501    0 -0.00000000000E+00 -0.00000000000E+00 -0.16158092014E+04  0.16158092014E+04  0.00000000000E+00 0. -1.
         25    2    1    2    0    0 -0.18971708018E+03 -0.11098900459E+01  0.18493054507E+03  0.29294789158E+03  0.12500143324E+03 0.  0.
          2    1    1    2  501    0  0.10042623351E+03  0.10798559969E+02 -0.15593988239E+04  0.15626665444E+04  0.00000000000E+00 0. -1.
          1    1    1    2  502    0  0.89290846666E+02 -0.96886699233E+01  0.26256528716E+04  0.26271885596E+04  0.00000000000E+00 0. -1.
         22    1    3    3    0    0 -0.15706145141E+03  0.51251281428E+02  0.12810192525E+03  0.20905763946E+03  0.00000000000E+00 0.  1.
         22    1    3    3    0    0 -0.32655628774E+02 -0.52361171474E+02  0.56828619821E+02  0.83890252112E+02  0.00000000000E+00 0.  1.
</event>
<event>
 7    1  0.5736319E-006  0.1372978E+03  0.7818608E-02  0.1300197E+00
          2   -1    0    0  502    0  0.00000000000E+00  0.00000000000E+00  0.27813402788E+03  0.27813402788E+03  0.00000000000E+00 0. -1.
          1   -1    0    0  501    0 -0.00000000000E+00 -0.00000000000E+00 -0.69658307329E+03  0.69658307329E+03  0.00000000000E+00 0. -1.
         25    2    1    2    0    0 -0.42917708791E+02 -0.15651120778E+03 -0.10168560787E+03  0.22869864838E+03  0.12500168413E+03 0.  0.
          2    1    1    2  501    0  0.80114148094E+02  0.10885550247E+03 -0.51828817694E+03  0.53562153756E+03  0.00000000000E+00 0. -1.
          1    1    1    2  502    0 -0.37196439303E+02  0.47655705307E+02  0.20152473940E+03  0.21039691522E+03  0.00000000000E+00 0. -1.
         22    1    3    3    0    0 -0.18751934529E+01 -0.97500546276E+02  0.76862706315E+01  0.97821018349E+02  0.00000000000E+00 0.  1.
         22    1    3    3    0    0 -0.41042515338E+02 -0.59010661503E+02 -0.10937187850E+03  0.13087763003E+03  0.00000000000E+00 0.  1.
</event>
<event>
 7    1  0.5736319E-006  0.1082622E+03  0.7818608E-02  0.1373169E+00
          2   -1    0    0  502    0  0.00000000000E+00  0.00000000000E+00  0.39778237486E+03  0.39778237486E+03  0.00000000000E+00 0. -1.
          1   -1    0    0  501    0 -0.00000000000E+00 -0.00000000000E+00 -0.14111171882E+04  0.14111171882E+04  0.00000000000E+00 0. -1.
         25    2    1    2    0    0  0.57697143200E+01 -0.68873788719E+02 -0.19489946698E+03  0.24163744603E+03  0.12500385881E+03 0.  0.
          2    1    1    2  501    0  0.25729608857E+01 -0.40513392588E+02 -0.11844575267E+04  0.11851529807E+04  0.00000000000E+00 0. -1.
          1    1    1    2  502    0 -0.83426752057E+01  0.10938718131E+03  0.36602218028E+03  0.38210913640E+03  0.00000000000E+00 0. -1.
         22    1    3    3    0    0  0.51251035336E+02 -0.64499692747E+02 -0.17159495103E+03  0.19034627973E+03  0.00000000000E+00 0. -1.
         22    1    3    3    0    0 -0.45481321016E+02 -0.43740959717E+01 -0.23304515956E+02  0.51291166304E+02  0.00000000000E+00 0. -1.
</event>
<event>
 7    1  0.5736319E-006  0.1266588E+03  0.7818608E-02  0.1264747E+00
          2   -1    0    0  502    0  0.00000000000E+00  0.00000000000E+00  0.32616216242E+03  0.32616216242E+03  0.00000000000E+00 0. -1.
          1   -1    0    0  501    0 -0.00000000000E+00 -0.00000000000E+00 -0.11959170693E+04  0.11959170693E+04  0.00000000000E+00 0. -1.
         25    2    1    2    0    0 -0.14755587624E+03 -0.12256417609E+03 -0.29818224445E+03  0.37594056124E+03  0.12499576315E+03 0.  0.
          2    1    1    2  501    0  0.57296221792E+02  0.10633731707E+03 -0.84714207574E+03  0.85571033564E+03  0.00000000000E+00 0. -1.
          1    1    1    2  502    0  0.90259654449E+02  0.16226859013E+02  0.27556941327E+03  0.29042833489E+03  0.00000000000E+00 0. -1.
         22    1    3    3    0    0 -0.11376228411E+03 -0.82721606616E+02 -0.10420920073E+03  0.17505507420E+03  0.00000000000E+00 0. -1.
         22    1    3    3    0    0 -0.33793592131E+02 -0.39842569469E+02 -0.19397304373E+03  0.20088548704E+03  0.00000000000E+00 0. -1.
</event>
<event>
 7    1  0.5736319E-006  0.9317877E+02  0.7818608E-02  0.1374784E+00
          2   -1    0    0  502    0  0.00000000000E+00  0.00000000000E+00  0.13761554083E+04  0.13761554083E+04  0.00000000000E+00 0. -1.
          1   -1    0    0  501    0 -0.00000000000E+00 -0.00000000000E+00 -0.24627761567E+03  0.24627761567E+03  0.00000000000E+00 0. -1.
         25    2    1    2    0    0  0.18284278819E+02  0.54869812982E+02  0.45160378656E+02  0.14493730086E+03  0.12498940015E+03 0.  0.
          2    1    1    2  501    0 -0.58054343455E+02 -0.79049150376E+02 -0.18369073930E+03  0.20823391336E+03  0.00000000000E+00 0. -1.
          1    1    1    2  502    0  0.39770064636E+02  0.24179337394E+02  0.12684081532E+04  0.12692618097E+04  0.00000000000E+00 0. -1.
         22    1    3    3    0    0  0.56370124986E+02  0.24176094923E+02  0.67463616566E+02  0.91177925600E+02  0.00000000000E+00 0. -1.
         22    1    3    3    0    0 -0.38085846167E+02  0.30693718059E+02 -0.22303237910E+02  0.53759375255E+02  0.00000000000E+00 0. -1.
</event>
<event>
 7    1  0.5736319E-006  0.8718457E+02  0.7818608E-02  0.1336174E+00
          2   -1    0    0  502    0  0.00000000000E+00  0.00000000000E+00  0.46161233947E+03  0.46161233947E+03  0.00000000000E+00 0. -1.
          1   -1    0    0  501    0 -0.00000000000E+00 -0.00000000000E+00 -0.16291222979E+03  0.16291222979E+03  0.00000000000E+00 0. -1.
         25    2    1    2    0    0  0.12824400905E+03 -0.47408309768E+02 -0.28049173604E+02  0.18736064503E+03  0.12499272568E+03 0.  0.
          2    1    1    2  501    0 -0.43095772878E+02  0.53843375092E+02 -0.26393227375E+02  0.73844140814E+02  0.00000000000E+00 0. -1.
          1    1    1    2  502    0 -0.85148236175E+02 -0.64350653242E+01  0.35314251065E+03  0.36331978341E+03  0.00000000000E+00 0. -1.
         22    1    3    3    0    0  0.10767361606E+03 -0.31718106465E+02  0.36327285657E+02  0.11798015747E+03  0.00000000000E+00 0. -1.
         22    1    3    3    0    0  0.20570392997E+02 -0.15690203303E+02 -0.64376459261E+02  0.69380487565E+02  0.00000000000E+00 0. -1.
</event>
<event>
 7    1  0.5736319E-006  0.5201618E+02  0.7818608E-02  0.1488548E+00
          2   -1    0    0  502    0  0.00000000000E+00  0.00000000000E+00  0.21015390106E+04  0.21015390106E+04  0.00000000000E+00 0. -1.
          1   -1    0    0  501    0 -0.00000000000E+00 -0.00000000000E+00 -0.40728543425E+03  0.40728543425E+03  0.00000000000E+00 0. -1.
         25    2    1    2    0    0  0.69236254386E+02 -0.52239000083E+02  0.82662886784E+02  0.17315291501E+03  0.12500482820E+03 0.  0.
          2    1    1    2  501    0 -0.26073159991E+02  0.23678058522E+02 -0.36084357175E+03  0.36255833103E+03  0.00000000000E+00 0. -1.
          1    1    1    2  502    0 -0.43163094395E+02  0.28560941561E+02  0.19724342614E+04  0.19731131988E+04  0.00000000000E+00 0. -1.
         22    1    3    3    0    0  0.63103664647E+01 -0.31197210879E+00 -0.31894009873E+02  0.32513780421E+02  0.00000000000E+00 0.  1.
         22    1    3    3    0    0  0.62925887921E+02 -0.51927027974E+02  0.11455689666E+03  0.14063913458E+03  0.00000000000E+00 0.  1.
</event>
<event>
 7    1  0.5736319E-006  0.1001852E+03  0.7818608E-02  0.1288405E+00
          2   -1    0    0  502    0  0.00000000000E+00  0.00000000000E+00  0.95337735212E+03  0.95337735212E+03  0.00000000000E+00 0. -1.
          1   -1    0    0  501    0 -0.00000000000E+00 -0.00000000000E+00 -0.76407252332E+02  0.76407252332E+02  0.00000000000E+00 0. -1.
         25    2    1    2    0    0  0.17329377076E+02 -0.16097528209E+02  0.15223027647E+03  0.19839005550E+03  0.12500047728E+03 0.  0.
          2    1    1    2  501    0 -0.11076428808E+03  0.52249783004E+02  0.25604340689E+02  0.12511734333E+03  0.00000000000E+00 0. -1.
          1    1    1    2  502    0  0.93434911009E+02 -0.36152254795E+02  0.69913548263E+03  0.70627720563E+03  0.00000000000E+00 0. -1.
         22    1    3    3    0    0  0.32631976905E+02  0.12921508867E+02  0.16071610003E+03  0.16450372675E+03  0.00000000000E+00 0.  1.
         22    1    3    3    0    0 -0.15302599830E+02 -0.29019037076E+02 -0.84858235537E+01  0.33886328744E+02  0.00000000000E+00 0.  1.
</event>
<event>
 7    1  0.5736319E-006  0.1148856E+03  0.7818608E-02  0.1307756E+00
          2   -1    0    0  502    0  0.00000000000E+00  0.00000000000E+00  0.13405231876E+03  0.13405231876E+03  0.00000000000E+00 0. -1.
          1   -1    0    0  501    0 -0.00000000000E+00 -0.00000000000E+00 -0.25270709386E+03  0.25270709386E+03  0.00000000000E+00 0. -1.
         25    2    1    2    0    0 -0.64248403952E+02 -0.38121343955E+02 -0.80508120553E+01  0.14584538582E+03  0.12499986686E+03 0.  0.
          2    1    1    2  501    0  0.13130172959E+03  0.31156149314E+02 -0.10901787754E+03  0.17348125967E+03  0.00000000000E+00 0. -1.
          1    1    1    2  502    0 -0.67053325638E+02  0.69651946413E+01 -0.15860854969E+01  0.67432767130E+02  0.00000000000E+00 0. -1.
         22    1    3    3    0    0  0.10147744667E+02  0.37238858632E+02  0.58621962425E+01  0.39039398802E+02  0.00000000000E+00 0. -1.
         22    1    3    3    0    0 -0.74396148619E+02 -0.75360202586E+02 -0.13913008298E+02  0.10680598702E+03  0.00000000000E+00 0. -1.
</event>
<event>
 7    1  0.5736319E-006  0.1317373E+03  0.7818608E-02  0.1370265E+00
          2   -1    0    0  502    0  0.00000000000E+00  0.00000000000E+00  0.12140975888E+03  0.12140975888E+03  0.00000000000E+00 0. -1.
          1   -1    0    0  501    0 -0.00000000000E+00 -0.00000000000E+00 -0.12121901328E+04  0.12121901328E+04  0.00000000000E+00 0. -1.
         25    2    1    2    0    0 -0.72143970164E+02  0.82693986387E+02 -0.15608029617E+03  0.22809753139E+03  0.12499750861E+03 0.  0.
          2    1    1    2  501    0 -0.33471652855E+02  0.68758205293E+01 -0.96345931546E+03  0.96406508131E+03  0.00000000000E+00 0. -1.
          1    1    1    2  502    0  0.10561562302E+03 -0.89569806916E+02  0.28759237697E+02  0.14143727900E+03  0.00000000000E+00 0. -1.
         22    1    3    3    0    0 -0.49730303045E+02  0.51783847886E+02 -0.17226493345E+03  0.18662764329E+03  0.00000000000E+00 0.  1.
         22    1    3    3    0    0 -0.22413667119E+02  0.30910138501E+02  0.16184637276E+02  0.41469888107E+02  0.00000000000E+00 0.  1.
</event>
<event>
 7    1  0.5736319E-006  0.5693291E+02  0.7818608E-02  0.1422289E+00
          2   -1    0    0  502    0  0.00000000000E+00  0.00000000000E+00  0.24883653715E+02  0.24883653715E+02  0.00000000000E+00 0. -1.
          1   -1    0    0  501    0 -0.00000000000E+00 -0.00000000000E+00 -0.10356940423E+04  0.10356940423E+04  0.00000000000E+00 0. -1.
         25    2    1    2    0    0  0.19278079788E+02  0.34191018937E+02 -0.43228422629E+03  0.45170756489E+03  0.12501760571E+03 0.  0.
          2    1    1    2  501    0 -0.47726124896E+02  0.21259222446E+02 -0.52238159515E+03  0.52498787461E+03  0.00000000000E+00 0. -1.
          1    1    1    2  502    0  0.28448045108E+02 -0.55450241384E+02 -0.56144567161E+02  0.83882256537E+02  0.00000000000E+00 0. -1.
         22    1    3    3    0    0  0.71294093620E+02  0.19938330775E+02 -0.20047346693E+03  0.21370539479E+03  0.00000000000E+00 0.  1.
         22    1    3    3    0    0 -0.52016013832E+02  0.14252688163E+02 -0.23181075936E+03  0.23800217010E+03  0.00000000000E+00 0.  1.
</event>
<event>
 7    1  0.5736319E-006  0.1394019E+03  0.7818608E-02  0.1260539E+00
          2   -1    0    0  502    0  0.00000000000E+00  0.00000000000E+00  0.14251682393E+04  0.14251682393E+04  0.00000000000E+00 0. -1.
          1   -1    0    0  501    0 -0.00000000000E+00 -0.00000000000E+00 -0.82623414507E+03  0.82623414507E+03  0.00000000000E+00 0. -1.
         25    2    1    2    0    0 -0.16264810437E+03  0.96107372709E+02  0.20803174319E+02  0.22749441222E+03  0.12501960880E+03 0.  0.
          2    1    1    2  501    0  0.77621811846E+02 -0.11369454038E+03 -0.71486519946E+03  0.72799989532E+03  0.00000000000E+00 0. -1.
          1    1    1    2  502    0  0.85026292529E+02  0.17587167672E+02  0.12929961194E+04  0.12959080768E+04  0.00000000000E+00 0. -1.
         22    1    3    3    0    0 -0.31616836587E+02 -0.14895977252E+02  0.41800035668E+02  0.54486305398E+02  0.00000000000E+00 0.  1.
         22    1    3    3    0    0 -0.13103126779E+03  0.11100334996E+03 -0.20996861349E+02  0.17300810682E+03  0.00000000000E+00 0.  1.
</event>
<event>
 7    1  0.5736319E-006  0.5433571E+02  0.7818608E-02  0.1490094E+00
          2   -1    0    0  502    0  0.00000000000E+00  0.00000000000E+00  0.24073739756E+03  0.24073739756E+03  0.00000000000E+00 0. -1.
          1   -1    0    0  501    0 -0.00000000000E+00 -0.00000000000E+00 -0.18180146929E+04  0.18180146929E+04  0.00000000000E+00 0. -1.
         25    2    1    2    0    0  0.13286693040E+02  0.63227246920E+02 -0.69816531689E+02  0.15709507194E+03  0.12502116847E+03 0.  0.
          2    1    1    2  501    0  0.17864523200E+02 -0.51303358691E+02 -0.17027113902E+04  0.17035777805E+04  0.00000000000E+00 0. -1.
          1    1    1    2  502    0 -0.31151216240E+02 -0.11923888229E+02  0.19525062654E+03  0.19807923805E+03  0.00000000000E+00 0. -1.
         22    1    3    3    0    0 -0.51168358955E+02  0.29695748747E+01 -0.35849965321E+02  0.62547896420E+02  0.00000000000E+00 0.  1.
         22    1    3    3    0    0  0.64455051994E+02  0.60257672045E+02 -0.33966566368E+02  0.94547175520E+02  0.00000000000E+00 0.  1.
</event>
<event>
 7    1  0.5736319E-006  0.1698706E+03  0.7818608E-02  0.1396248E+00
          2   -1    0    0  502    0  0.00000000000E+00  0.00000000000E+00  0.22720237925E+04  0.22720237925E+04  0.00000000000E+00 0. -1.
          1   -1    0    0  501    0 -0.00000000000E+00 -0.00000000000E+00 -0.81076063520E+02  0.81076063520E+02  0.00000000000E+00 0. -1.
         25    2    1    2    0    0  0.17754745754E+03  0.32508541184E+02  0.50618563886E+03  0.55175084959E+03  0.12500077641E+03 0.  0.
          2    1    1    2  501    0 -0.16062251526E+02  0.14233282380E+02 -0.52111874775E+02  0.56358049505E+02  0.00000000000E+00 0. -1.
          1    1    1    2  502    0 -0.16148520601E+03 -0.46741823564E+02  0.17368739649E+04  0.17449909569E+04  0.00000000000E+00 0. -1.
         22    1    3    3    0    0  0.13713027171E+03 -0.13746459405E+01  0.20936175010E+03  0.25027773268E+03  0.00000000000E+00 0. -1.
         22    1    3    3    0    0  0.40417185834E+02  0.33883187124E+02  0.29682388876E+03  0.30147311690E+03  0.00000000000E+00 0. -1.
</event>
<event>
 7    1  0.5736319E-006  0.1953236E+03  0.7818608E-02  0.1382525E+00
          2   -1    0    0  502    0  0.00000000000E+00  0.00000000000E+00  0.39306602408E+04  0.39306602408E+04  0.00000000000E+00 0. -1.
          1   -1    0    0  501    0 -0.00000000000E+00 -0.00000000000E+00 -0.12152122672E+03  0.12152122672E+03  0.00000000000E+00 0. -1.
         25    2    1    2    0    0 -0.32885168217E+02 -0.21191946108E+03  0.38677805082E+03  0.45957998777E+03  0.12500084914E+03 0.  0.
          2    1    1    2  501    0 -0.17514093388E+00  0.20841834785E+02 -0.81121629431E+02  0.83756381924E+02  0.00000000000E+00 0. -1.
          1    1    1    2  502    0  0.33060309151E+02  0.19107762630E+03  0.35034825927E+04  0.35088450978E+04  0.00000000000E+00 0. -1.
         22    1    3    3    0    0 -0.39567476608E+02 -0.22338771294E+03  0.32472768949E+03  0.39612589896E+03  0.00000000000E+00 0. -1.
         22    1    3    3    0    0  0.66823083912E+01  0.11468251862E+02  0.62050361330E+02  0.63454088815E+02  0.00000000000E+00 0. -1.
</event>
<event>
 7    1  0.5736319E-006  0.9163396E+02  0.7818608E-02  0.1351908E+00
          2   -1    0    0  502    0  0.00000000000E+00  0.00000000000E+00  0.87258851480E+03  0.87258851480E+03  0.00000000000E+00 0. -1.
          1   -1    0    0  501    0 -0.00000000000E+00 -0.00000000000E+00 -0.46716392080E+03  0.46716392080E+03  0.00000000000E+00 0. -1.
         25    2    1    2    0    0 -0.67687781402E+02  0.56520275517E+02  0.18337175947E+03  0.23880167689E+03  0.12499944567E+03 0.  0.
          2    1    1    2  501    0  0.45546321510E+02  0.34776380639E+02 -0.43422160700E+03  0.43798660714E+03  0.00000000000E+00 0. -1.
          1    1    1    2  502    0  0.22141459892E+02 -0.91296656156E+02  0.65627444152E+03  0.66296415157E+03  0.00000000000E+00 0. -1.
         22    1    3    3    0    0  0.11971414480E+02 -0.22532930957E+02  0.21009362470E+01  0.25601985768E+02  0.00000000000E+00 0. -1.
         22    1    3    3    0    0 -0.79659195881E+02  0.79053206475E+02  0.18127082322E+03  0.21319969112E+03  0.00000000000E+00 0. -1.
</event>
<event>
 7    1  0.5736319E-006  0.1632892E+03  0.7818608E-02  0.1254779E+00
          2   -1    0    0  502    0  0.00000000000E+00  0.00000000000E+00  0.16169568629E+04  0.16169568629E+04  0.00000000000E+00 0. -1.
          1   -1    0    0  501    0 -0.00000000000E+00 -0.00000000000E+00 -0.68374199562E+03  0.68374199562E+03  0.00000000000E+00 0. -1.
         25    2    1    2    0    0  0.38368717871E+00 -0.86823063480E+02 -0.30168434214E+03  0.33790058906E+03  0.12499989691E+03 0.  0.
          2    1    1    2  501    0  0.17272876716E+02 -0.76532803343E+02 -0.35543880073E+03  0.36399500453E+03  0.00000000000E+00 0. -1.
          1    1    1    2  502    0 -0.17656563895E+02  0.16335586682E+03  0.15903380101E+04  0.15988032649E+04  0.00000000000E+00 0. -1.
         22    1    3    3    0    0  0.15310672042E+01 -0.17289570093E-02 -0.21568740970E+03  0.21569284381E+03  0.00000000000E+00 0.  1.
         22    1    3    3    0    0 -0.11473800255E+01 -0.86821334523E+02 -0.85996932439E+02  0.12220774525E+03  0.00000000000E+00 0.  1.
</event>
<event>
 7    1  0.5736319E-006  0.1824668E+03  0.7818608E-02  0.1336099E+00
          2   -1    0    0  502    0  0.00000000000E+00  0.00000000000E+00  0.13732965751E+03  0.13732965751E+03  0.00000000000E+00 0. -1.
          1   -1    0    0  501    0 -0.00000000000E+00 -0.00000000000E+00 -0.10057522284E+04  0.10057522284E+04  0.00000000000E+00 0. -1.
         25    2    1    2    0    0  0.57985264993E+02 -0.16184406925E+03 -0.31719703374E+03  0.38183066388E+03  0.12499961584E+03 0.  0.
          2    1    1    2  501    0 -0.25640812713E+02 -0.20733216115E+02 -0.57354542806E+03  0.57449253745E+03  0.00000000000E+00 0. -1.
          1    1    1    2  502    0 -0.32344452280E+02  0.18257728536E+03  0.22319890948E+02  0.18675868455E+03  0.00000000000E+00 0. -1.
         22    1    3    3    0    0 -0.39343902123E+02 -0.45998415511E+02 -0.76868263606E+02  0.97839290745E+02  0.00000000000E+00 0. -1.
         22    1    3    3    0    0  0.97329167117E+02 -0.11584565374E+03 -0.24032877013E+03  0.28399137313E+03  0.00000000000E+00 0. -1.
</event>
<event>
 7    1  0.5736319E-006  0.1054076E+03  0.7818608E-02  0.1450518E+00
          2   -1    0    0  502    0  0.00000000000E+00  0.00000000000E+00  0.77014885146E+02  0.77014885146E+02  0.00000000000E+00 0. -1.
          1   -1    0    0  501    0 -0.00000000000E+00 -0.00000000000E+00 -0.19143739077E+04  0.19143739077E+04  0.00000000000E+00 0. -1.
         25    2    1    2    0    0 -0.68227850665E+02  0.97839269318E+02 -0.62472543383E+03  0.64817730299E+03  0.12499754479E+03 0.  0.
          2    1    1    2  501    0 -0.42367874425E+01 -0.22430823858E+02 -0.12358680669E+04  0.12360788693E+04  0.00000000000E+00 0. -1.
          1    1    1    2  502    0  0.72464638107E+02 -0.75408445460E+02  0.23234478176E+02  0.10713262061E+03  0.00000000000E+00 0. -1.
         22    1    3    3    0    0 -0.98237354619E+02  0.67205644301E+02 -0.54291077594E+03  0.55580508013E+03  0.00000000000E+00 0. -1.
         22    1    3    3    0    0  0.30009503955E+02  0.30633625017E+02 -0.81814657894E+02  0.92372222858E+02  0.00000000000E+00 0. -1.
</event>
<event>
 7    1  0.5736319E-006  0.5025992E+02  0.7818608E-02  0.1475814E+00
          2   -1    0    0  502    0  0.00000000000E+00  0.00000000000E+00  0.15414957474E+04  0.15414957474E+04  0.00000000000E+00 0. -1.
          1   -1    0    0  501    0 -0.00000000000E+00 -0.00000000000E+00 -0.12179468251E+03  0.12179468251E+03  0.00000000000E+00 0. -1.
         25    2    1    2    0    0 -0.23802960569E+02 -0.88660002120E+01  0.35128955373E+03  0.37373062614E+03  0.12500017385E+03 0.  0.
          2    1    1    2  501    0  0.16489328925E+02  0.48060456910E+02 -0.10438039028E+03  0.11609035860E+03  0.00000000000E+00 0. -1.
          1    1    1    2  502    0  0.73136316441E+01 -0.39194456698E+02  0.11727919014E+04  0.11734694451E+04  0.00000000000E+00 0. -1.
         22    1    3    3    0    0  0.92863383700E+00  0.47288141993E+02  0.61866609573E+02  0.77874951775E+02  0.00000000000E+00 0.  1.
         22    1    3    3    0    0 -0.24731594406E+02 -0.56154142205E+02  0.28942294416E+03  0.29585567436E+03  0.00000000000E+00 0.  1.
</event>
<event>
 7    1  0.5736319E-006  0.1053925E+03  0.7818608E-02  0.1326238E+00
          2   -1    0    0  502    0  0.00000000000E+00  0.00000000000E+00  0.13424677579E+04  0.13424677579E+04  0.00000000000E+00 0. -1.
          1   -1    0    0  501    0 -0.00000000000E+00 -0.00000000000E+00 -0.17640239794E+03  0.17640239794E+03  0.00000000000E+00 0. -1.
         25    2    1    2    0    0  0.14524945108E+03 -0.16080975609E+02  0.56077613410E+03  0.59283303079E+03  0.12500051603E+03 0.  0.
          2    1    1    2  501    0 -0.49214634286E+02  0.38122051203E+02 -0.15101428561E+03  0.16334223420E+03  0.00000000000E+00 0. -1.
          1    1    1    2  502    0 -0.96034816793E+02 -0.22041075593E+02  0.75630351144E+03  0.76269489081E+03  0.00000000000E+00 0. -1.
         22    1    3    3    0    0  0.17714585220E+02  0.46289887472E+02  0.16946495082E+03  0.17656423695E+03  0.00000000000E+00 0. -1.
         22    1    3    3    0    0  0.12753486586E+03 -0.62370863081E+02  0.39131118327E+03  0.41626879384E+03  0.00000000000E+00 0. -1.
</event>
<event>
 7    1  0.5736319E-006  0.2301529E+03  0.7818608E-02  0.1136266E+00
          2   -1    0    0  502    0  0.00000000000E+00  0.00000000000E+00  0.73581931906E+03  0.73581931906E+03  0.00000000000E+00 0. -1.
          1   -1    0    0  501    0 -0.00000000000E+00 -0.00000000000E+00 -0.19706390565E+04  0.19706390565E+04  0.00000000000E+00 0. -1.
         25    2    1    2    0    0 -0.15951837382E+03  0.17241425116E+03  0.70571662964E+02  0.27527709776E+03  0.12499734137E+03 0.  0.
          2    1    1    2  501    0 -0.87585003121E+02 -0.18455723436E+03 -0.18351579493E+04  0.18464932181E+04  0.00000000000E+00 0. -1.
          1    1    1    2  502    0  0.24710337694E+03  0.12142983201E+02  0.52976654887E+03  0.58468805976E+03  0.00000000000E+00 0. -1.
         22    1    3    3    0    0 -0.16289279086E+03  0.98147326392E+02  0.37169017832E+02  0.19377434010E+03  0.00000000000E+00 0.  1.
         22    1    3    3    0    0  0.33744170468E+01  0.74266924766E+02  0.33402645132E+02  0.81502757661E+02  0.00000000000E+00 0.  1.
</event>
<event>
 7    1  0.5736319E-006  0.9738638E+02  0.7818608E-02  0.1313861E+00
          2   -1    0    0  502    0  0.00000000000E+00  0.00000000000E+00  0.23896970083E+04  0.23896970083E+04  0.00000000000E+00 0. -1.
          1   -1    0    0  501    0 -0.00000000000E+00 -0.00000000000E+00 -0.16170055872E+03  0.16170055872E+03  0.00000000000E+00 0. -1.
         25    2    1    2    0    0 -0.47911407209E+02 -0.31896858943E+02  0.16469435957E+04  0.16526830738E+04  0.12500088995E+03 0.  0.
          2    1    1    2  501    0  0.93975222437E+02 -0.27603163806E+02 -0.14158940319E+03  0.17216514218E+03  0.00000000000E+00 0. -1.
          1    1    1    2  502    0 -0.46063815227E+02  0.59500022749E+02  0.72264225711E+03  0.72654935107E+03  0.00000000000E+00 0. -1.
         22    1    3    3    0    0 -0.14371925321E+02 -0.75228460432E+02  0.11907224169E+04  0.11931830319E+04  0.00000000000E+00 0.  1.
         22    1    3    3    0    0 -0.33539481888E+02  0.43331601489E+02  0.45622117877E+03  0.45950004189E+03  0.00000000000E+00 0.  1.
</event>
<event>
 7    1  0.5736319E-006  0.4386882E+02  0.7818608E-02  0.1582469E+00
          2   -1    0    0  502    0  0.00000000000E+00  0.00000000000E+00  0.43195691447E+03  0.43195691447E+03  0.00000000000E+00 0. -1.
          1   -1    0    0  501    0 -0.00000000000E+00 -0.00000000000E+00 -0.31455840950E+03  0.31455840950E+03  0.00000000000E+00 0. -1.
         25    2    1    2    0    0 -0.19328875730E+02 -0.17731645462E+02  0.34284199928E+03  0.36585922509E+03  0.12499727767E+03 0.  0.
          2    1    1    2  501    0  0.17701835197E+02  0.40236852168E+02 -0.29977214346E+03  0.30297804745E+03  0.00000000000E+00 0. -1.
          1    1    1    2  502    0  0.16270405327E+01 -0.22505206706E+02  0.74328649153E+02  0.77678051435E+02  0.00000000000E+00 0. -1.
         22    1    3    3    0    0  0.18816315189E+02 -0.61920060841E+02  0.22836301184E+03  0.23735587802E+03  0.00000000000E+00 0.  1.
         22    1    3    3    0    0 -0.38145190919E+02  0.44188415379E+02  0.11447898744E+03  0.12850334707E+03  0.00000000000E+00 0.  1.
</event>
<event>
 7    1  0.5736319E-006  0.9484299E+02  0.7818608E-02  0.1380088E+00
          2   -1    0    0  502    0  0.00000000000E+00  0.00000000000E+00  0.42656422936E+03  0.42656422936E+03  0.00000000000E+00 0. -1.
          1   -1    0    0  501    0 -0.00000000000E+00 -0.00000000000E+00 -0.37200619580E+03  0.37200619580E+03  0.00000000000E+00 0. -1.
         25    2    1    2    0    0  0.84582046280E+02  0.10321819791E+03 -0.13756980121E+03  0.22881853716E+03  0.12499741521E+03 0.  0.
          2    1    1    2  501    0 -0.14178933446E+02 -0.41424536467E+02 -0.18039463706E+03  0.18563205395E+03  0.00000000000E+00 0. -1.
          1    1    1    2  502    0 -0.70403112834E+02 -0.61793661438E+02  0.37252247184E+03  0.38411983405E+03  0.00000000000E+00 0. -1.
         22    1    3    3    0    0  0.36308940714E+02  0.31576652547E+02 -0.13397725826E+03  0.14235634827E+03  0.00000000000E+00 0.  1.
         22    1    3    3    0    0  0.48273105567E+02  0.71641545358E+02 -0.35925429536E+01  0.86462188888E+02  0.00000000000E+00 0.  1.
</event>
<event>
 7    1  0.5736319E-006  0.1328336E+03  0.7818608E-02  0.1317119E+00
          2   -1    0    0  502    0  0.00000000000E+00  0.00000000000E+00  0.23466834003E+04  0.23466834003E+04  0.00000000000E+00 0. -1.
          1   -1    0    0  501    0 -0.00000000000E+00 -0.00000000000E+00 -0.29645906308E+02  0.29645906308E+02  0.00000000000E+00 0. -1.
         25    2    1    2    0    0  0.45983653951E+02  0.10884024854E+03  0.65433563427E+03  0.67656545039E+03  0.12499996101E+03 0.  0.
          2    1    1    2  501    0 -0.98999381621E+02 -0.10113195882E+03  0.25985031772E+03  0.29588974007E+03  0.00000000000E+00 0. -1.
          1    1    1    2  502    0  0.53015727670E+02 -0.77082897113E+01  0.14028515420E+04  0.14038741162E+04  0.00000000000E+00 0. -1.
         22    1    3    3    0    0  0.59865255061E+02  0.12821236967E+03  0.61035740712E+03  0.62654483074E+03  0.00000000000E+00 0. -1.
         22    1    3    3    0    0 -0.13881601110E+02 -0.19372121137E+02  0.43978227151E+02  0.50020619649E+02  0.00000000000E+00 0. -1.
</event>
<event>
 7    1  0.6132615E-006  0.5977256E+02  0.7818608E-02  0.1415729E+00
          2   -1    0    0  502    0  0.00000000000E+00  0.00000000000E+00  0.24772699091E+04  0.24772699091E+04  0.00000000000E+00 0. -1.
          1   -1    0    0  501    0 -0.00000000000E+00 -0.00000000000E+00 -0.96090470239E+03  0.96090470239E+03  0.00000000000E+00 0. -1.
         25    2    1    2    0    0  0.10343359211E+02  0.11121090848E+03 -0.15992475603E+02  0.16839072375E+03  0.12499930130E+03 0.  0.
          2    1    1    2  501    0 -0.13704548102E+01 -0.52325415148E+02 -0.86755475278E+03  0.86913236983E+03  0.00000000000E+00 0. -1.
          1    1    1    2  502    0 -0.89729044010E+01 -0.58885493335E+02  0.23999124350E+04  0.24006515179E+04  0.00000000000E+00 0. -1.
         22    1    3    3    0    0  0.21428201214E+02  0.13306839474E+03  0.67568173165E+01  0.13495191761E+03  0.00000000000E+00 0.  1.
         22    1    3    3    0    0 -0.11084842003E+02 -0.21857486260E+02 -0.22749292919E+02  0.33438806142E+02  0.00000000000E+00 0.  1.
</event>
<event>
 7    1  0.5736319E-006  0.6238552E+02  0.7818608E-02  0.1469722E+00
          2   -1    0    0  502    0  0.00000000000E+00  0.00000000000E+00  0.16469812988E+03  0.16469812988E+03  0.00000000000E+00 0. -1.
          1   -1    0    0  501    0 -0.00000000000E+00 -0.00000000000E+00 -0.31183610639E+03  0.31183610639E+03  0.00000000000E+00 0. -1.
         25    2    1    2    0    0 -0.87318293484E+02 -0.22006989944E+02 -0.86806853712E+02  0.17683026895E+03  0.12499888873E+03 0.  0.
          2    1    1    2  501    0  0.33077497208E+02 -0.56002865930E+01 -0.17053884522E+03  0.17380731216E+03  0.00000000000E+00 0. -1.
          1    1    1    2  502    0  0.54240796276E+02  0.27607276537E+02  0.11020772242E+03  0.12589665516E+03  0.00000000000E+00 0. -1.
         22    1    3    3    0    0 -0.11140383804E+02 -0.60989644904E+02 -0.11957225820E+02  0.63141271655E+02  0.00000000000E+00 0.  1.
         22    1    3    3    0    0 -0.76177909680E+02  0.38982654961E+02 -0.74849627892E+02  0.11368899730E+03  0.00000000000E+00 0.  1.
</event>
<event>
 7    1  0.5736319E-006  0.5598739E+02  0.7818608E-02  0.1450374E+00
          2   -1    0    0  502    0  0.00000000000E+00  0.00000000000E+00  0.24941483595E+03  0.24941483595E+03  0.00000000000E+00 0. -1.
          1   -1    0    0  501    0 -0.00000000000E+00 -0.00000000000E+00 -0.92892519726E+03  0.92892519726E+03  0.00000000000E+00 0. -1.
         25    2    1    2    0    0 -0.19301075111E+02 -0.65147492835E-01 -0.60076601219E+03  0.61393545412E+03  0.12499761872E+03 0.  0.
          2    1    1    2  501    0 -0.24363891199E+02  0.35459476628E+02 -0.31684841416E+03  0.31975598702E+03  0.00000000000E+00 0. -1.
          1    1    1    2  502    0  0.43664966310E+02 -0.35394329135E+02  0.23810406504E+03  0.24464859207E+03  0.00000000000E+00 0. -1.
         22    1    3    3    0    0  0.17566907091E+02  0.38780099072E+02 -0.81821405191E+02  0.92234671659E+02  0.00000000000E+00 0. -1.
         22    1    3    3    0    0 -0.36867982202E+02 -0.38845246565E+02 -0.51894460699E+03  0.52170078246E+03  0.00000000000E+00 0. -1.
</event>
<event>
 7    1  0.5736319E-006  0.1528520E+03  0.7818608E-02  0.1225807E+00
          2   -1    0    0  502    0  0.00000000000E+00  0.00000000000E+00  0.28332574723E+04  0.28332574723E+04  0.00000000000E+00 0. -1.
          1   -1    0    0  501    0 -0.00000000000E+00 -0.00000000000E+00 -0.12800494420E+04  0.12800494420E+04  0.00000000000E+00 0. -1.
         25    2    1    2    0    0 -0.17604008929E+03  0.64027307961E+02 -0.11404549626E+03  0.25243037710E+03  0.12500044345E+03 0.  0.
          2    1    1    2  501    0  0.29759524929E+02 -0.10846548032E+03 -0.10918062889E+04  0.10975843304E+04  0.00000000000E+00 0. -1.
          1    1    1    2  502    0  0.14628056436E+03  0.44438172361E+02  0.27590598155E+04  0.27632922068E+04  0.00000000000E+00 0. -1.
         22    1    3    3    0    0 -0.10246860637E+03 -0.28527791742E+02 -0.44831670083E+02  0.11542759131E+03  0.00000000000E+00 0.  1.
         22    1    3    3    0    0 -0.73571482922E+02  0.92555099703E+02 -0.69213826173E+02  0.13700278579E+03  0.00000000000E+00 0.  1.
</event>
<event>
 7    1  0.5736319E-006  0.1136624E+03  0.7818608E-02  0.1418123E+00
          2   -1    0    0  502    0  0.00000000000E+00  0.00000000000E+00  0.11036019349E+04  0.11036019349E+04  0.00000000000E+00 0. -1.
          1   -1    0    0  501    0 -0.00000000000E+00 -0.00000000000E+00 -0.10403645052E+04  0.10403645052E+04  0.00000000000E+00 0. -1.
         25    2    1    2    0    0  0.10864711988E+03 -0.82352521113E+02  0.20883587678E+03  0.27897063402E+03  0.12500422722E+03 0.  0.
          2    1    1    2  501    0 -0.25854524783E+02  0.78568844468E+01 -0.10015069829E+04  0.10018714608E+04  0.00000000000E+00 0. -1.
          1    1    1    2  502    0 -0.82792595098E+02  0.74495636666E+02  0.85590853584E+03  0.86312434527E+03  0.00000000000E+00 0. -1.
         22    1    3    3    0    0  0.41716400320E+02 -0.90085978346E+02  0.18025067918E+03  0.20578155626E+03  0.00000000000E+00 0. -1.
         22    1    3    3    0    0  0.66930719561E+02  0.77334572333E+01  0.28585197592E+02  0.73189077758E+02  0.00000000000E+00 0. -1.
</event>
<event>
 7    1  0.5736319E-006  0.9264791E+02  0.7818608E-02  0.1321445E+00
          2   -1    0    0  502    0  0.00000000000E+00  0.00000000000E+00  0.34343010248E+03  0.34343010248E+03  0.00000000000E+00 0. -1.
          1   -1    0    0  501    0 -0.00000000000E+00 -0.00000000000E+00 -0.11515386587E+04  0.11515386587E+04  0.00000000000E+00 0. -1.
         25    2    1    2    0    0 -0.59327379123E+02  0.14023049008E+02  0.86375589190E+02  0.16371410008E+03  0.12500072136E+03 0.  0.
          2    1    1    2  501    0 -0.36358606875E+02 -0.64331593661E+02 -0.10981726147E+04  0.11006559835E+04  0.00000000000E+00 0. -1.
          1    1    1    2  502    0  0.95685985997E+02  0.50308544653E+02  0.20368846932E+03  0.23059867761E+03  0.00000000000E+00 0. -1.
         22    1    3    3    0    0  0.28549587808E+02  0.36433952996E+02  0.16186768267E+02  0.49035939492E+02  0.00000000000E+00 0. -1.
         22    1    3    3    0    0 -0.87876966930E+02 -0.22410903988E+02  0.70188820923E+02  0.11467816059E+03  0.00000000000E+00 0. -1.
</event>
<event>
 7    1  0.5736319E-006  0.1033806E+03  0.7818608E-02  0.1338512E+00
          2   -1    0    0  502    0  0.00000000000E+00  0.00000000000E+00  0.57919925664E+02  0.57919925664E+02  0.00000000000E+00 0. -1.
          1   -1    0    0  501    0 -0.00000000000E+00 -0.00000000000E+00 -0.16536523588E+04  0.16536523588E+04  0.00000000000E+00 0. -1.
         25    2    1    2    0    0 -0.52704023192E+02  0.13031960895E+03 -0.33623974836E+03  0.38528386011E+03  0.12500227976E+03 0.  0.
          2    1    1    2  501    0  0.67305977135E+02 -0.75230631497E+02 -0.12650095444E+04  0.12690306892E+04  0.00000000000E+00 0. -1.
          1    1    1    2  502    0 -0.14601953943E+02 -0.55088977456E+02  0.55168596989E+01  0.57257735173E+02  0.00000000000E+00 0. -1.
         22    1    3    3    0    0 -0.70642121181E+02  0.47622632267E+02 -0.25145920263E+03  0.26549944440E+03  0.00000000000E+00 0.  1.
         22    1    3    3    0    0  0.17938097989E+02  0.82696976686E+02 -0.84780545730E+02  0.11978441571E+03  0.00000000000E+00 0.  1.
</event>
<event>
 7    1  0.5736319E-006  0.3360966E+02  0.7818608E-02  0.1587196E+00
          2   -1    0    0  502    0  0.00000000000E+00  0.00000000000E+00  0.67023988049E+03  0.67023988049E+03  0.00000000000E+00 0. -1.
          1   -1    0    0  501    0 -0.00000000000E+00 -0.00000000000E+00 -0.15656945923E+03  0.15656945923E+03  0.00000000000E+00 0. -1.
         25    2    1    2    0    0  0.16819706469E+02  0.79067425789E+01 -0.24540175901E+02  0.12869915922E+03  0.12496333161E+03 0.  0.
          2    1    1    2  501    0  0.11567294644E+02 -0.26166962601E+02 -0.76912764816E+02  0.82061474693E+02  0.00000000000E+00 0. -1.
          1    1    1    2  502    0 -0.28387001113E+02  0.18260220022E+02  0.61512336198E+03  0.61604870581E+03  0.00000000000E+00 0. -1.
         22    1    3    3    0    0 -0.29204592427E+02 -0.20921159198E+02  0.33565723043E+02  0.49165647402E+02  0.00000000000E+00 0.  1.
         22    1    3    3    0    0  0.46024298896E+02  0.28827901777E+02 -0.58105898944E+02  0.79533511816E+02  0.00000000000E+00 0.  1.
</event>
<event>
 7    1  0.5736319E-006  0.8170699E+02  0.7818608E-02  0.1324855E+00
          2   -1    0    0  502    0  0.00000000000E+00  0.00000000000E+00  0.11680594879E+04  0.11680594879E+04  0.00000000000E+00 0. -1.
          1   -1    0    0  501    0 -0.00000000000E+00 -0.00000000000E+00 -0.10160309162E+04  0.10160309162E+04  0.00000000000E+00 0. -1.
         25    2    1    2    0    0 -0.30978238655E+02  0.37587552591E+02  0.31362918758E+03  0.34111809562E+03  0.12500324986E+03 0.  0.
          2    1    1    2  501    0 -0.43848345822E+02 -0.69348811542E+02 -0.99863507084E+03  0.10019999700E+04  0.00000000000E+00 0. -1.
          1    1    1    2  502    0  0.74826584477E+02  0.31761258951E+02  0.83703445502E+03  0.84097233855E+03  0.00000000000E+00 0. -1.
         22    1    3    3    0    0  0.43010070171E+02  0.15710067208E+02  0.18958629836E+03  0.19503752684E+03  0.00000000000E+00 0.  1.
         22    1    3    3    0    0 -0.73988308826E+02  0.21877485383E+02  0.12404288922E+03  0.14608056878E+03  0.00000000000E+00 0.  1.
</event>
<event>
 7    1  0.5736319E-006  0.4664356E+02  0.7818608E-02  0.1494688E+00
          2   -1    0    0  502    0  0.00000000000E+00  0.00000000000E+00  0.14919404876E+04  0.14919404876E+04  0.00000000000E+00 0. -1.
          1   -1    0    0  501    0 -0.00000000000E+00 -0.00000000000E+00 -0.14004866311E+03  0.14004866311E+03  0.00000000000E+00 0. -1.
         25    2    1    2    0    0  0.11990380544E+02  0.16222058096E+01  0.22319427857E+03  0.25609979182E+03  0.12500006643E+03 0.  0.
          2    1    1    2  501    0  0.25762032306E+02  0.27437016584E+02 -0.12026606407E+03  0.12601745258E+03  0.00000000000E+00 0. -1.
          1    1    1    2  502    0 -0.37752412850E+02 -0.29059222394E+02  0.12489636100E+04  0.12498719063E+04  0.00000000000E+00 0. -1.
         22    1    3    3    0    0  0.41901187487E+01 -0.16268370517E+01 -0.16069782195E+02  0.16686569261E+02  0.00000000000E+00 0. -1.
         22    1    3    3    0    0  0.78002617951E+01  0.32490428613E+01  0.23926406077E+03  0.23941322256E+03  0.00000000000E+00 0. -1.
</event>
<event>
 7    1  0.5736319E-006  0.1320423E+03  0.7818608E-02  0.1259051E+00
          2   -1    0    0  502    0  0.00000000000E+00  0.00000000000E+00  0.59560810015E+03  0.59560810015E+03  0.00000000000E+00 0. -1.
          1   -1    0    0  501    0 -0.00000000000E+00 -0.00000000000E+00 -0.36933927125E+03  0.36933927125E+03  0.00000000000E+00 0. -1.
         25    2    1    2    0    0  0.10773304963E+03  0.18944192196E+03 -0.68353001488E+02  0.26036997014E+03  0.12500294699E+03 0.  0.
          2    1    1    2  501    0 -0.29975344564E+02 -0.88053329878E+02 -0.18562380046E+03  0.20762491537E+03  0.00000000000E+00 0. -1.
          1    1    1    2  502    0 -0.77757705061E+02 -0.10138859209E+03  0.48024563084E+03  0.49695248590E+03  0.00000000000E+00 0. -1.
         22    1    3    3    0    0  0.11951758377E+03  0.12073958063E+03 -0.83095046543E+02  0.18912240988E+03  0.00000000000E+00 0.  1.
         22    1    3    3    0    0 -0.11784534140E+02  0.68702341333E+02  0.14742045055E+02  0.71247560252E+02  0.00000000000E+00 0.  1.
</event>
<event>
 7    1  0.5736319E-006  0.3695872E+03  0.7818608E-02  0.1248550E+00
          2   -1    0    0  502    0  0.00000000000E+00  0.00000000000E+00  0.73704642206E+03  0.73704642206E+03  0.00000000000E+00 0. -1.
          1   -1    0    0  501    0 -0.00000000000E+00 -0.00000000000E+00 -0.15968824786E+04  0.15968824786E+04  0.00000000000E+00 0. -1.
         25    2    1    2    0    0 -0.17506967927E+03 -0.36279917451E+03 -0.55874157005E+03  0.70006408765E+03  0.12499980440E+03 0.  0.
          2    1    1    2  501    0  0.83932444783E+01  0.35915381108E+02 -0.91657152996E+03  0.91731332198E+03  0.00000000000E+00 0. -1.
          1    1    1    2  502    0  0.16667643479E+03  0.32688379340E+03  0.61547704345E+03  0.71655149104E+03  0.00000000000E+00 0. -1.
         22    1    3    3    0    0 -0.19227445066E+03 -0.32360134706E+03 -0.52255136520E+03  0.64400871536E+03  0.00000000000E+00 0.  1.
         22    1    3    3    0    0  0.17204771394E+02 -0.39197827446E+02 -0.36190204855E+02  0.56055372290E+02  0.00000000000E+00 0.  1.
</event>
<event>
 7    1  0.5736319E-006  0.4306171E+02  0.7818608E-02  0.1536828E+00
          2   -1    0    0  502    0  0.00000000000E+00  0.00000000000E+00  0.63660580685E+02  0.63660580685E+02  0.00000000000E+00 0. -1.
          1   -1    0    0  501    0 -0.00000000000E+00 -0.00000000000E+00 -0.26380444925E+03  0.26380444925E+03  0.00000000000E+00 0. -1.
         25    2    1    2    0    0  0.12589829700E+02 -0.19244795650E+02 -0.15559524503E+03  0.20090783118E+03  0.12500084151E+03 0.  0.
          2    1    1    2  501    0 -0.17159380423E+02 -0.25462413438E+02 -0.68908300961E+02  0.75439596870E+02  0.00000000000E+00 0. -1.
          1    1    1    2  502    0  0.45695507235E+01  0.44707209088E+02  0.24359677431E+02  0.51117601888E+02  0.00000000000E+00 0. -1.
         22    1    3    3    0    0  0.33651056549E+02 -0.56152450111E+02 -0.37598603635E+02  0.75492690081E+02  0.00000000000E+00 0.  1.
         22    1    3    3    0    0 -0.21061226850E+02  0.36907654461E+02 -0.11799664140E+03  0.12541514110E+03  0.00000000000E+00 0.  1.
</event>
<event>
 7    1  0.5736319E-006  0.5810596E+02  0.7818608E-02  0.1479440E+00
          2   -1    0    0  502    0  0.00000000000E+00  0.00000000000E+00  0.37257494178E+02  0.37257494178E+02  0.00000000000E+00 0. -1.
          1   -1    0    0  501    0 -0.00000000000E+00 -0.00000000000E+00 -0.14778766230E+04  0.14778766230E+04  0.00000000000E+00 0. -1.
         25    2    1    2    0    0 -0.62323551886E+02  0.38114065318E+02 -0.32940818426E+03  0.35982159881E+03  0.12499969607E+03 0.  0.
          2    1    1    2  501    0  0.57529098946E+02 -0.48455422930E+01 -0.11192616320E+04  0.11207496051E+04  0.00000000000E+00 0. -1.
          1    1    1    2  502    0  0.47944529400E+01 -0.33268523025E+02  0.80506874488E+01  0.34562913240E+02  0.00000000000E+00 0. -1.
         22    1    3    3    0    0 -0.72136246628E+02 -0.25319305351E+02 -0.22083491540E+03  0.23369374224E+03  0.00000000000E+00 0.  1.
         22    1    3    3    0    0  0.98126947416E+01  0.63433370669E+02 -0.10857326886E+03  0.12612785657E+03  0.00000000000E+00 0.  1.
</event>
<event>
 7    1  0.5736319E-006  0.7987978E+02  0.7818608E-02  0.1358865E+00
          2   -1    0    0  502    0  0.00000000000E+00  0.00000000000E+00  0.19387168452E+04  0.19387168452E+04  0.00000000000E+00 0. -1.
          1   -1    0    0  501    0 -0.00000000000E+00 -0.00000000000E+00 -0.17402170626E+02  0.17402170626E+02  0.00000000000E+00 0. -1.
         25    2    1    2    0    0  0.96820387791E+00  0.44273794132E+02  0.91673694182E+03  0.92628046335E+03  0.12501107958E+03 0.  0.
          2    1    1    2  501    0 -0.59220986117E+02 -0.65440058439E+02  0.15787363592E+03  0.18086904479E+03  0.00000000000E+00 0. -1.
          1    1    1    2  502    0  0.58252782239E+02  0.21166264308E+02  0.84670409680E+03  0.84896950765E+03  0.00000000000E+00 0. -1.
         22    1    3    3    0    0  0.54917788113E+02  0.44385844523E+02  0.67020389693E+03  0.67391344407E+03  0.00000000000E+00 0. -1.
         22    1    3    3    0    0 -0.53949584235E+02 -0.11205039159E+00  0.24653304490E+03  0.25236701928E+03  0.00000000000E+00 0. -1.
</event>
<event>
 7    1  0.5736319E-006  0.1194100E+03  0.7818608E-02  0.1326463E+00
          2   -1    0    0  502    0  0.00000000000E+00  0.00000000000E+00  0.17185536989E+04  0.17185536989E+04  0.00000000000E+00 0. -1.
          1   -1    0    0  501    0 -0.00000000000E+00 -0.00000000000E+00 -0.57701686067E+03  0.57701686067E+03  0.00000000000E+00 0. -1.
         25    2    1    2    0    0 -0.95837155562E+02 -0.35450934419E+02 -0.15675220542E+03  0.22502841018E+03  0.12500000939E+03 0.  0.
          2    1    1    2  501    0  0.89687657178E+02  0.89940812240E+02 -0.37521975465E+03  0.39613519136E+03  0.00000000000E+00 0. -1.
          1    1    1    2  502    0  0.61494983836E+01 -0.54489877821E+02  0.16735087983E+04  0.16744069580E+04  0.00000000000E+00 0. -1.
         22    1    3    3    0    0 -0.90933369666E+02 -0.16742354030E+02 -0.17532626815E+03  0.19821322973E+03  0.00000000000E+00 0. -1.
         22    1    3    3    0    0 -0.49037858960E+01 -0.18708580390E+02  0.18574062728E+02  0.26815180449E+02  0.00000000000E+00 0. -1.
</event>
<event>
 7    1  0.5736319E-006  0.6982664E+02  0.7818608E-02  0.1375314E+00
          2   -1    0    0  502    0  0.00000000000E+00  0.00000000000E+00  0.18655141236E+03  0.18655141236E+03  0.00000000000E+00 0. -1.
          1   -1    0    0  501    0 -0.00000000000E+00 -0.00000000000E+00 -0.11551141589E+03  0.11551141589E+03  0.00000000000E+00 0. -1.
         25    2    1    2    0    0 -0.43841903426E+02 -0.68593379216E+02  0.69530323284E+02  0.16458021108E+03  0.12500006342E+03 0.  0.
          2    1    1    2  501    0  0.61818053785E+02 -0.16276529613E+01 -0.13888087810E+02  0.63379807597E+02  0.00000000000E+00 0. -1.
          1    1    1    2  502    0 -0.17976150359E+02  0.70221032178E+02  0.15397761000E+02  0.74102809567E+02  0.00000000000E+00 0. -1.
         22    1    3    3    0    0  0.26649299478E+02  0.15791810696E+02 -0.55061647566E+01  0.31462426766E+02  0.00000000000E+00 0.  1.
         22    1    3    3    0    0 -0.70491202904E+02 -0.84385189912E+02  0.75036488041E+02  0.13311778431E+03  0.00000000000E+00 0.  1.
</event>
<event>
 7    1  0.5736319E-006  0.8443604E+02  0.7818608E-02  0.1321557E+00
          2   -1    0    0  502    0  0.00000000000E+00  0.00000000000E+00  0.16195552489E+04  0.16195552489E+04  0.00000000000E+00 0. -1.
          1   -1    0    0  501    0 -0.00000000000E+00 -0.00000000000E+00 -0.99646906803E+03  0.99646906803E+03  0.00000000000E+00 0. -1.
         25    2    1    2    0    0  0.10085118686E+03 -0.47000137001E+02  0.46949685991E+03  0.49843213889E+03  0.12500928304E+03 0.  0.
          2    1    1    2  501    0 -0.78613939997E+02 -0.30888941363E+02 -0.97873572448E+03  0.98237360339E+03  0.00000000000E+00 0. -1.
          1    1    1    2  502    0 -0.22237246859E+02  0.77889078363E+02  0.11323250455E+04  0.11352185747E+04  0.00000000000E+00 0. -1.
         22    1    3    3    0    0  0.31218996839E+02 -0.18324709004E+02  0.37889502507E+03  0.38062036302E+03  0.00000000000E+00 0.  1.
         22    1    3    3    0    0  0.69632190017E+02 -0.28675427997E+02  0.90601834840E+02  0.11781177587E+03  0.00000000000E+00 0.  1.
</event>
<event>
 7    1  0.5736319E-006  0.9821963E+02  0.7818608E-02  0.1293883E+00
          2   -1    0    0  502    0  0.00000000000E+00  0.00000000000E+00  0.46737672838E+03  0.46737672838E+03  0.00000000000E+00 0. -1.
          1   -1    0    0  501    0 -0.00000000000E+00 -0.00000000000E+00 -0.15094533648E+03  0.15094533648E+03  0.00000000000E+00 0. -1.
         25    2    1    2    0    0 -0.23366186274E+02  0.23469641957E+02  0.46835160812E+02  0.13753284423E+03  0.12499979280E+03 0.  0.
          2    1    1    2  501    0  0.71645477660E+02  0.67186467253E+02 -0.73482780668E+02  0.12266545930E+03  0.00000000000E+00 0. -1.
          1    1    1    2  502    0 -0.48279291386E+02 -0.90656109209E+02  0.34307901176E+03  0.35812376133E+03  0.00000000000E+00 0. -1.
         22    1    3    3    0    0  0.19120800288E+02  0.59643988808E+02  0.52118912931E+02  0.81482461240E+02  0.00000000000E+00 0.  1.
         22    1    3    3    0    0 -0.42486986563E+02 -0.36174346851E+02 -0.52837521186E+01  0.56050382994E+02  0.00000000000E+00 0.  1.
</event>
<event>
 7    1  0.5736319E-006  0.6463824E+02  0.7818608E-02  0.1386336E+00
          2   -1    0    0  502    0  0.00000000000E+00  0.00000000000E+00  0.31628397432E+03  0.31628397432E+03  0.00000000000E+00 0. -1.
          1   -1    0    0  501    0 -0.00000000000E+00 -0.00000000000E+00 -0.17641551568E+04  0.17641551568E+04  0.00000000000E+00 0. -1.
         25    2    1    2    0    0 -0.44850425085E+02 -0.85864018215E+02 -0.53859075433E+03  0.56132739676E+03  0.12499702178E+03 0.  0.
          2    1    1    2  501    0 -0.14055126188E+02  0.59427442689E+02 -0.12099994698E+04  0.12115394688E+04  0.00000000000E+00 0. -1.
          1    1    1    2  502    0  0.58905551273E+02  0.26436575527E+02  0.30071904169E+03  0.30757226554E+03  0.00000000000E+00 0. -1.
         22    1    3    3    0    0  0.13364577025E+02  0.19231481406E+02 -0.21289691965E+03  0.21418113874E+03  0.00000000000E+00 0. -1.
         22    1    3    3    0    0 -0.58215002109E+02 -0.10509549962E+03 -0.32569383468E+03  0.34714625803E+03  0.00000000000E+00 0. -1.
</event>
<event>
 7    1  0.5736319E-006  0.1456627E+03  0.7818608E-02  0.1260199E+00
          2   -1    0    0  502    0  0.00000000000E+00  0.00000000000E+00  0.10837191975E+04  0.10837191975E+04  0.00000000000E+00 0. -1.
          1   -1    0    0  501    0 -0.00000000000E+00 -0.00000000000E+00 -0.20060505799E+03  0.20060505799E+03  0.00000000000E+00 0. -1.
         25    2    1    2    0    0 -0.63197620054E+02 -0.19567287508E+03  0.21145729751E+03  0.32034566249E+03  0.12500136633E+03 0.  0.
          2    1    1    2  501    0  0.20108504980E+01  0.13904184572E+03 -0.11036161679E+03  0.17752849022E+03  0.00000000000E+00 0. -1.
          1    1    1    2  502    0  0.61186769556E+02  0.56631029363E+02  0.78201845876E+03  0.78645010274E+03  0.00000000000E+00 0. -1.
         22    1    3    3    0    0 -0.23238024386E+02 -0.19039421271E+03  0.20276525265E+03  0.27911236034E+03  0.00000000000E+00 0.  1.
         22    1    3    3    0    0 -0.39959595668E+02 -0.52786623653E+01  0.86920448569E+01  0.41233302149E+02  0.00000000000E+00 0.  1.
</event>
<event>
 7    1  0.5736319E-006  0.5572720E+02  0.7818608E-02  0.1492273E+00
          2   -1    0    0  502    0  0.00000000000E+00  0.00000000000E+00  0.76382106290E+03  0.76382106290E+03  0.00000000000E+00 0. -1.
          1   -1    0    0  501    0 -0.00000000000E+00 -0.00000000000E+00 -0.14258122247E+03  0.14258122247E+03  0.00000000000E+00 0. -1.
         25    2    1    2    0    0 -0.49648951435E+02 -0.53766852370E+02  0.63795528655E+03  0.65419284085E+03  0.12500173038E+03 0.  0.
          2    1    1    2  501    0  0.29906509299E+02  0.11477296213E+02 -0.12778179565E+03  0.13173577694E+03  0.00000000000E+00 0. -1.
          1    1    1    2  502    0  0.19742442135E+02  0.42289556157E+02  0.11106634953E+03  0.12047366758E+03  0.00000000000E+00 0. -1.
         22    1    3    3    0    0 -0.86063339025E+02 -0.63712329058E+02  0.46673766466E+03  0.47886345320E+03  0.00000000000E+00 0. -1.
         22    1    3    3    0    0  0.36414387591E+02  0.99454766880E+01  0.17121762189E+03  0.17532938765E+03  0.00000000000E+00 0. -1.
</event>
<event>
 7    1  0.7782547E-006  0.1222430E+03  0.7818608E-02  0.1267783E+00
          2   -1    0    0  502    0  0.00000000000E+00  0.00000000000E+00  0.25953826283E+04  0.25953826283E+04  0.00000000000E+00 0. -1.
          1   -1    0    0  501    0 -0.00000000000E+00 -0.00000000000E+00 -0.77015715788E+03  0.77015715788E+03  0.00000000000E+00 0. -1.
         25    2    1    2    0    0  0.45717698140E+01 -0.39815315800E+02  0.54283165450E+01  0.13138298767E+03  0.12500344946E+03 0.  0.
          2    1    1    2  501    0  0.70844881918E+02 -0.59090405365E+02 -0.70263230786E+03  0.70866270775E+03  0.00000000000E+00 0. -1.
          1    1    1    2  502    0 -0.75416651732E+02  0.98905721165E+02  0.25224294617E+04  0.25254940907E+04  0.00000000000E+00 0. -1.
         22    1    3    3    0    0 -0.42582756617E+02 -0.25797061587E+01  0.42957578637E+02  0.60541717909E+02  0.00000000000E+00 0. -1.
         22    1    3    3    0    0  0.47154526431E+02 -0.37235609641E+02 -0.37529262092E+02  0.70841269762E+02  0.00000000000E+00 0. -1.
</event>
<event>
 7    1  0.5736319E-006  0.4821061E+02  0.7818608E-02  0.1496225E+00
          2   -1    0    0  502    0  0.00000000000E+00  0.00000000000E+00  0.29381227007E+03  0.29381227007E+03  0.00000000000E+00 0. -1.
          1   -1    0    0  501    0 -0.00000000000E+00 -0.00000000000E+00 -0.10077371216E+04  0.10077371216E+04  0.00000000000E+00 0. -1.
         25    2    1    2    0    0 -0.18530299862E+02  0.43039400615E+01  0.15715139536E+02  0.12741241718E+03  0.12500025011E+03 0.  0.
          2    1    1    2  501    0  0.29223955931E+02 -0.38708106311E+02 -0.94980556295E+03  0.95104309287E+03  0.00000000000E+00 0. -1.
          1    1    1    2  502    0 -0.10693656069E+02  0.34404166250E+02  0.22016557193E+03  0.22309388158E+03  0.00000000000E+00 0. -1.
         22    1    3    3    0    0 -0.27861419785E+02 -0.24598843905E+02  0.61861652062E+02  0.72168038838E+02  0.00000000000E+00 0.  1.
         22    1    3    3    0    0  0.93311199235E+01  0.28902783966E+02 -0.46146512525E+02  0.55244378341E+02  0.00000000000E+00 0.  1.
</event>
<event>
 7    1  0.5736319E-006  0.2465673E+03  0.7818608E-02  0.1155034E+00
          2   -1    0    0  502    0  0.00000000000E+00  0.00000000000E+00  0.43246758247E+03  0.43246758247E+03  0.00000000000E+00 0. -1.
          1   -1    0    0  501    0 -0.00000000000E+00 -0.00000000000E+00 -0.38505703087E+03  0.38505703087E+03  0.00000000000E+00 0. -1.
         25    2    1    2    0    0 -0.16363557495E+03 -0.11383961305E+03  0.78907422321E+02  0.24816022771E+03  0.12498423274E+03 0.  0.
          2    1    1    2  501    0  0.27715961932E+03  0.12157189315E+02 -0.20012171790E+03  0.34207302409E+03  0.00000000000E+00 0. -1.
          1    1    1    2  502    0 -0.11352404438E+03  0.10168242373E+03  0.16862484717E+03  0.22729136154E+03  0.00000000000E+00 0. -1.
         22    1    3    3    0    0 -0.14942384338E+03 -0.39407808933E+02  0.76289801681E+02  0.17233860338E+03  0.00000000000E+00 0.  1.
         22    1    3    3    0    0 -0.14211731567E+02 -0.74431804113E+02  0.26176206403E+01  0.75821624326E+02  0.00000000000E+00 0.  1.
</event>
<event>
 7    1  0.5736319E-006  0.1148943E+03  0.7818608E-02  0.1382136E+00
          2   -1    0    0  502    0  0.00000000000E+00  0.00000000000E+00  0.73299650065E+03  0.73299650065E+03  0.00000000000E+00 0. -1.
          1   -1    0    0  501    0 -0.00000000000E+00 -0.00000000000E+00 -0.12132112201E+04  0.12132112201E+04  0.00000000000E+00 0. -1.
         25    2    1    2    0    0 -0.12673557721E+03  0.29351211669E+02  0.55920685124E+02  0.18887915239E+03  0.12499924409E+03 0.  0.
          2    1    1    2  501    0  0.26073121735E+02  0.24158927701E+02 -0.11411317068E+04  0.11416851727E+04  0.00000000000E+00 0. -1.
          1    1    1    2  502    0  0.10066245548E+03 -0.53510139371E+02  0.60499630217E+03  0.61564339564E+03  0.00000000000E+00 0. -1.
         22    1    3    3    0    0 -0.49507197352E+02  0.69959390290E+02  0.86766827542E+00  0.85708994439E+02  0.00000000000E+00 0.  1.
         22    1    3    3    0    0 -0.77228379861E+02 -0.40608178621E+02  0.55053016848E+02  0.10317015795E+03  0.00000000000E+00 0.  1.
</event>
<event>
 7    1  0.5736319E-006  0.1356724E+03  0.7818608E-02  0.1255498E+00
          2   -1    0    0  502    0  0.00000000000E+00  0.00000000000E+00  0.24854571646E+04  0.24854571646E+04  0.00000000000E+00 0. -1.
          1   -1    0    0  501    0 -0.00000000000E+00 -0.00000000000E+00 -0.15428630003E+04  0.15428630003E+04  0.00000000000E+00 0. -1.
         25    2    1    2    0    0  0.20156520211E+03 -0.32365828393E+02  0.11906823767E+02  0.23967289626E+03  0.12500098881E+03 0.  0.
          2    1    1    2  501    0 -0.86099511482E+02 -0.37114045632E+02 -0.14255147448E+04  0.14285947171E+04  0.00000000000E+00 0. -1.
          1    1    1    2  502    0 -0.11546569063E+03  0.69479874025E+02  0.23562020854E+04  0.23600525515E+04  0.00000000000E+00 0. -1.
         22    1    3    3    0    0  0.31530098891E+02 -0.53826709396E+02  0.26271407491E+02  0.67687876552E+02  0.00000000000E+00 0.  1.
         22    1    3    3    0    0  0.17003510322E+03  0.21460881003E+02 -0.14364583724E+02  0.17198501971E+03  0.00000000000E+00 0.  1.
</event>
<event>
 7    1  0.5736319E-006  0.1681486E+03  0.7818608E-02  0.1196349E+00
          2   -1    0    0  502    0  0.00000000000E+00  0.00000000000E+00  0.37510463771E+04  0.37510463771E+04  0.00000000000E+00 0. -1.
          1   -1    0    0  501    0 -0.00000000000E+00 -0.00000000000E+00 -0.16429487307E+03  0.16429487307E+03  0.00000000000E+00 0. -1.
         25    2    1    2    0    0 -0.43849233096E+02 -0.24727291475E+03  0.26001482967E+03  0.38249090169E+03  0.12499971447E+03 0.  0.
          2    1    1    2  501    0 -0.54520368425E+02  0.14771771135E+03 -0.40598761548E+02  0.16260766359E+03  0.00000000000E+00 0. -1.
          1    1    1    2  502    0  0.98369601521E+02  0.99555203400E+02  0.33673354359E+04  0.33702426848E+04  0.00000000000E+00 0. -1.
         22    1    3    3    0    0 -0.63697573146E+00 -0.18184102546E+03  0.24081934145E+03  0.30176235599E+03  0.00000000000E+00 0. -1.
         22    1    3    3    0    0 -0.43212257365E+02 -0.65431889291E+02  0.19195488219E+02  0.80728545699E+02  0.00000000000E+00 0. -1.
</event>
<event>
 7    1  0.5736319E-006  0.1158807E+03  0.7818608E-02  0.1450004E+00
          2   -1    0    0  502    0  0.00000000000E+00  0.00000000000E+00  0.71018797962E+03  0.71018797962E+03  0.00000000000E+00 0. -1.
          1   -1    0    0  501    0 -0.00000000000E+00 -0.00000000000E+00 -0.84097912141E+03  0.84097912141E+03  0.00000000000E+00 0. -1.
         25    2    1    2    0    0  0.96411889098E+02  0.95939204310E+02 -0.23811062755E+03  0.30136433315E+03  0.12499682819E+03 0.  0.
          2    1    1    2  501    0 -0.17020694374E+02 -0.12030386627E+02 -0.56613231638E+03  0.56651587258E+03  0.00000000000E+00 0. -1.
          1    1    1    2  502    0 -0.79391194724E+02 -0.83908817683E+02  0.67345180213E+03  0.68328689530E+03  0.00000000000E+00 0. -1.
         22    1    3    3    0    0  0.11095845772E+03  0.60764078129E+02 -0.10974975586E+03  0.16747854024E+03  0.00000000000E+00 0. -1.
         22    1    3    3    0    0 -0.14546568620E+02  0.35175126181E+02 -0.12836087170E+03  0.13388579291E+03  0.00000000000E+00 0. -1.
</event>
<event>
 7    1  0.5736319E-006  0.7936934E+02  0.7818608E-02  0.1344123E+00
          2   -1    0    0  502    0  0.00000000000E+00  0.00000000000E+00  0.49320928256E+03  0.49320928256E+03  0.00000000000E+00 0. -1.
          1   -1    0    0  501    0 -0.00000000000E+00 -0.00000000000E+00 -0.82407803509E+03  0.82407803509E+03  0.00000000000E+00 0. -1.
         25    2    1    2    0    0  0.99077086039E+02 -0.53587240280E+02 -0.46962300726E+03  0.49885790046E+03  0.12500229842E+03 0.  0.
          2    1    1    2  501    0 -0.68009710421E+02 -0.19382552189E+02 -0.33281114927E+03  0.34024148060E+03  0.00000000000E+00 0. -1.
          1    1    1    2  502    0 -0.31067375618E+02  0.72969792469E+02  0.47156540400E+03  0.47818793658E+03  0.00000000000E+00 0. -1.
         22    1    3    3    0    0 -0.12469308985E+02  0.14114434593E+02 -0.10520665481E+02  0.21572791488E+02  0.00000000000E+00 0. -1.
         22    1    3    3    0    0  0.11154639502E+03 -0.67701674873E+02 -0.45910234178E+03  0.47728510898E+03  0.00000000000E+00 0. -1.
</event>
<event>
 7    1  0.5736319E-006  0.7459464E+02  0.7818608E-02  0.1370091E+00
          2   -1    0    0  502    0  0.00000000000E+00  0.00000000000E+00  0.25149637105E+02  0.25149637105E+02  0.00000000000E+00 0. -1.
          1   -1    0    0  501    0 -0.00000000000E+00 -0.00000000000E+00 -0.16044445948E+04  0.16044445948E+04  0.00000000000E+00 0. -1.
         25    2    1    2    0    0  0.70436448427E+02  0.37642837192E+02 -0.53726122473E+03  0.55736290661E+03  0.12500203842E+03 0.  0.
          2    1    1    2  501    0 -0.21950112035E+02 -0.73716929235E+02 -0.98852551816E+03  0.99151333482E+03  0.00000000000E+00 0. -1.
          1    1    1    2  502    0 -0.48486336392E+02  0.36074092043E+02 -0.53508214789E+02  0.80717990456E+02  0.00000000000E+00 0. -1.
         22    1    3    3    0    0 -0.14621696600E+02 -0.28993996021E+02 -0.62174811623E+02  0.70143802414E+02  0.00000000000E+00 0.  1.
         22    1    3    3    0    0  0.85058145027E+02  0.66636833213E+02 -0.47508641311E+03  0.48721910420E+03  0.00000000000E+00 0.  1.
</event>
<event>
 7    1  0.5736319E-006  0.7847363E+02  0.7818608E-02  0.1343124E+00
          2   -1    0    0  502    0  0.00000000000E+00  0.00000000000E+00  0.16167797466E+04  0.16167797466E+04  0.00000000000E+00 0. -1.
          1   -1    0    0  501    0 -0.00000000000E+00 -0.00000000000E+00 -0.42297440701E+03  0.42297440701E+03  0.00000000000E+00 0. -1.
         25    2    1    2    0    0 -0.57843109380E+01 -0.41621694039E+02  0.69840344575E+02  0.14922569292E+03  0.12499924012E+03 0.  0.
          2    1    1    2  501    0  0.76316107668E+02  0.26458708431E+02 -0.37815088484E+03  0.38668113898E+03  0.00000000000E+00 0. -1.
          1    1    1    2  502    0 -0.70531796730E+02  0.15162985608E+02  0.15021158798E+04  0.15038473217E+04  0.00000000000E+00 0. -1.
         22    1    3    3    0    0 -0.57498959495E+02 -0.37742728397E+02  0.91334032763E+01  0.69383448640E+02  0.00000000000E+00 0. -1.
         22    1    3    3    0    0  0.51714648557E+02 -0.38789656423E+01  0.60706941299E+02  0.79842244280E+02  0.00000000000E+00 0. -1.
</event>
<event>
 7    1  0.5736319E-006  0.1422609E+03  0.7818608E-02  0.1373202E+00
          2   -1    0    0  502    0  0.00000000000E+00  0.00000000000E+00  0.59619270217E+03  0.59619270217E+03  0.00000000000E+00 0. -1.
          1   -1    0    0  501    0 -0.00000000000E+00 -0.00000000000E+00 -0.22814447434E+03  0.22814447434E+03  0.00000000000E+00 0. -1.
         25    2    1    2    0    0 -0.12319464724E+03 -0.10212069657E+03  0.61702840964E+02  0.21222072880E+03  0.12499935749E+03 0.  0.
          2    1    1    2  501    0  0.30740959944E+02 -0.29780443086E+01 -0.14050276248E+03  0.14385722655E+03  0.00000000000E+00 0. -1.
          1    1    1    2  502    0  0.92453687298E+02  0.10509874088E+03  0.44684814935E+03  0.46825922116E+03  0.00000000000E+00 0. -1.
         22    1    3    3    0    0 -0.57496398987E+02  0.22569495826E+02  0.13141862448E+02  0.63150032359E+02  0.00000000000E+00 0.  1.
         22    1    3    3    0    0 -0.65698248255E+02 -0.12469019240E+03  0.48560978515E+02  0.14907069644E+03  0.00000000000E+00 0.  1.
</event>
<event>
 7    1  0.5736319E-006  0.5739693E+02  0.7818608E-02  0.1443089E+00
          2   -1    0    0  502    0  0.00000000000E+00  0.00000000000E+00  0.11898953202E+04  0.11898953202E+04  0.00000000000E+00 0. -1.
          1   -1    0    0  501    0 -0.00000000000E+00 -0.00000000000E+00 -0.32806342229E+03  0.32806342229E+03  0.00000000000E+00 0. -1.
         25    2    1    2    0    0 -0.20567227401E+02 -0.70478611150E+01  0.82768472843E+02  0.15148688604E+03  0.12499989343E+03 0.  0.
          2    1    1    2  501    0  0.29466171235E+02  0.50435769226E+02 -0.29033697242E+03  0.29615465490E+03  0.00000000000E+00 0. -1.
          1    1    1    2  502    0 -0.88989438343E+01 -0.43387908111E+02  0.10694003975E+04  0.10703172015E+04  0.00000000000E+00 0. -1.
         22    1    3    3    0    0  0.12231660633E+02  0.50545337167E+02  0.64272909129E+02  0.82676789240E+02  0.00000000000E+00 0.  1.
         22    1    3    3    0    0 -0.32798888034E+02 -0.57593198282E+02  0.18495563714E+02  0.68810096801E+02  0.00000000000E+00 0.  1.
</event>
<event>
 7    1  0.5736319E-006  0.2236813E+03  0.7818608E-02  0.1184642E+00
          2   -1    0    0  502    0  0.00000000000E+00  0.00000000000E+00  0.61172104908E+03  0.61172104908E+03  0.00000000000E+00 0. -1.
          1   -1    0    0  501    0 -0.00000000000E+00 -0.00000000000E+00 -0.34831382129E+03  0.34831382129E+03  0.00000000000E+00 0. -1.
         25    2    1    2    0    0  0.30890112362E+03  0.63859921730E+02  0.15816641080E+03  0.37435457161E+03  0.12500695180E+03 0.  0.
          2    1    1    2  501    0 -0.19080004534E+03 -0.83493490621E+02 -0.18067163794E+03  0.27571373022E+03  0.00000000000E+00 0. -1.
          1    1    1    2  502    0 -0.11810107829E+03  0.19633568890E+02  0.28591245494E+03  0.30996656854E+03  0.00000000000E+00 0. -1.
         22    1    3    3    0    0  0.20691342660E+03  0.39707339158E+02  0.36598369889E+02  0.21384405432E+03  0.00000000000E+00 0. -1.
         22    1    3    3    0    0  0.10198769703E+03  0.24152582572E+02  0.12156804091E+03  0.16051051729E+03  0.00000000000E+00 0. -1.
</event>
<event>
 7    1  0.5736319E-006  0.1091280E+03  0.7818608E-02  0.1385469E+00
          2   -1    0    0  502    0  0.00000000000E+00  0.00000000000E+00  0.62789826947E+03  0.62789826947E+03  0.00000000000E+00 0. -1.
          1   -1    0    0  501    0 -0.00000000000E+00 -0.00000000000E+00 -0.19679567197E+04  0.19679567197E+04  0.00000000000E+00 0. -1.
         25    2    1    2    0    0  0.69829960032E+02  0.94976824275E+02 -0.12030511024E+02  0.17224020214E+03  0.12500053428E+03 0.  0.
          2    1    1    2  501    0 -0.88521262437E+02 -0.63712772266E+02 -0.18736282191E+04  0.18767999453E+04  0.00000000000E+00 0. -1.
          1    1    1    2  502    0  0.18691302406E+02 -0.31264052009E+02  0.54560027989E+03  0.54681484174E+03  0.00000000000E+00 0. -1.
         22    1    3    3    0    0  0.96852490761E+02  0.45870903223E+02 -0.33406858956E+02  0.11225222917E+03  0.00000000000E+00 0.  1.
         22    1    3    3    0    0 -0.27022530729E+02  0.49105921053E+02  0.21376347932E+02  0.59987972965E+02  0.00000000000E+00 0.  1.
</event>
<event>
 7    1  0.5736319E-006  0.7924411E+02  0.7818608E-02  0.1341126E+00
          2   -1    0    0  502    0  0.00000000000E+00  0.00000000000E+00  0.12763942693E+04  0.12763942693E+04  0.00000000000E+00 0. -1.
          1   -1    0    0  501    0 -0.00000000000E+00 -0.00000000000E+00 -0.11935626810E+03  0.11935626810E+03  0.00000000000E+00 0. -1.
         25    2    1    2    0    0  0.40082681163E+02 -0.21642671803E+02  0.83859720487E+02  0.15726437961E+03  0.12499842320E+03 0.  0.
          2    1    1    2  501    0  0.12037835752E+02  0.81334217686E+02 -0.60475624440E+02  0.10206598654E+03  0.00000000000E+00 0. -1.
          1    1    1    2  502    0 -0.52120516915E+02 -0.59691545883E+02  0.11336539051E+04  0.11364201712E+04  0.00000000000E+00 0. -1.
         22    1    3    3    0    0 -0.37030850004E+02 -0.10758280890E+01 -0.55010765937E+01  0.37452678166E+02  0.00000000000E+00 0. -1.
         22    1    3    3    0    0  0.77113531166E+02 -0.20566843714E+02  0.89360797080E+02  0.11981170145E+03  0.00000000000E+00 0. -1.
</event>
<event>
 7    1  0.5736319E-006  0.1498050E+03  0.7818608E-02  0.1393934E+00
          2   -1    0    0  502    0  0.00000000000E+00  0.00000000000E+00  0.70406872031E+02  0.70406872031E+02  0.00000000000E+00 0. -1.
          1   -1    0    0  501    0 -0.00000000000E+00 -0.00000000000E+00 -0.10562055361E+04  0.10562055361E+04  0.00000000000E+00 0. -1.
         25    2    1    2    0    0  0.27476667097E+02 -0.14776093561E+03 -0.11178663243E+03  0.22518760433E+03  0.12499977850E+03 0.  0.
          2    1    1    2  501    0 -0.24685885356E+02 -0.22594370560E+01 -0.46664458614E+03  0.46730254414E+03  0.00000000000E+00 0. -1.
          1    1    1    2  502    0 -0.27907817418E+01  0.15002037267E+03 -0.40736744555E+03  0.43412225970E+03  0.00000000000E+00 0. -1.
         22    1    3    3    0    0  0.35833283661E+02 -0.51327093691E+02 -0.11209806085E+03  0.12839186116E+03  0.00000000000E+00 0. -1.
         22    1    3    3    0    0 -0.83566165639E+01 -0.96433841922E+02  0.31142842364E+00  0.96795743171E+02  0.00000000000E+00 0. -1.
</event>
<event>
 7    1  0.5736319E-006  0.6992464E+02  0.7818608E-02  0.1462524E+00
          2   -1    0    0  502    0  0.00000000000E+00  0.00000000000E+00  0.10270342246E+04  0.10270342246E+04  0.00000000000E+00 0. -1.
          1   -1    0    0  501    0 -0.00000000000E+00 -0.00000000000E+00 -0.24985058720E+03  0.24985058720E+03  0.00000000000E+00 0. -1.
         25    2    1    2    0    0  0.93329995392E+01  0.93206251835E+02  0.26208368158E+03  0.30510398006E+03  0.12500428887E+03 0.  0.
          2    1    1    2  501    0 -0.23954063913E+02 -0.65278376437E+02 -0.22270235302E+03  0.23330538281E+03  0.00000000000E+00 0. -1.
          1    1    1    2  502    0  0.14621064373E+02 -0.27927875398E+02  0.73780230884E+03  0.73847544893E+03  0.00000000000E+00 0. -1.
         22    1    3    3    0    0 -0.27799582805E+02  0.10606093334E+03  0.22837641991E+03  0.25333283947E+03  0.00000000000E+00 0. -1.
         22    1    3    3    0    0  0.37132582344E+02 -0.12854681506E+02  0.33707261673E+02  0.51771140587E+02  0.00000000000E+00 0. -1.
</event>
<event>
 7    1  0.5736319E-006  0.9095003E+02  0.7818608E-02  0.1359251E+00
          2   -1    0    0  502    0  0.00000000000E+00  0.00000000000E+00  0.81896490065E+03  0.81896490065E+03  0.00000000000E+00 0. -1.
          1   -1    0    0  501    0 -0.00000000000E+00 -0.00000000000E+00 -0.10437884136E+04  0.10437884136E+04  0.00000000000E+00 0. -1.
         25    2    1    2    0    0  0.47087668833E+02  0.48302359454E+02 -0.16158022972E+03  0.21513980118E+03  0.12500638757E+03 0.  0.
          2    1    1    2  501    0  0.43080284309E+02 -0.32985932595E+02 -0.85192266666E+03  0.85364876419E+03  0.00000000000E+00 0. -1.
          1    1    1    2  502    0 -0.90167953142E+02 -0.15316426859E+02  0.78867938339E+03  0.79396474890E+03  0.00000000000E+00 0. -1.
         22    1    3    3    0    0  0.83583449142E+02  0.59969112177E+02 -0.10676186005E+03  0.14825849772E+03  0.00000000000E+00 0. -1.
         22    1    3    3    0    0 -0.36495780309E+02 -0.11666752724E+02 -0.54818369667E+02  0.66881303459E+02  0.00000000000E+00 0. -1.
</event>
<event>
 7    1  0.5736319E-006  0.2256548E+03  0.7818608E-02  0.1310599E+00
          2   -1    0    0  502    0  0.00000000000E+00  0.00000000000E+00  0.38935648169E+03  0.38935648169E+03  0.00000000000E+00 0. -1.
          1   -1    0    0  501    0 -0.00000000000E+00 -0.00000000000E+00 -0.37152201055E+03  0.37152201055E+03  0.00000000000E+00 0. -1.
         25    2    1    2    0    0 -0.13670222329E+03  0.17412862285E+03 -0.16133120899E+03  0.30110391201E+03  0.12501012632E+03 0.  0.
          2    1    1    2  501    0  0.16771112293E+03 -0.16159386359E+03 -0.41522299827E+02  0.23656647879E+03  0.00000000000E+00 0. -1.
          1    1    1    2  502    0 -0.31008899640E+02 -0.12534759258E+02  0.22068797996E+03  0.22320810143E+03  0.00000000000E+00 0. -1.
         22    1    3    3    0    0 -0.55069272016E+02  0.30627422173E+02  0.92782537247E+01  0.63692618894E+02  0.00000000000E+00 0. -1.
         22    1    3    3    0    0 -0.81632951270E+02  0.14350120068E+03 -0.17060946272E+03  0.23741129311E+03  0.00000000000E+00 0. -1.
</event>
<event>
 7    1  0.5736319E-006  0.1415698E+03  0.7818608E-02  0.1416457E+00
          2   -1    0    0  502    0  0.00000000000E+00  0.00000000000E+00  0.27881516126E+04  0.27881516126E+04  0.00000000000E+00 0. -1.
          1   -1    0    0  501    0 -0.00000000000E+00 -0.00000000000E+00 -0.98747983916E+03  0.98747983916E+03  0.00000000000E+00 0. -1.
         25    2    1    2    0    0 -0.52223225524E+02  0.13851591849E+03 -0.18297253222E+03  0.26649122615E+03  0.12499880442E+03 0.  0.
          2    1    1    2  501    0 -0.16335634941E+02 -0.14699960690E+02 -0.76076581960E+03  0.76108315846E+03  0.00000000000E+00 0. -1.
          1    1    1    2  502    0  0.68558860465E+02 -0.12381595780E+03  0.27444101253E+04  0.27480570672E+04  0.00000000000E+00 0. -1.
         22    1    3    3    0    0 -0.36362731573E+02 -0.11884748317E+02 -0.16740705650E+02  0.41758193395E+02  0.00000000000E+00 0. -1.
         22    1    3    3    0    0 -0.15860493951E+02  0.15040066681E+03 -0.16623182657E+03  0.22473303275E+03  0.00000000000E+00 0. -1.
</event>
<event>
 7    1  0.5736319E-006  0.1108862E+03  0.7818608E-02  0.1289347E+00
          2   -1    0    0  502    0  0.00000000000E+00  0.00000000000E+00  0.16112286705E+03  0.16112286705E+03  0.00000000000E+00 0. -1.
          1   -1    0    0  501    0 -0.00000000000E+00 -0.00000000000E+00 -0.44356972042E+03  0.44356972042E+03  0.00000000000E+00 0. -1.
         25    2    1    2    0    0 -0.13228903708E+03 -0.27618969873E+02 -0.17753398619E+03  0.25574913547E+03  0.12500442877E+03 0.  0.
          2    1    1    2  501    0  0.70937785231E+02  0.83215935300E+02 -0.19687356981E+03  0.22520271702E+03  0.00000000000E+00 0. -1.
          1    1    1    2  502    0  0.61351251845E+02 -0.55596965427E+02  0.91960702631E+02  0.12374073499E+03  0.00000000000E+00 0. -1.
         22    1    3    3    0    0 -0.15330363430E+03 -0.32166402410E+02 -0.12993213110E+03  0.20351668341E+03  0.00000000000E+00 0.  1.
         22    1    3    3    0    0  0.21014597228E+02  0.45474325372E+01 -0.47601855097E+02  0.52232452058E+02  0.00000000000E+00 0.  1.
</event>
<event>
 7    1  0.5736319E-006  0.1425195E+03  0.7818608E-02  0.1364302E+00
          2   -1    0    0  502    0  0.00000000000E+00  0.00000000000E+00  0.13370464452E+03  0.13370464452E+03  0.00000000000E+00 0. -1.
          1   -1    0    0  501    0 -0.00000000000E+00 -0.00000000000E+00 -0.22470157843E+04  0.22470157843E+04  0.00000000000E+00 0. -1.
         25    2    1    2    0    0  0.15774227955E+03  0.61121329103E+02 -0.82804680200E+03  0.85434489401E+03  0.12500099200E+03 0.  0.
          2    1    1    2  501    0 -0.20994094305E+02 -0.25707018763E+02 -0.13641689396E+04  0.13645726432E+04  0.00000000000E+00 0. -1.
          1    1    1    2  502    0 -0.13674818525E+03 -0.35414310340E+02  0.78904601812E+02  0.16180289161E+03  0.00000000000E+00 0. -1.
         22    1    3    3    0    0  0.14570925164E+03  0.16422554833E+02 -0.44557476749E+03  0.46908182628E+03  0.00000000000E+00 0.  1.
         22    1    3    3    0    0  0.12033027913E+02  0.44698774270E+02 -0.38247203450E+03  0.38526306773E+03  0.00000000000E+00 0.  1.
</event>
<event>
 7    1  0.5736319E-006  0.3814231E+02  0.7818608E-02  0.1553244E+00
          2   -1    0    0  502    0  0.00000000000E+00  0.00000000000E+00  0.50644186584E+03  0.50644186584E+03  0.00000000000E+00 0. -1.
          1   -1    0    0  501    0 -0.00000000000E+00 -0.00000000000E+00 -0.55692679220E+03  0.55692679220E+03  0.00000000000E+00 0. -1.
         25    2    1    2    0    0  0.12178723050E+02 -0.24154363573E+01 -0.18743431657E+03  0.22563822512E+03  0.12500731971E+03 0.  0.
          2    1    1    2  501    0 -0.35243662233E+02 -0.18556472197E+02 -0.34875729193E+03  0.35102436819E+03  0.00000000000E+00 0. -1.
          1    1    1    2  502    0  0.23064939182E+02  0.20971908554E+02  0.48570668214E+03  0.48670606473E+03  0.00000000000E+00 0. -1.
         22    1    3    3    0    0  0.41439927211E+02 -0.37986977992E+02 -0.34592742700E+02  0.66007089859E+02  0.00000000000E+00 0.  1.
         22    1    3    3    0    0 -0.29261204160E+02  0.35571541635E+02 -0.15284157387E+03  0.15963113526E+03  0.00000000000E+00 0.  1.
</event>
<event>
 7    1  0.5736319E-006  0.2326162E+03  0.7818608E-02  0.1186526E+00
          2   -1    0    0  502    0  0.00000000000E+00  0.00000000000E+00  0.38567681563E+03  0.38567681563E+03  0.00000000000E+00 0. -1.
          1   -1    0    0  501    0 -0.00000000000E+00 -0.00000000000E+00 -0.41898420479E+03  0.41898420479E+03  0.00000000000E+00 0. -1.
         25    2    1    2    0    0  0.19645436063E+03 -0.14425357492E+02  0.10047855660E+03  0.25401519452E+03  0.12500148785E+03 0.  0.
          2    1    1    2  501    0  0.72790020613E+02 -0.86084903904E+02 -0.22287208297E+03  0.24976181283E+03  0.00000000000E+00 0. -1.
          1    1    1    2  502    0 -0.26924438124E+03  0.10051026140E+03  0.89086137213E+02  0.30088401306E+03  0.00000000000E+00 0. -1.
         22    1    3    3    0    0  0.17959885753E+03 -0.37123644542E+02  0.12043876872E+03  0.21940695435E+03  0.00000000000E+00 0.  1.
         22    1    3    3    0    0  0.16855503097E+02  0.22698287050E+02 -0.19960212116E+02  0.34608240166E+02  0.00000000000E+00 0.  1.
</event>
<event>
 7    1  0.5736319E-006  0.1335843E+03  0.7818608E-02  0.1376179E+00
          2   -1    0    0  502    0  0.00000000000E+00  0.00000000000E+00  0.28030323184E+03  0.28030323184E+03  0.00000000000E+00 0. -1.
          1   -1    0    0  501    0 -0.00000000000E+00 -0.00000000000E+00 -0.11426860503E+03  0.11426860503E+03  0.00000000000E+00 0. -1.
         25    2    1    2    0    0 -0.12816031835E+03 -0.56189225777E+02  0.60383327884E+02  0.19710061105E+03  0.12498083172E+03 0.  0.
          2    1    1    2  501    0  0.22702080713E+02 -0.22688006703E+02  0.68052962868E+01  0.32809178204E+02  0.00000000000E+00 0. -1.
          1    1    1    2  502    0  0.10545823763E+03  0.78877232480E+02  0.98846002645E+02  0.16466204762E+03  0.00000000000E+00 0. -1.
         22    1    3    3    0    0 -0.97489445011E+02  0.17879155127E+02  0.41972044949E+01  0.99204196495E+02  0.00000000000E+00 0. -1.
         22    1    3    3    0    0 -0.30670873335E+02 -0.74068380904E+02  0.56186123389E+02  0.97896414553E+02  0.00000000000E+00 0. -1.
</event>
<event>
 7    1  0.5736319E-006  0.8664810E+02  0.7818608E-02  0.1338693E+00
          2   -1    0    0  502    0  0.00000000000E+00  0.00000000000E+00  0.97504270660E+03  0.97504270660E+03  0.00000000000E+00 0. -1.
          1   -1    0    0  501    0 -0.00000000000E+00 -0.00000000000E+00 -0.21626623671E+03  0.21626623671E+03  0.00000000000E+00 0. -1.
         25    2    1    2    0    0  0.18338600425E+02 -0.25210154016E+02  0.21413608907E+03  0.24990034190E+03  0.12499624037E+03 0.  0.
          2    1    1    2  501    0 -0.86208486572E+02  0.23555817918E+02 -0.18666667117E+03  0.20695706280E+03  0.00000000000E+00 0. -1.
          1    1    1    2  502    0  0.67869886147E+02  0.16543360979E+01  0.73130705200E+03  0.73445153862E+03  0.00000000000E+00 0. -1.
         22    1    3    3    0    0  0.84965868590E+01  0.31855377534E+02  0.55596984410E+01  0.33434522770E+02  0.00000000000E+00 0. -1.
         22    1    3    3    0    0  0.98420135664E+01 -0.57065531550E+02  0.20857639063E+03  0.21646581913E+03  0.00000000000E+00 0. -1.
</event>
<event>
 7    1  0.5736319E-006  0.1499434E+03  0.7818608E-02  0.1252185E+00
          2   -1    0    0  502    0  0.00000000000E+00  0.00000000000E+00  0.31535054668E+04  0.31535054668E+04  0.00000000000E+00 0. -1.
          1   -1    0    0  501    0 -0.00000000000E+00 -0.00000000000E+00 -0.19244698995E+03  0.19244698995E+03  0.00000000000E+00 0. -1.
         25    2    1    2    0    0 -0.54683610804E+02 -0.54206541869E+02  0.31116733604E+03  0.34406208952E+03  0.12499985581E+03 0.  0.
          2    1    1    2  501    0  0.14024975058E+03  0.73301208519E+02 -0.13959858483E+03  0.21102327975E+03  0.00000000000E+00 0. -1.
          1    1    1    2  502    0 -0.85566139775E+02 -0.19094666650E+02  0.27894897256E+04  0.27908670874E+04  0.00000000000E+00 0. -1.
         22    1    3    3    0    0 -0.76444192307E+02 -0.22661486471E+02  0.28898516138E+03  0.29978272299E+03  0.00000000000E+00 0. -1.
         22    1    3    3    0    0  0.21760581503E+02 -0.31545055398E+02  0.22182174664E+02  0.44279366529E+02  0.00000000000E+00 0. -1.
</event>
<event>
 7    1  0.1199676E-005  0.9909566E+02  0.7818608E-02  0.1439296E+00
          2   -1    0    0  502    0  0.00000000000E+00  0.00000000000E+00  0.25176004690E+04  0.25176004690E+04  0.00000000000E+00 0. -1.
          1   -1    0    0  501    0 -0.00000000000E+00 -0.00000000000E+00 -0.27752642676E+04  0.27752642676E+04  0.00000000000E+00 0. -1.
         25    2    1    2    0    0  0.35041126783E+02  0.11699983620E+03 -0.99780610783E+03  0.10129961635E+04  0.12500942440E+03 0.  0.
          2    1    1    2  501    0 -0.17861962560E+02 -0.19426547045E+02 -0.17687870100E+04  0.17689838686E+04  0.00000000000E+00 0. -1.
          1    1    1    2  502    0 -0.17179164223E+02 -0.97573289155E+02  0.25089293193E+04  0.25108847046E+04  0.00000000000E+00 0. -1.
         22    1    3    3    0    0  0.18171476290E+02  0.39322508687E+02 -0.73774609985E+02  0.85552062035E+02  0.00000000000E+00 0.  1.
         22    1    3    3    0    0  0.16869650494E+02  0.77677327513E+02 -0.92403149784E+03  0.92744410145E+03  0.00000000000E+00 0.  1.
</event>
<event>
 7    1  0.5736319E-006  0.4157730E+02  0.7818608E-02  0.1530489E+00
          2   -1    0    0  502    0  0.00000000000E+00  0.00000000000E+00  0.59987293519E+03  0.59987293519E+03  0.00000000000E+00 0. -1.
          1   -1    0    0  501    0 -0.00000000000E+00 -0.00000000000E+00 -0.30292646267E+03  0.30292646267E+03  0.00000000000E+00 0. -1.
         25    2    1    2    0    0 -0.15315855372E+02  0.42534463461E+02  0.49968359125E+03  0.51706110277E+03  0.12499894650E+03 0.  0.
          2    1    1    2  501    0  0.33088022881E+02 -0.20598696090E+01 -0.28789147757E+03  0.28979400128E+03  0.00000000000E+00 0. -1.
          1    1    1    2  502    0 -0.17772167509E+02 -0.40474593852E+02  0.85154358838E+02  0.95944293809E+02  0.00000000000E+00 0. -1.
         22    1    3    3    0    0 -0.54010755753E+02  0.63090857367E+02  0.39393162855E+03  0.40259128902E+03  0.00000000000E+00 0. -1.
         22    1    3    3    0    0  0.38694900381E+02 -0.20556393906E+02  0.10575196269E+03  0.11446981375E+03  0.00000000000E+00 0. -1.
</event>
<event>
 7    1  0.5736319E-006  0.3440069E+02  0.7818608E-02  0.1592109E+00
          2   -1    0    0  502    0  0.00000000000E+00  0.00000000000E+00  0.13093124039E+04  0.13093124039E+04  0.00000000000E+00 0. -1.
          1   -1    0    0  501    0 -0.00000000000E+00 -0.00000000000E+00 -0.19227775109E+03  0.19227775109E+03  0.00000000000E+00 0. -1.
         25    2    1    2    0    0  0.10604655006E+02 -0.26431595341E+02  0.80020608874E+02  0.15112403853E+03  0.12499635689E+03 0.  0.
          2    1    1    2  501    0  0.16192206782E+02  0.30649922458E+02 -0.15465306026E+03  0.15849029736E+03  0.00000000000E+00 0. -1.
          1    1    1    2  502    0 -0.26796861788E+02 -0.42183271173E+01  0.11916671042E+04  0.11919758191E+04  0.00000000000E+00 0. -1.
         22    1    3    3    0    0  0.31363579871E+02 -0.64856118772E+02  0.79720768623E+02  0.10744948224E+03  0.00000000000E+00 0.  1.
         22    1    3    3    0    0 -0.20758924866E+02  0.38424523431E+02  0.29984025064E+00  0.43674556285E+02  0.00000000000E+00 0.  1.
</event>
<event>
 7    1  0.5736319E-006  0.5404073E+02  0.7818608E-02  0.1458032E+00
          2   -1    0    0  502    0  0.00000000000E+00  0.00000000000E+00  0.29557237631E+04  0.29557237631E+04  0.00000000000E+00 0. -1.
          1   -1    0    0  501    0 -0.00000000000E+00 -0.00000000000E+00 -0.15558857809E+03  0.15558857809E+03  0.00000000000E+00 0. -1.
         25    2    1    2    0    0  0.44026396480E+02 -0.58999479421E+02  0.14997023903E+02  0.14583966834E+03  0.12500014391E+03 0.  0.
          2    1    1    2  501    0 -0.41840426558E+02  0.50292355884E+01 -0.84975283910E+02  0.94851006219E+02  0.00000000000E+00 0. -1.
          1    1    1    2  502    0 -0.21859699218E+01  0.53970243833E+02  0.28701134450E+04  0.28706216666E+04  0.00000000000E+00 0. -1.
         22    1    3    3    0    0  0.11370183526E+02  0.38955275049E+02 -0.42626301875E+01  0.40803977057E+02  0.00000000000E+00 0.  1.
         22    1    3    3    0    0  0.32656212953E+02 -0.97954754470E+02  0.19259654090E+02  0.10503569128E+03  0.00000000000E+00 0.  1.
</event>
<event>
 7    1  0.5736319E-006  0.7288769E+02  0.7818608E-02  0.1389497E+00
          2   -1    0    0  502    0  0.00000000000E+00  0.00000000000E+00  0.36065828940E+03  0.36065828940E+03  0.00000000000E+00 0. -1.
          1   -1    0    0  501    0 -0.00000000000E+00 -0.00000000000E+00 -0.88758533973E+03  0.88758533973E+03  0.00000000000E+00 0. -1.
         25    2    1    2    0    0  0.15390832088E+02 -0.10750388729E+03  0.31199228719E+02  0.16848509175E+03  0.12497948141E+03 0.  0.
          2    1    1    2  501    0  0.21085328971E+02  0.69338231926E+02 -0.81464559947E+03  0.81786296788E+03  0.00000000000E+00 0. -1.
          1    1    1    2  502    0 -0.36476161059E+02  0.38165655363E+02  0.25651932042E+03  0.26189556950E+03  0.00000000000E+00 0. -1.
         22    1    3    3    0    0 -0.16689587670E+02  0.18586741633E+02 -0.16468522583E+02  0.29920252960E+02  0.00000000000E+00 0.  1.
         22    1    3    3    0    0  0.32080419758E+02 -0.12609062892E+03  0.47667751301E+02  0.13856483879E+03  0.00000000000E+00 0.  1.
</event>
<event>
 7    1  0.5736319E-006  0.6961903E+02  0.7818608E-02  0.1439756E+00
          2   -1    0    0  502    0  0.00000000000E+00  0.00000000000E+00  0.10721051038E+03  0.10721051038E+03  0.00000000000E+00 0. -1.
          1   -1    0    0  501    0 -0.00000000000E+00 -0.00000000000E+00 -0.40958734761E+03  0.40958734761E+03  0.00000000000E+00 0. -1.
         25    2    1    2    0    0  0.45168975633E+02  0.52708969307E+02 -0.24026812519E+03  0.27959336193E+03  0.12500081698E+03 0.  0.
          2    1    1    2  501    0 -0.12897882140E+02 -0.71680546523E+02 -0.13605512085E+03  0.15432255838E+03  0.00000000000E+00 0. -1.
          1    1    1    2  502    0 -0.32271093493E+02  0.18971577216E+02  0.73946408814E+02  0.82881937681E+02  0.00000000000E+00 0. -1.
         22    1    3    3    0    0 -0.15155609276E+02  0.11027918976E+02 -0.18946426389E+03  0.19038911414E+03  0.00000000000E+00 0.  1.
         22    1    3    3    0    0  0.60324584910E+02  0.41681050332E+02 -0.50803861302E+02  0.89204247794E+02  0.00000000000E+00 0.  1.
</event>
<event>
 7    1  0.5736319E-006  0.1099909E+03  0.7818608E-02  0.1331798E+00
          2   -1    0    0  502    0  0.00000000000E+00  0.00000000000E+00  0.10473397282E+04  0.10473397282E+04  0.00000000000E+00 0. -1.
          1   -1    0    0  501    0 -0.00000000000E+00 -0.00000000000E+00 -0.11616751191E+03  0.11616751191E+03  0.00000000000E+00 0. -1.
         25    2    1    2    0    0 -0.11018312933E+02  0.81510582696E+02  0.37500360746E+02  0.15426162690E+03  0.12499997666E+03 0.  0.
          2    1    1    2  501    0 -0.56190923086E+02  0.82841163931E+01 -0.39611433473E+02  0.69246747818E+02  0.00000000000E+00 0. -1.
          1    1    1    2  502    0  0.67209236019E+02 -0.89794699089E+02  0.93328328901E+03  0.93999886539E+03  0.00000000000E+00 0. -1.
         22    1    3    3    0    0  0.12240837626E+01 -0.32019913781E+02  0.22360108393E+02  0.39073619067E+02  0.00000000000E+00 0. -1.
         22    1    3    3    0    0 -0.12242396696E+02  0.11353049648E+03  0.15140252352E+02  0.11518800783E+03  0.00000000000E+00 0. -1.
</event>
<event>
 7    1  0.5736319E-006  0.3802069E+02  0.7818608E-02  0.1541784E+00
          2   -1    0    0  502    0  0.00000000000E+00  0.00000000000E+00  0.95360894511E+03  0.95360894511E+03  0.00000000000E+00 0. -1.
          1   -1    0    0  501    0 -0.00000000000E+00 -0.00000000000E+00 -0.35280431254E+02  0.35280431254E+02  0.00000000000E+00 0. -1.
         25    2    1    2    0    0 -0.29279299447E+02 -0.99976737066E+01  0.12643730792E+03  0.18047060419E+03  0.12500406108E+03 0.  0.
          2    1    1    2  501    0  0.27580120224E+02 -0.27985028500E+02  0.41811912996E+02  0.57376484034E+02  0.00000000000E+00 0. -1.
          1    1    1    2  502    0  0.16991792227E+01  0.37982702207E+02  0.75007929294E+03  0.75104228814E+03  0.00000000000E+00 0. -1.
         22    1    3    3    0    0 -0.57839900486E+02 -0.20962447350E+02  0.12867742442E+02  0.62852661700E+02  0.00000000000E+00 0. -1.
         22    1    3    3    0    0  0.28560601040E+02  0.10964773644E+02  0.11356956547E+03  0.11761794249E+03  0.00000000000E+00 0. -1.
</event>
<event>
 7    1  0.5736319E-006  0.2077913E+03  0.7818608E-02  0.1272426E+00
          2   -1    0    0  502    0  0.00000000000E+00  0.00000000000E+00  0.16148233035E+04  0.16148233035E+04  0.00000000000E+00 0. -1.
          1   -1    0    0  501    0 -0.00000000000E+00 -0.00000000000E+00 -0.31895099218E+03  0.31895099218E+03  0.00000000000E+00 0. -1.
         25    2    1    2    0    0  0.21344794074E+03  0.16487702349E+02  0.18696472887E+03  0.31050377505E+03  0.12499966699E+03 0.  0.
          2    1    1    2  501    0 -0.20473459377E+03  0.34665553072E+02 -0.21467613013E+03  0.29867004420E+03  0.00000000000E+00 0. -1.
          1    1    1    2  502    0 -0.87133469675E+01 -0.51153255421E+02  0.13235837125E+04  0.13246004764E+04  0.00000000000E+00 0. -1.
         22    1    3    3    0    0  0.19700894819E+03 -0.23876637135E+02  0.12427145524E+03  0.23414955489E+03  0.00000000000E+00 0. -1.
         22    1    3    3    0    0  0.16438992545E+02  0.40364339484E+02  0.62693273631E+02  0.76354220161E+02  0.00000000000E+00 0. -1.
</event>
<event>
 7    1  0.5736319E-006  0.3178903E+03  0.7818608E-02  0.1268747E+00
          2   -1    0    0  502    0  0.00000000000E+00  0.00000000000E+00  0.94913746318E+03  0.94913746318E+03  0.00000000000E+00 0. -1.
          1   -1    0    0  501    0 -0.00000000000E+00 -0.00000000000E+00 -0.24933122519E+04  0.24933122519E+04  0.00000000000E+00 0. -1.
         25    2    1    2    0    0  0.16738717073E+02  0.33698432932E+03 -0.74273875730E+03  0.82530309403E+03  0.12500285021E+03 0.  0.
          2    1    1    2  501    0  0.26796822166E+02 -0.22740726507E+02 -0.16813872043E+04  0.16817544830E+04  0.00000000000E+00 0. -1.
          1    1    1    2  502    0 -0.43535539238E+02 -0.31424360281E+03  0.87995117293E+03  0.93539213800E+03  0.00000000000E+00 0. -1.
         22    1    3    3    0    0  0.48759424467E+02  0.28395194410E+03 -0.52424139319E+03  0.59819330184E+03  0.00000000000E+00 0. -1.
         22    1    3    3    0    0 -0.32020707394E+02  0.53032385217E+02 -0.21849736411E+03  0.22710979219E+03  0.00000000000E+00 0. -1.
</event>
<event>
 7    1  0.5736319E-006  0.7670992E+02  0.7818608E-02  0.1483193E+00
          2   -1    0    0  502    0  0.00000000000E+00  0.00000000000E+00  0.16412649206E+03  0.16412649206E+03  0.00000000000E+00 0. -1.
          1   -1    0    0  501    0 -0.00000000000E+00 -0.00000000000E+00 -0.11143936517E+04  0.11143936517E+04  0.00000000000E+00 0. -1.
         25    2    1    2    0    0 -0.21244256692E+02  0.57249092008E+02 -0.72396703918E+02  0.15682934223E+03  0.12500153146E+03 0.  0.
          2    1    1    2  501    0  0.45461803086E+02 -0.62571379251E+02 -0.99700641997E+03  0.10000018772E+04  0.00000000000E+00 0. -1.
          1    1    1    2  502    0 -0.24217546394E+02  0.53222872428E+01  0.11913596429E+03  0.12168892424E+03  0.00000000000E+00 0. -1.
         22    1    3    3    0    0 -0.72422912327E+02  0.37402674906E+02 -0.27854627258E+02  0.86138949261E+02  0.00000000000E+00 0.  1.
         22    1    3    3    0    0  0.51178655635E+02  0.19846417103E+02 -0.44542076660E+02  0.70690392965E+02  0.00000000000E+00 0.  1.
</event>
<event>
 7    1  0.5736319E-006  0.1320219E+03  0.7818608E-02  0.1336045E+00
          2   -1    0    0  502    0  0.00000000000E+00  0.00000000000E+00  0.16793529662E+04  0.16793529662E+04  0.00000000000E+00 0. -1.
          1   -1    0    0  501    0 -0.00000000000E+00 -0.00000000000E+00 -0.11355214644E+03  0.11355214644E+03  0.00000000000E+00 0. -1.
         25    2    1    2    0    0 -0.57569653200E+00  0.11459985169E+03  0.15169084259E+03  0.22752805822E+03  0.12500179246E+03 0.  0.
          2    1    1    2  501    0 -0.44090635120E+02  0.11616972907E+02 -0.65453006888E+02  0.79768629645E+02  0.00000000000E+00 0. -1.
          1    1    1    2  502    0  0.44666331652E+02 -0.12621682459E+03  0.14795629841E+04  0.14856084248E+04  0.00000000000E+00 0. -1.
         22    1    3    3    0    0  0.12169699166E+01  0.11808287818E+03  0.54156797909E+02  0.12991537975E+03  0.00000000000E+00 0. -1.
         22    1    3    3    0    0 -0.17926664486E+01 -0.34830264940E+01  0.97534044683E+02  0.97612678473E+02  0.00000000000E+00 0. -1.
</event>
<event>
 7    1  0.5736319E-006  0.3828348E+02  0.7818608E-02  0.1554255E+00
          2   -1    0    0  502    0  0.00000000000E+00  0.00000000000E+00  0.19732045570E+02  0.19732045570E+02  0.00000000000E+00 0. -1.
          1   -1    0    0  501    0 -0.00000000000E+00 -0.00000000000E+00 -0.13313280223E+04  0.13313280223E+04  0.00000000000E+00 0. -1.
         25    2    1    2    0    0  0.53920547358E+02  0.40340783735E+02 -0.49116045723E+03  0.51127163176E+03  0.12500112975E+03 0.  0.
          2    1    1    2  501    0 -0.26811192227E+02 -0.25597494155E+02 -0.80394588823E+03  0.80480001425E+03  0.00000000000E+00 0. -1.
          1    1    1    2  502    0 -0.27109355131E+02 -0.14743289581E+02 -0.16489631234E+02  0.34988421820E+02  0.00000000000E+00 0. -1.
         22    1    3    3    0    0  0.36043598654E+02  0.85746224167E+02 -0.33400339029E+03  0.34671287933E+03  0.00000000000E+00 0.  1.
         22    1    3    3    0    0  0.17876948704E+02 -0.45405440432E+02 -0.15715706694E+03  0.16455875244E+03  0.00000000000E+00 0.  1.
</event>
<event>
 7    1  0.5736319E-006  0.6459172E+02  0.7818608E-02  0.1464364E+00
          2   -1    0    0  502    0  0.00000000000E+00  0.00000000000E+00  0.23960906241E+03  0.23960906241E+03  0.00000000000E+00 0. -1.
          1   -1    0    0  501    0 -0.00000000000E+00 -0.00000000000E+00 -0.48935289900E+03  0.48935289900E+03  0.00000000000E+00 0. -1.
         25    2    1    2    0    0 -0.22908165657E+02  0.28078386991E+02 -0.14762395054E+03  0.19680199191E+03  0.12500005351E+03 0.  0.
          2    1    1    2  501    0  0.51391990289E+02 -0.46042337845E+02 -0.31202883343E+03  0.31956693576E+03  0.00000000000E+00 0. -1.
          1    1    1    2  502    0 -0.28483824632E+02  0.17963950855E+02  0.20990894739E+03  0.21259303373E+03  0.00000000000E+00 0. -1.
         22    1    3    3    0    0 -0.23764121415E+02  0.75138765316E+02 -0.11547001620E+03  0.13979947125E+03  0.00000000000E+00 0. -1.
         22    1    3    3    0    0  0.85595575754E+00 -0.47060378326E+02 -0.32153934343E+02  0.57002520665E+02  0.00000000000E+00 0. -1.
</event>
<event>
 7    1  0.5736319E-006  0.6138099E+02  0.7818608E-02  0.1515529E+00
          2   -1    0    0  502    0  0.00000000000E+00  0.00000000000E+00  0.12201599551E+04  0.12201599551E+04  0.00000000000E+00 0. -1.
          1   -1    0    0  501    0 -0.00000000000E+00 -0.00000000000E+00 -0.23823743985E+04  0.23823743985E+04  0.00000000000E+00 0. -1.
         25    2    1    2    0    0 -0.46774924820E+02 -0.10400401847E+02 -0.75108050432E+03  0.76292030407E+03  0.12501761657E+03 0.  0.
          2    1    1    2  501    0  0.52818175007E+02  0.34461539988E+02 -0.16246354054E+04  0.16258590215E+04  0.00000000000E+00 0. -1.
          1    1    1    2  502    0 -0.60432501872E+01 -0.24061138142E+02  0.12135014663E+04  0.12137550280E+04  0.00000000000E+00 0. -1.
         22    1    3    3    0    0 -0.88338303199E+02 -0.16172522538E+02 -0.44450826216E+03  0.45348958249E+03  0.00000000000E+00 0. -1.
         22    1    3    3    0    0  0.41563378379E+02  0.57721206913E+01 -0.30657224215E+03  0.30943072158E+03  0.00000000000E+00 0. -1.
</event>
<event>
 7    1  0.5736319E-006  0.6727452E+02  0.7818608E-02  0.1400566E+00
          2   -1    0    0  502    0  0.00000000000E+00  0.00000000000E+00  0.15695444403E+04  0.15695444403E+04  0.00000000000E+00 0. -1.
          1   -1    0    0  501    0 -0.00000000000E+00 -0.00000000000E+00 -0.63575335651E+03  0.63575335651E+03  0.00000000000E+00 0. -1.
         25    2    1    2    0    0 -0.25318417551E+02  0.41184499011E+02  0.61459408526E+03  0.62903724381E+03  0.12499911692E+03 0.  0.
          2    1    1    2  501    0  0.42710178841E+02  0.30297067408E+02 -0.62600933052E+03  0.62819563319E+03  0.00000000000E+00 0. -1.
          1    1    1    2  502    0 -0.17391761290E+02 -0.71481566419E+02  0.94520632901E+03  0.94806491977E+03  0.00000000000E+00 0. -1.
         22    1    3    3    0    0  0.14359816567E+02  0.73502123488E+02  0.25337997572E+03  0.26421615883E+03  0.00000000000E+00 0.  1.
         22    1    3    3    0    0 -0.39678234118E+02 -0.32317624477E+02  0.36121410955E+03  0.36482108498E+03  0.00000000000E+00 0.  1.
</event>
<event>
 7    1  0.5736319E-006  0.1185430E+03  0.7818608E-02  0.1449719E+00
          2   -1    0    0  502    0  0.00000000000E+00  0.00000000000E+00  0.11643786167E+03  0.11643786167E+03  0.00000000000E+00 0. -1.
          1   -1    0    0  501    0 -0.00000000000E+00 -0.00000000000E+00 -0.31188538612E+04  0.31188538612E+04  0.00000000000E+00 0. -1.
         25    2    1    2    0    0 -0.10665856795E+03  0.31660295497E+02 -0.26435457498E+04  0.26488370587E+04  0.12500083120E+03 0.  0.
          2    1    1    2  501    0  0.52974714786E-01  0.20417670823E+02 -0.44143552776E+03  0.44190746685E+03  0.00000000000E+00 0. -1.
          1    1    1    2  502    0  0.10660559324E+03 -0.52077966319E+02  0.82565278096E+02  0.14454719725E+03  0.00000000000E+00 0. -1.
         22    1    3    3    0    0 -0.11280247361E+03 -0.19389738324E+02 -0.16531919086E+04  0.16571493133E+04  0.00000000000E+00 0. -1.
         22    1    3    3    0    0  0.61439056554E+01  0.51050033821E+02 -0.99035384123E+03  0.99168774540E+03  0.00000000000E+00 0. -1.
</event>
<event>
 7    1  0.5736319E-006  0.3178843E+03  0.7818608E-02  0.1319659E+00
          2   -1    0    0  502    0  0.00000000000E+00  0.00000000000E+00  0.65871215651E+03  0.65871215651E+03  0.00000000000E+00 0. -1.
          1   -1    0    0  501    0 -0.00000000000E+00 -0.00000000000E+00 -0.14761233180E+04  0.14761233180E+04  0.00000000000E+00 0. -1.
         25    2    1    2    0    0 -0.25581527265E+03 -0.20946725290E+03  0.80525258891E+02  0.36252804420E+03  0.12499712698E+03 0.  0.
          2    1    1    2  501    0  0.23427280928E+03  0.21331309344E+03 -0.13160345527E+04  0.13536370152E+04  0.00000000000E+00 0. -1.
          1    1    1    2  502    0  0.21542463373E+02 -0.38458405461E+01  0.41809813234E+03  0.41867041510E+03  0.00000000000E+00 0. -1.
         22    1    3    3    0    0 -0.17613976839E+03 -0.11094711426E+03 -0.74041511500E+01  0.20830098806E+03  0.00000000000E+00 0.  1.
         22    1    3    3    0    0 -0.79675504259E+02 -0.98520138633E+02  0.87929410041E+02  0.15422705614E+03  0.00000000000E+00 0.  1.
</event>
<event>
 7    1  0.5736319E-006  0.6791534E+02  0.7818608E-02  0.1489155E+00
          2   -1    0    0  502    0  0.00000000000E+00  0.00000000000E+00  0.40412023144E+03  0.40412023144E+03  0.00000000000E+00 0. -1.
          1   -1    0    0  501    0 -0.00000000000E+00 -0.00000000000E+00 -0.14081187680E+03  0.14081187680E+03  0.00000000000E+00 0. -1.
         25    2    1    2    0    0  0.64123136407E+02  0.49942114252E+02  0.71344660965E+02  0.16528954912E+03  0.12499833200E+03 0.  0.
          2    1    1    2  501    0 -0.62788216446E+02 -0.23114129851E+02 -0.81170002169E+02  0.10519121815E+03  0.00000000000E+00 0. -1.
          1    1    1    2  502    0 -0.13349199605E+01 -0.26827984401E+02  0.27313369584E+03  0.27445134098E+03  0.00000000000E+00 0. -1.
         22    1    3    3    0    0  0.39698953247E+02  0.56097258789E+02 -0.19160786387E+02  0.71344551771E+02  0.00000000000E+00 0. -1.
         22    1    3    3    0    0  0.24424183160E+02 -0.61551445364E+01  0.90505447352E+02  0.93944997353E+02  0.00000000000E+00 0. -1.
</event>
<event>
 7    1  0.5736319E-006  0.8640652E+02  0.7818608E-02  0.1396381E+00
          2   -1    0    0  502    0  0.00000000000E+00  0.00000000000E+00  0.35044945990E+03  0.35044945990E+03  0.00000000000E+00 0. -1.
          1   -1    0    0  501    0 -0.00000000000E+00 -0.00000000000E+00 -0.61258357038E+03  0.61258357038E+03  0.00000000000E+00 0. -1.
         25    2    1    2    0    0  0.37453223109E+02 -0.73653848814E+02  0.16140199458E+03  0.22023391840E+03  0.12499896637E+03 0.  0.
          2    1    1    2  501    0  0.36685757867E+02  0.20749237605E+02 -0.56933332478E+03  0.57089124218E+03  0.00000000000E+00 0. -1.
          1    1    1    2  502    0 -0.74138980976E+02  0.52904611209E+02  0.14579721972E+03  0.17190786970E+03  0.00000000000E+00 0. -1.
         22    1    3    3    0    0  0.11791530331E+02 -0.44584554128E+02  0.17357136505E+03  0.17959354504E+03  0.00000000000E+00 0. -1.
         22    1    3    3    0    0  0.25661692779E+02 -0.29069294687E+02 -0.12169370465E+02  0.40640373366E+02  0.00000000000E+00 0. -1.
</event>
<event>
 7    1  0.5736319E-006  0.5170342E+02  0.7818608E-02  0.1501155E+00
          2   -1    0    0  502    0  0.00000000000E+00  0.00000000000E+00  0.23116810016E+03  0.23116810016E+03  0.00000000000E+00 0. -1.
          1   -1    0    0  501    0 -0.00000000000E+00 -0.00000000000E+00 -0.74896100023E+03  0.74896100023E+03  0.00000000000E+00 0. -1.
         25    2    1    2    0    0  0.20346238815E+01  0.32226403181E+02 -0.68087776204E+02  0.14595608323E+03  0.12499820882E+03 0.  0.
          2    1    1    2  501    0 -0.30085740915E+02  0.12220763110E+02 -0.63792583222E+03  0.63875180334E+03  0.00000000000E+00 0. -1.
          1    1    1    2  502    0  0.28051117033E+02 -0.44447166291E+02  0.18822070835E+03  0.19542121382E+03  0.00000000000E+00 0. -1.
         22    1    3    3    0    0 -0.81801879224E+01 -0.90561844267E+01  0.33592484350E+02  0.35740522599E+02  0.00000000000E+00 0. -1.
         22    1    3    3    0    0  0.10214811804E+02  0.41282587608E+02 -0.10168026055E+03  0.11021556064E+03  0.00000000000E+00 0. -1.
</event>
<event>
 7    1  0.5736319E-006  0.7358946E+02  0.7818608E-02  0.1382655E+00
          2   -1    0    0  502    0  0.00000000000E+00  0.00000000000E+00  0.30798891377E+04  0.30798891377E+04  0.00000000000E+00 0. -1.
          1   -1    0    0  501    0 -0.00000000000E+00 -0.00000000000E+00 -0.94225297903E+03  0.94225297903E+03  0.00000000000E+00 0. -1.
         25    2    1    2    0    0  0.65348860122E+02  0.26254250369E+02  0.15014403657E+03  0.20767463590E+03  0.12500305394E+03 0.  0.
          2    1    1    2  501    0 -0.28976020619E+02 -0.67858864451E+02 -0.91173392045E+03  0.91471480635E+03  0.00000000000E+00 0. -1.
          1    1    1    2  502    0 -0.36372839504E+02  0.41604614083E+02  0.28992260425E+04  0.28997526745E+04  0.00000000000E+00 0. -1.
         22    1    3    3    0    0  0.10119019637E+03  0.63727336501E+01  0.94797017382E+02  0.13880396997E+03  0.00000000000E+00 0. -1.
         22    1    3    3    0    0 -0.35841336251E+02  0.19881516719E+02  0.55347019191E+02  0.68870665923E+02  0.00000000000E+00 0. -1.
</event>
<event>
 7    1  0.5736319E-006  0.1904640E+03  0.7818608E-02  0.1306085E+00
          2   -1    0    0  502    0  0.00000000000E+00  0.00000000000E+00  0.69924468610E+02  0.69924468610E+02  0.00000000000E+00 0. -1.
          1   -1    0    0  501    0 -0.00000000000E+00 -0.00000000000E+00 -0.12782623418E+04  0.12782623418E+04  0.00000000000E+00 0. -1.
         25    2    1    2    0    0  0.81382819466E+02 -0.16357295553E+03 -0.29439881827E+03  0.36834106951E+03  0.12500081682E+03 0.  0.
          2    1    1    2  501    0 -0.47730201659E+02  0.18749301291E+03 -0.91817866542E+03  0.93834101673E+03  0.00000000000E+00 0. -1.
          1    1    1    2  502    0 -0.33652617807E+02 -0.23920057379E+02  0.42396105126E+01  0.41504724160E+02  0.00000000000E+00 0. -1.
         22    1    3    3    0    0 -0.16199721172E+02 -0.63116715581E+02 -0.16603654311E+03  0.17836559197E+03  0.00000000000E+00 0. -1.
         22    1    3    3    0    0  0.97582540638E+02 -0.10045623995E+03 -0.12836227516E+03  0.18997547754E+03  0.00000000000E+00 0. -1.
</event>
<event>
 7    1  0.5736319E-006  0.5278334E+02  0.7818608E-02  0.1447770E+00
          2   -1    0    0  502    0  0.00000000000E+00  0.00000000000E+00  0.13038763060E+04  0.13038763060E+04  0.00000000000E+00 0. -1.
          1   -1    0    0  501    0 -0.00000000000E+00 -0.00000000000E+00 -0.12009769541E+04  0.12009769541E+04  0.00000000000E+00 0. -1.
         25    2    1    2    0    0  0.18664220845E+02 -0.17431251520E+01  0.14954703916E+03  0.19579804692E+03  0.12498466559E+03 0.  0.
          2    1    1    2  501    0  0.14756974266E+02  0.44116758053E+02 -0.11767479415E+04  0.11776670899E+04  0.00000000000E+00 0. -1.
          1    1    1    2  502    0 -0.33421195111E+02 -0.42373632901E+02  0.11301002542E+04  0.11313881234E+04  0.00000000000E+00 0. -1.
         22    1    3    3    0    0  0.56240826881E+02  0.37526858836E+02  0.56823365000E+02  0.88318687446E+02  0.00000000000E+00 0. -1.
         22    1    3    3    0    0 -0.37576606036E+02 -0.39269983988E+02  0.92723674157E+02  0.10747935947E+03  0.00000000000E+00 0. -1.
</event>
<event>
 7    1  0.5736319E-006  0.1715574E+03  0.7818608E-02  0.1256297E+00
          2   -1    0    0  502    0  0.00000000000E+00  0.00000000000E+00  0.48639051913E+03  0.48639051913E+03  0.00000000000E+00 0. -1.
          1   -1    0    0  501    0 -0.00000000000E+00 -0.00000000000E+00 -0.91935236447E+03  0.91935236447E+03  0.00000000000E+00 0. -1.
         25    2    1    2    0    0  0.53505178726E+02  0.17537952471E+03 -0.17291027167E+03  0.28132479742E+03  0.12499959103E+03 0.  0.
          2    1    1    2  501    0 -0.11173745641E+03 -0.13042967288E+03 -0.67832252395E+03  0.69972752214E+03  0.00000000000E+00 0. -1.
          1    1    1    2  502    0  0.58232277683E+02 -0.44949851824E+02  0.41827095028E+03  0.42469056405E+03  0.00000000000E+00 0. -1.
         22    1    3    3    0    0 -0.86039137683E+01  0.12494984627E+03 -0.50402224582E+02  0.13500694670E+03  0.00000000000E+00 0.  1.
         22    1    3    3    0    0  0.62109092494E+02  0.50429678437E+02 -0.12250804709E+03  0.14631785072E+03  0.00000000000E+00 0.  1.
</event>
<event>
 7    1  0.5736319E-006  0.6075930E+02  0.7818608E-02  0.1427546E+00
          2   -1    0    0  502    0  0.00000000000E+00  0.00000000000E+00  0.49211260178E+03  0.49211260178E+03  0.00000000000E+00 0. -1.
          1   -1    0    0  501    0 -0.00000000000E+00 -0.00000000000E+00 -0.28916683159E+03  0.28916683159E+03  0.00000000000E+00 0. -1.
         25    2    1    2    0    0  0.16690090897E+02  0.25369820377E+02  0.18589568580E+02  0.12997629166E+03  0.12500430958E+03 0.  0.
          2    1    1    2  501    0 -0.30948770869E+02  0.35411825562E+02 -0.22873549431E+03  0.23352034208E+03  0.00000000000E+00 0. -1.
          1    1    1    2  502    0  0.14258679972E+02 -0.60781645940E+02  0.41309169591E+03  0.41778279963E+03  0.00000000000E+00 0. -1.
         22    1    3    3    0    0 -0.19886031351E+02  0.33515198730E+02  0.61624812195E+02  0.72913237940E+02  0.00000000000E+00 0. -1.
         22    1    3    3    0    0  0.36576122248E+02 -0.81453783524E+01 -0.43035243615E+02  0.57063053723E+02  0.00000000000E+00 0. -1.
</event>
<event>
 7    1  0.5736319E-006  0.9900059E+02  0.7818608E-02  0.1411366E+00
          2   -1    0    0  502    0  0.00000000000E+00  0.00000000000E+00  0.39887377099E+03  0.39887377099E+03  0.00000000000E+00 0. -1.
          1   -1    0    0  501    0 -0.00000000000E+00 -0.00000000000E+00 -0.21546400410E+03  0.21546400410E+03  0.00000000000E+00 0. -1.
         25    2    1    2    0    0 -0.36714594135E+02 -0.71481987337E+02 -0.95237717975E+01  0.14892730665E+03  0.12502401569E+03 0.  0.
          2    1    1    2  501    0  0.68368981326E+02  0.79651749565E+02 -0.11502452099E+03  0.15572205767E+03  0.00000000000E+00 0. -1.
          1    1    1    2  502    0 -0.31654387190E+02 -0.81697622280E+01  0.30795805968E+03  0.30968841077E+03  0.00000000000E+00 0. -1.
         22    1    3    3    0    0 -0.13195181892E+02 -0.90489373481E+02 -0.45326057487E+02  0.10206317174E+03  0.00000000000E+00 0.  1.
         22    1    3    3    0    0 -0.23519412243E+02  0.19007386144E+02  0.35802285690E+02  0.46864134910E+02  0.00000000000E+00 0.  1.
</event>
<event>
 7    1  0.5736319E-006  0.6087997E+02  0.7818608E-02  0.1513348E+00
          2   -1    0    0  502    0  0.00000000000E+00  0.00000000000E+00  0.21356437559E+04  0.21356437559E+04  0.00000000000E+00 0. -1.
          1   -1    0    0  501    0 -0.00000000000E+00 -0.00000000000E+00 -0.20448198568E+02  0.20448198568E+02  0.00000000000E+00 0. -1.
         25    2    1    2    0    0  0.61861559512E+02  0.23015673647E+02  0.16729776392E+04  0.16789389945E+04  0.12500156986E+03 0.  0.
          2    1    1    2  501    0 -0.18374841653E+02  0.17511555486E+02 -0.51104989492E+01  0.25892210813E+02  0.00000000000E+00 0. -1.
          1    1    1    2  502    0 -0.43486717859E+02 -0.40527229133E+02  0.44732841716E+03  0.45126074916E+03  0.00000000000E+00 0. -1.
         22    1    3    3    0    0  0.10056781201E+02 -0.43472680340E+02  0.29180232237E+03  0.29519418715E+03  0.00000000000E+00 0. -1.
         22    1    3    3    0    0  0.51804778311E+02  0.66488353987E+02  0.13811753168E+04  0.13837448074E+04  0.00000000000E+00 0. -1.
</event>
<event>
 7    1  0.5736319E-006  0.9907677E+02  0.7818608E-02  0.1343002E+00
          2   -1    0    0  502    0  0.00000000000E+00  0.00000000000E+00  0.16627939003E+04  0.16627939003E+04  0.00000000000E+00 0. -1.
          1   -1    0    0  501    0 -0.00000000000E+00 -0.00000000000E+00 -0.14773957324E+03  0.14773957324E+03  0.00000000000E+00 0. -1.
         25    2    1    2    0    0 -0.14205822539E+02  0.14645616809E+03  0.62932757454E+03  0.65827735626E+03  0.12499866847E+03 0.  0.
          2    1    1    2  501    0  0.32541396498E+02 -0.92273565745E+02 -0.11437735054E+03  0.15051754628E+03  0.00000000000E+00 0. -1.
          1    1    1    2  502    0 -0.18335573958E+02 -0.54182602345E+02  0.10001041031E+04  0.10017385710E+04  0.00000000000E+00 0. -1.
         22    1    3    3    0    0  0.15719925506E+01  0.12368361311E+03  0.61455704007E+03  0.62688153810E+03  0.00000000000E+00 0.  1.
         22    1    3    3    0    0 -0.15777815090E+02  0.22772554981E+02  0.14770534477E+02  0.31395818163E+02  0.00000000000E+00 0.  1.
</event>
<event>
 7    1  0.5736319E-006  0.5408552E+02  0.7818608E-02  0.1442046E+00
          2   -1    0    0  502    0  0.00000000000E+00  0.00000000000E+00  0.35348088046E+03  0.35348088046E+03  0.00000000000E+00 0. -1.
          1   -1    0    0  501    0 -0.00000000000E+00 -0.00000000000E+00 -0.19047839420E+04  0.19047839420E+04  0.00000000000E+00 0. -1.
         25    2    1    2    0    0  0.24989006892E+02 -0.88547754553E+02 -0.22790348837E+03  0.27573793864E+03  0.12500502187E+03 0.  0.
          2    1    1    2  501    0 -0.31747050297E+02  0.35156599403E+02 -0.16504240774E+04  0.16511037208E+04  0.00000000000E+00 0. -1.
          1    1    1    2  502    0  0.67580434058E+01  0.53391155151E+02  0.32702450423E+03  0.33142316299E+03  0.00000000000E+00 0. -1.
         22    1    3    3    0    0  0.50623381154E+02 -0.50212047170E+02 -0.38968039787E+02  0.81255673804E+02  0.00000000000E+00 0.  1.
         22    1    3    3    0    0 -0.25634374263E+02 -0.38335707384E+02 -0.18893544859E+03  0.19448226484E+03  0.00000000000E+00 0.  1.
</event>
<event>
 7    1  0.5736319E-006  0.2575419E+03  0.7818608E-02  0.1243402E+00
          2   -1    0    0  502    0  0.00000000000E+00  0.00000000000E+00  0.16585985425E+04  0.16585985425E+04  0.00000000000E+00 0. -1.
          1   -1    0    0  501    0 -0.00000000000E+00 -0.00000000000E+00 -0.36783099623E+03  0.36783099623E+03  0.00000000000E+00 0. -1.
         25    2    1    2    0    0  0.23517650646E+03 -0.10482727645E+03  0.13021297879E+04  0.13332155856E+04  0.12500026395E+03 0.  0.
          2    1    1    2  501    0 -0.23743895048E+02 -0.50431458870E+02 -0.29886951847E+03  0.30402317949E+03  0.00000000000E+00 0. -1.
          1    1    1    2  502    0 -0.21143261142E+03  0.15525873533E+03  0.28750727680E+03  0.38919077363E+03  0.00000000000E+00 0. -1.
         22    1    3    3    0    0  0.18140730250E+03 -0.18053287550E+02  0.90469442729E+03  0.92287948149E+03  0.00000000000E+00 0. -1.
         22    1    3    3    0    0  0.53769203965E+02 -0.86773988904E+02  0.39743536063E+03  0.41033610410E+03  0.00000000000E+00 0. -1.
</event>
<event>
 7    1  0.5736319E-006  0.7328513E+02  0.7818608E-02  0.1415581E+00
          2   -1    0    0  502    0  0.00000000000E+00  0.00000000000E+00  0.11502727406E+04  0.11502727406E+04  0.00000000000E+00 0. -1.
          1   -1    0    0  501    0 -0.00000000000E+00 -0.00000000000E+00 -0.16920233512E+04  0.16920233512E+04  0.00000000000E+00 0. -1.
         25    2    1    2    0    0 -0.11093523033E+03 -0.27393869615E+02  0.14600097108E+02  0.16998948464E+03  0.12500485043E+03 0.  0.
          2    1    1    2  501    0  0.42662502519E+02  0.25941043724E+01 -0.16127984345E+04  0.16133646856E+04  0.00000000000E+00 0. -1.
          1    1    1    2  502    0  0.68272727812E+02  0.24799765243E+02  0.10564477268E+04  0.10589419216E+04  0.00000000000E+00 0. -1.
         22    1    3    3    0    0 -0.61313466146E+02 -0.44485364691E+02  0.63053659351E+02  0.98559894278E+02  0.00000000000E+00 0. -1.
         22    1    3    3    0    0 -0.49621764185E+02  0.17091495076E+02 -0.48453562243E+02  0.71429590358E+02  0.00000000000E+00 0. -1.
</event>
<event>
 7    1  0.5736319E-006  0.1269110E+03  0.7818608E-02  0.1303877E+00
          2   -1    0    0  502    0  0.00000000000E+00  0.00000000000E+00  0.13042426100E+04  0.13042426100E+04  0.00000000000E+00 0. -1.
          1   -1    0    0  501    0 -0.00000000000E+00 -0.00000000000E+00 -0.65946802719E+03  0.65946802719E+03  0.00000000000E+00 0. -1.
         25    2    1    2    0    0  0.81489222870E+02 -0.14516144387E+03  0.37438620895E+03  0.42837042559E+03  0.12499539926E+03 0.  0.
          2    1    1    2  501    0  0.82904751288E+01  0.62681239489E+02 -0.62676250283E+03  0.62994357264E+03  0.00000000000E+00 0. -1.
          1    1    1    2  502    0 -0.89779697999E+02  0.82480204385E+02  0.89715087666E+03  0.90539663893E+03  0.00000000000E+00 0. -1.
         22    1    3    3    0    0  0.54791746399E+02 -0.11144944165E+03  0.12832169880E+03  0.17857651554E+03  0.00000000000E+00 0.  1.
         22    1    3    3    0    0  0.26697476471E+02 -0.33712002221E+02  0.24606451015E+03  0.24979391005E+03  0.00000000000E+00 0.  1.
</event>
<event>
 7    1  0.5736319E-006  0.8248943E+02  0.7818608E-02  0.1332243E+00
          2   -1    0    0  502    0  0.00000000000E+00  0.00000000000E+00  0.96930048350E+03  0.96930048350E+03  0.00000000000E+00 0. -1.
          1   -1    0    0  501    0 -0.00000000000E+00 -0.00000000000E+00 -0.17848887599E+04  0.17848887599E+04  0.00000000000E+00 0. -1.
         25    2    1    2    0    0 -0.10479271485E+03  0.50393015565E+02 -0.14361250903E+02  0.17133211964E+03  0.12500992197E+03 0.  0.
          2    1    1    2  501    0  0.25101865368E+02 -0.71141311373E+02 -0.16892953837E+04  0.16909790310E+04  0.00000000000E+00 0. -1.
          1    1    1    2  502    0  0.79690849482E+02  0.20748295808E+02  0.88806835828E+03  0.89187809270E+03  0.00000000000E+00 0. -1.
         22    1    3    3    0    0 -0.11905051619E+03  0.55347930012E+02 -0.43674057193E+02  0.13836127360E+03  0.00000000000E+00 0.  1.
         22    1    3    3    0    0  0.14257801337E+02 -0.49549144476E+01  0.29312806290E+02  0.32970846042E+02  0.00000000000E+00 0.  1.
</event>
<event>
 7    1  0.5736319E-006  0.7338832E+02  0.7818608E-02  0.1432180E+00
          2   -1    0    0  502    0  0.00000000000E+00  0.00000000000E+00  0.38545696198E+02  0.38545696198E+02  0.00000000000E+00 0. -1.
          1   -1    0    0  501    0 -0.00000000000E+00 -0.00000000000E+00 -0.52389406497E+03  0.52389406497E+03  0.00000000000E+00 0. -1.
         25    2    1    2    0    0  0.89931278379E+02  0.34976078029E+01 -0.38957348681E+03  0.41890506601E+03  0.12495633081E+03 0.  0.
          2    1    1    2  501    0 -0.60126532478E+02  0.19413008113E+02 -0.81953523999E+02  0.10348161618E+03  0.00000000000E+00 0. -1.
          1    1    1    2  502    0 -0.29804745901E+02 -0.22910615916E+02 -0.13821357965E+02  0.40053078981E+02  0.00000000000E+00 0. -1.
         22    1    3    3    0    0  0.34675021333E+02  0.48543600260E+02 -0.29217768598E+03  0.29820569816E+03  0.00000000000E+00 0. -1.
         22    1    3    3    0    0  0.55256257046E+02 -0.45045992457E+02 -0.97395800834E+02  0.12069936785E+03  0.00000000000E+00 0. -1.
</event>
<event>
 7    1  0.5736319E-006  0.1904119E+03  0.7818608E-02  0.1295222E+00
          2   -1    0    0  502    0  0.00000000000E+00  0.00000000000E+00  0.84233379809E+03  0.84233379809E+03  0.00000000000E+00 0. -1.
          1   -1    0    0  501    0 -0.00000000000E+00 -0.00000000000E+00 -0.12851548185E+04  0.12851548185E+04  0.00000000000E+00 0. -1.
         25    2    1    2    0    0 -0.14501812280E+03 -0.53730038930E+02  0.37713272142E+03  0.42634668090E+03  0.12500091890E+03 0.  0.
          2    1    1    2  501    0  0.16631780123E+03  0.94099316636E+02 -0.12520968766E+04  0.12665949948E+04  0.00000000000E+00 0. -1.
          1    1    1    2  502    0 -0.21299678427E+02 -0.40369277707E+02  0.43214313480E+03  0.43454694089E+03  0.00000000000E+00 0. -1.
         22    1    3    3    0    0 -0.10112111586E+03  0.26292378053E+02  0.16350235336E+03  0.19403553482E+03  0.00000000000E+00 0.  1.
         22    1    3    3    0    0 -0.43897006935E+02 -0.80022416982E+02  0.21363036806E+03  0.23231114608E+03  0.00000000000E+00 0.  1.
</event>
<event>
 7    1  0.5736319E-006  0.7395076E+02  0.7818608E-02  0.1469478E+00
          2   -1    0    0  502    0  0.00000000000E+00  0.00000000000E+00  0.93114485688E+03  0.93114485688E+03  0.00000000000E+00 0. -1.
          1   -1    0    0  501    0 -0.00000000000E+00 -0.00000000000E+00 -0.67138781189E+02  0.67138781189E+02  0.00000000000E+00 0. -1.
         25    2    1    2    0    0 -0.36937653407E+02 -0.46106521062E+02  0.10751283148E+03  0.17514153324E+03  0.12500138483E+03 0.  0.
          2    1    1    2  501    0  0.65284823180E+02  0.45630024657E+02  0.14930758394E+02  0.81037860498E+02  0.00000000000E+00 0. -1.
          1    1    1    2  502    0 -0.28347169773E+02  0.47649640525E+00  0.74156248582E+03  0.74210424433E+03  0.00000000000E+00 0. -1.
         22    1    3    3    0    0 -0.13629508298E+02 -0.72655726852E+01  0.12546793066E+03  0.12641500570E+03  0.00000000000E+00 0. -1.
         22    1    3    3    0    0 -0.23308145109E+02 -0.38840948377E+02 -0.17955099180E+02  0.48726527537E+02  0.00000000000E+00 0. -1.
</event>
<event>
 7    1  0.5736319E-006  0.6699705E+02  0.7818608E-02  0.1405407E+00
          2   -1    0    0  502    0  0.00000000000E+00  0.00000000000E+00  0.80724178567E+03  0.80724178567E+03  0.00000000000E+00 0. -1.
          1   -1    0    0  501    0 -0.00000000000E+00 -0.00000000000E+00 -0.48129787432E+02  0.48129787432E+02  0.00000000000E+00 0. -1.
         25    2    1    2    0    0 -0.40316295617E+02 -0.49023469130E+02  0.11834751493E+03  0.18346571844E+03  0.12499932535E+03 0.  0.
          2    1    1    2  501    0 -0.23335929938E+01  0.76274540551E+02  0.86557540132E+02  0.11539262951E+03  0.00000000000E+00 0. -1.
          1    1    1    2  502    0  0.42649888611E+02 -0.27251071421E+02  0.55420694318E+03  0.55651322514E+03  0.00000000000E+00 0. -1.
         22    1    3    3    0    0 -0.22587107518E+02 -0.62641096957E+02  0.13830349000E+03  0.15349898957E+03  0.00000000000E+00 0. -1.
         22    1    3    3    0    0 -0.17729188099E+02  0.13617627827E+02 -0.19955975071E+02  0.29966728872E+02  0.00000000000E+00 0. -1.
</event>
<event>
 7    1  0.5736319E-006  0.1685089E+03  0.7818608E-02  0.1266474E+00
          2   -1    0    0  502    0  0.00000000000E+00  0.00000000000E+00  0.13472126494E+04  0.13472126494E+04  0.00000000000E+00 0. -1.
          1   -1    0    0  501    0 -0.00000000000E+00 -0.00000000000E+00 -0.99115878059E+02  0.99115878059E+02  0.00000000000E+00 0. -1.
         25    2    1    2    0    0  0.21331879514E+03 -0.35102776212E+02  0.51323362143E+03  0.57076319446E+03  0.12499904290E+03 0.  0.
          2    1    1    2  501    0 -0.57046405577E+02  0.36605087285E+02 -0.44241326246E+02  0.80941458799E+02  0.00000000000E+00 0. -1.
          1    1    1    2  502    0 -0.15627238957E+03 -0.15023110736E+01  0.77910447617E+03  0.79462387421E+03  0.00000000000E+00 0. -1.
         22    1    3    3    0    0  0.32772991310E+02 -0.58912673030E+02  0.12871642909E+03  0.14530206854E+03  0.00000000000E+00 0. -1.
         22    1    3    3    0    0  0.18054580383E+03  0.23809896819E+02  0.38451719234E+03  0.42546112592E+03  0.00000000000E+00 0. -1.
</event>
<event>
 7    1  0.5736319E-006  0.1056892E+03  0.7818608E-02  0.1436971E+00
          2   -1    0    0  502    0  0.00000000000E+00  0.00000000000E+00  0.37477803843E+03  0.37477803843E+03  0.00000000000E+00 0. -1.
          1   -1    0    0  501    0 -0.00000000000E+00 -0.00000000000E+00 -0.47869941829E+03  0.47869941829E+03  0.00000000000E+00 0. -1.
         25    2    1    2    0    0 -0.62022830474E+02  0.83586409232E+02  0.63892638841E+02  0.17474845526E+03  0.12498493513E+03 0.  0.
          2    1    1    2  501    0  0.20568907174E+02  0.14521815774E+02 -0.41176892051E+03  0.41253800670E+03  0.00000000000E+00 0. -1.
          1    1    1    2  502    0  0.41453923300E+02 -0.98108225006E+02  0.24395490182E+03  0.26619099476E+03  0.00000000000E+00 0. -1.
         22    1    3    3    0    0  0.23497932323E+02  0.79914641077E+01  0.54903675556E+02  0.60253048982E+02  0.00000000000E+00 0.  1.
         22    1    3    3    0    0 -0.85520762797E+02  0.75594945125E+02  0.89889632851E+01  0.11449540628E+03  0.00000000000E+00 0.  1.
</event>
<event>
 7    1  0.5736319E-006  0.6537478E+02  0.7818608E-02  0.1478185E+00
          2   -1    0    0  502    0  0.00000000000E+00  0.00000000000E+00  0.15530026384E+03  0.15530026384E+03  0.00000000000E+00 0. -1.
          1   -1    0    0  501    0 -0.00000000000E+00 -0.00000000000E+00 -0.74049861306E+03  0.74049861306E+03  0.00000000000E+00 0. -1.
         25    2    1    2    0    0  0.37427147514E+02  0.53196007042E+02 -0.53520586663E+03  0.55344443107E+03  0.12499924827E+03 0.  0.
          2    1    1    2  501    0  0.20290834425E+02 -0.22288781962E+02 -0.18757848798E+03  0.18998472811E+03  0.00000000000E+00 0. -1.
          1    1    1    2  502    0 -0.57717981938E+02 -0.30907225080E+02  0.13758600538E+03  0.15236971772E+03  0.00000000000E+00 0. -1.
         22    1    3    3    0    0  0.71306968854E+02 -0.37483247747E+01 -0.33613565870E+03  0.34363631182E+03  0.00000000000E+00 0.  1.
         22    1    3    3    0    0 -0.33879821340E+02  0.56944331817E+02 -0.19907020792E+03  0.20980811925E+03  0.00000000000E+00 0.  1.
</event>
<event>
 7    1  0.5736319E-006  0.4112619E+02  0.7818608E-02  0.1522758E+00
          2   -1    0    0  502    0  0.00000000000E+00  0.00000000000E+00  0.43863134185E+03  0.43863134185E+03  0.00000000000E+00 0. -1.
          1   -1    0    0  501    0 -0.00000000000E+00 -0.00000000000E+00 -0.40178702384E+03  0.40178702384E+03  0.00000000000E+00 0. -1.
         25    2    1    2    0    0  0.83813619645E+00 -0.69549041469E+02 -0.12498207057E+02  0.14359204183E+03  0.12499879062E+03 0.  0.
          2    1    1    2  501    0  0.14744004014E+02  0.37899354612E+02 -0.32162473130E+03  0.32418546315E+03  0.00000000000E+00 0. -1.
          1    1    1    2  502    0 -0.15582140211E+02  0.31649686856E+02  0.37096725637E+03  0.37264086071E+03  0.00000000000E+00 0. -1.
         22    1    3    3    0    0  0.44006570869E+02  0.44077998707E+01 -0.33426955702E+02  0.55437968458E+02  0.00000000000E+00 0. -1.
         22    1    3    3    0    0 -0.43168434672E+02 -0.73956841339E+02  0.20928748645E+02  0.88154073376E+02  0.00000000000E+00 0. -1.
</event>
<event>
 7    1  0.5736319E-006  0.6430073E+02  0.7818608E-02  0.1428337E+00
          2   -1    0    0  502    0  0.00000000000E+00  0.00000000000E+00  0.11076160795E+03  0.11076160795E+03  0.00000000000E+00 0. -1.
          1   -1    0    0  501    0 -0.00000000000E+00 -0.00000000000E+00 -0.34668707552E+03  0.34668707552E+03  0.00000000000E+00 0. -1.
         25    2    1    2    0    0  0.88767918040E+02 -0.21361490678E+02 -0.13996199641E+02  0.15542195657E+03  0.12499613763E+03 0.  0.
          2    1    1    2  501    0 -0.31092385352E+02  0.31377770570E+02 -0.23740269270E+03  0.24147740974E+03  0.00000000000E+00 0. -1.
          1    1    1    2  502    0 -0.57675532688E+02 -0.10016279892E+02  0.15473424771E+02  0.60549317155E+02  0.00000000000E+00 0. -1.
         22    1    3    3    0    0  0.11402608169E+03 -0.10579746452E+02  0.14988827020E+02  0.11549261135E+03  0.00000000000E+00 0. -1.
         22    1    3    3    0    0 -0.25258163649E+02 -0.10781744225E+02 -0.28985026661E+02  0.39929345223E+02  0.00000000000E+00 0. -1.
</event>
<event>
 7    1  0.5736319E-006  0.5138895E+02  0.7818608E-02  0.1466772E+00
          2   -1    0    0  502    0  0.00000000000E+00  0.00000000000E+00  0.31416082406E+02  0.31416082406E+02  0.00000000000E+00 0. -1.
          1   -1    0    0  501    0 -0.00000000000E+00 -0.00000000000E+00 -0.84972103414E+03  0.84972103414E+03  0.00000000000E+00 0. -1.
         25    2    1    2    0    0  0.21476829315E+02  0.81956657693E+02 -0.41959153853E+03  0.44593380108E+03  0.12498699052E+03 0.  0.
          2    1    1    2  501    0  0.25057568532E+01 -0.47966798836E+02 -0.38968734424E+03  0.39263636977E+03  0.00000000000E+00 0. -1.
          1    1    1    2  502    0 -0.23982586168E+02 -0.33989858857E+02 -0.90260689539E+01  0.42566945688E+02  0.00000000000E+00 0. -1.
         22    1    3    3    0    0 -0.39296073443E+02  0.48838918218E+02 -0.93433081213E+02  0.11251294141E+03  0.00000000000E+00 0.  1.
         22    1    3    3    0    0  0.60772902758E+02  0.33117739474E+02 -0.32615845732E+03  0.33342085967E+03  0.00000000000E+00 0.  1.
</event>
<event>
 7    1  0.5736319E-006  0.2640705E+02  0.7818608E-02  0.1662594E+00
          2   -1    0    0  502    0  0.00000000000E+00  0.00000000000E+00  0.34271543372E+02  0.34271543372E+02  0.00000000000E+00 0. -1.
          1   -1    0    0  501    0 -0.00000000000E+00 -0.00000000000E+00 -0.62146064171E+03  0.62146064171E+03  0.00000000000E+00 0. -1.
         25    2    1    2    0    0 -0.26178011187E+02 -0.71942506492E+01 -0.14961913182E+03  0.19684519398E+03  0.12500040109E+03 0.  0.
          2    1    1    2  501    0  0.10321367667E+02  0.24483033722E+02 -0.43440319857E+03  0.43521499112E+03  0.00000000000E+00 0. -1.
          1    1    1    2  502    0  0.15856643520E+02 -0.17288783073E+02 -0.31667679492E+01  0.23671999981E+02  0.00000000000E+00 0. -1.
         22    1    3    3    0    0  0.55965907611E+01  0.23444806500E+02  0.13659789329E+02  0.27705064961E+02  0.00000000000E+00 0.  1.
         22    1    3    3    0    0 -0.31774601949E+02 -0.30639057150E+02 -0.16327892115E+03  0.16914012902E+03  0.00000000000E+00 0.  1.
</event>
<event>
 7    1  0.5736319E-006  0.1380896E+03  0.7818608E-02  0.1348821E+00
          2   -1    0    0  502    0  0.00000000000E+00  0.00000000000E+00  0.14017819951E+04  0.14017819951E+04  0.00000000000E+00 0. -1.
          1   -1    0    0  501    0 -0.00000000000E+00 -0.00000000000E+00 -0.49989720821E+03  0.49989720821E+03  0.00000000000E+00 0. -1.
         25    2    1    2    0    0 -0.16624769646E+03 -0.21555895951E+02 -0.12612475619E+03  0.24420406091E+03  0.12500086406E+03 0.  0.
          2    1    1    2  501    0  0.28764200489E+02  0.26397102984E+02 -0.30998156423E+03  0.31243040255E+03  0.00000000000E+00 0. -1.
          1    1    1    2  502    0  0.13748349597E+03 -0.48412070325E+01  0.13379911073E+04  0.13450447399E+04  0.00000000000E+00 0. -1.
         22    1    3    3    0    0  0.13224336946E+02  0.12928455669E+02  0.51380792974E+01  0.19194476094E+02  0.00000000000E+00 0.  1.
         22    1    3    3    0    0 -0.17947203340E+03 -0.34484351620E+02 -0.13126283549E+03  0.22500958482E+03  0.00000000000E+00 0.  1.
</event>
<event>
 7    1  0.5736319E-006  0.7804486E+02  0.7818608E-02  0.1389805E+00
          2   -1    0    0  502    0  0.00000000000E+00  0.00000000000E+00  0.91375755845E+03  0.91375755845E+03  0.00000000000E+00 0. -1.
          1   -1    0    0  501    0 -0.00000000000E+00 -0.00000000000E+00 -0.21089742371E+03  0.21089742371E+03  0.00000000000E+00 0. -1.
         25    2    1    2    0    0 -0.32207238543E+02 -0.11130697276E+03  0.28046457105E+03  0.32819807222E+03  0.12500820210E+03 0.  0.
          2    1    1    2  501    0  0.32952695560E+02  0.36510892270E+02 -0.18144936333E+03  0.18799680011E+03  0.00000000000E+00 0. -1.
          1    1    1    2  502    0 -0.74545701667E+00  0.74796080487E+02  0.60384492702E+03  0.60846010983E+03  0.00000000000E+00 0. -1.
         22    1    3    3    0    0 -0.67890968274E+02 -0.70072600259E+02  0.24349966775E+03  0.26231934941E+03  0.00000000000E+00 0.  1.
         22    1    3    3    0    0  0.35683729731E+02 -0.41234372498E+02  0.36964903303E+02  0.65878722810E+02  0.00000000000E+00 0.  1.
</event>
<event>
 7    1  0.5736319E-006  0.1491021E+03  0.7818608E-02  0.1316354E+00
          2   -1    0    0  502    0  0.00000000000E+00  0.00000000000E+00  0.55736760419E+03  0.55736760419E+03  0.00000000000E+00 0. -1.
          1   -1    0    0  501    0 -0.00000000000E+00 -0.00000000000E+00 -0.84962242679E+03  0.84962242679E+03  0.00000000000E+00 0. -1.
         25    2    1    2    0    0  0.54674749733E+02 -0.12215736623E+03  0.58913601526E+02  0.19237342654E+03  0.12499988965E+03 0.  0.
          2    1    1    2  501    0  0.47422813136E+02  0.77806999691E+01 -0.76850659506E+03  0.77000769422E+03  0.00000000000E+00 0. -1.
          1    1    1    2  502    0 -0.10209756287E+03  0.11437666626E+03  0.41733817094E+03  0.44460891023E+03  0.00000000000E+00 0. -1.
         22    1    3    3    0    0 -0.27253590173E+02 -0.62435058471E+02  0.60300850164E+02  0.90978498746E+02  0.00000000000E+00 0.  1.
         22    1    3    3    0    0  0.81928339907E+02 -0.59722307755E+02 -0.13872486384E+01  0.10139492779E+03  0.00000000000E+00 0.  1.
</event>
<event>
 7    1  0.5736319E-006  0.5995195E+02  0.7818608E-02  0.1416092E+00
          2   -1    0    0  502    0  0.00000000000E+00  0.00000000000E+00  0.46109325625E+03  0.46109325625E+03  0.00000000000E+00 0. -1.
          1   -1    0    0  501    0 -0.00000000000E+00 -0.00000000000E+00 -0.25345861344E+03  0.25345861344E+03  0.00000000000E+00 0. -1.
         25    2    1    2    0    0 -0.22531923337E+01 -0.28830697251E+02  0.62110176161E+02  0.14254280353E+03  0.12499796349E+03 0.  0.
          2    1    1    2  501    0 -0.49006654087E+02  0.37810139817E+02 -0.20679869708E+03  0.21586328991E+03  0.00000000000E+00 0. -1.
          1    1    1    2  502    0  0.51259846421E+02 -0.89794425660E+01  0.35232316373E+03  0.35614577626E+03  0.00000000000E+00 0. -1.
         22    1    3    3    0    0  0.51983972975E+02 -0.20373499071E+02 -0.47502625654E+01  0.56035505754E+02  0.00000000000E+00 0. -1.
         22    1    3    3    0    0 -0.54237165309E+02 -0.84571981808E+01  0.66860438727E+02  0.86507297776E+02  0.00000000000E+00 0. -1.
</event>
<event>
 7    1  0.5736319E-006  0.3874253E+02  0.7818608E-02  0.1584232E+00
          2   -1    0    0  502    0  0.00000000000E+00  0.00000000000E+00  0.29153937591E+04  0.29153937591E+04  0.00000000000E+00 0. -1.
          1   -1    0    0  501    0 -0.00000000000E+00 -0.00000000000E+00 -0.52847518493E+02  0.52847518493E+02  0.00000000000E+00 0. -1.
         25    2    1    2    0    0  0.56436934261E+02  0.10643687013E+02  0.11807436648E+04  0.11887296138E+04  0.12499630856E+03 0.  0.
          2    1    1    2  501    0 -0.33001886547E+02 -0.20108314015E+02 -0.41104907977E+02  0.56418811295E+02  0.00000000000E+00 0. -1.
          1    1    1    2  502    0 -0.23435047714E+02  0.94646270017E+01  0.17229074838E+04  0.17230928525E+04  0.00000000000E+00 0. -1.
         22    1    3    3    0    0  0.62852980117E+02 -0.45915933347E+02  0.79620544805E+03  0.80000117846E+03  0.00000000000E+00 0. -1.
         22    1    3    3    0    0 -0.64160458560E+01  0.56559620360E+02  0.38453821672E+03  0.38872843531E+03  0.00000000000E+00 0. -1.
</event>
<event>
 7    1  0.5736319E-006  0.1125477E+03  0.7818608E-02  0.1312868E+00
          2   -1    0    0  502    0  0.00000000000E+00  0.00000000000E+00  0.34714160323E+04  0.34714160323E+04  0.00000000000E+00 0. -1.
          1   -1    0    0  501    0 -0.00000000000E+00 -0.00000000000E+00 -0.63463863485E+03  0.63463863485E+03  0.00000000000E+00 0. -1.
         25    2    1    2    0    0 -0.12000229006E+03  0.25036151818E+02 -0.17800341751E+03  0.24967651624E+03  0.12500315036E+03 0.  0.
          2    1    1    2  501    0  0.10667202154E+03  0.39293491995E+02 -0.41280054838E+03  0.42816724703E+03  0.00000000000E+00 0. -1.
          1    1    1    2  502    0  0.13330268518E+02 -0.64329643814E+02  0.34275813633E+04  0.34282109039E+04  0.00000000000E+00 0. -1.
         22    1    3    3    0    0  0.14259927563E+02 -0.17969703222E+01 -0.80044840485E+02  0.81324972331E+02  0.00000000000E+00 0. -1.
         22    1    3    3    0    0 -0.13426221762E+03  0.26833122141E+02 -0.97958577030E+02  0.16835154391E+03  0.00000000000E+00 0. -1.
</event>
<event>
 7    1  0.5736319E-006  0.5676419E+02  0.7818608E-02  0.1424724E+00
          2   -1    0    0  502    0  0.00000000000E+00  0.00000000000E+00  0.33520751882E+04  0.33520751882E+04  0.00000000000E+00 0. -1.
          1   -1    0    0  501    0 -0.00000000000E+00 -0.00000000000E+00 -0.56889623824E+01  0.56889623824E+01  0.00000000000E+00 0. -1.
         25    2    1    2    0    0  0.18255969071E+01 -0.12751747377E+02  0.17632827486E+04  0.17677547639E+04  0.12499965547E+03 0.  0.
          2    1    1    2  501    0  0.39902771386E+02 -0.40372540966E+02  0.31265262532E+03  0.31776380748E+03  0.00000000000E+00 0. -1.
          1    1    1    2  502    0 -0.41728368293E+02  0.53124288343E+02  0.12704508519E+04  0.12722455792E+04  0.00000000000E+00 0. -1.
         22    1    3    3    0    0 -0.27395732326E+02 -0.23805381301E+02  0.15591596837E+03  0.16008438874E+03  0.00000000000E+00 0.  1.
         22    1    3    3    0    0  0.29221329234E+02  0.11053633924E+02  0.16073667802E+04  0.16076703751E+04  0.00000000000E+00 0.  1.
</event>
<event>
 7    1  0.5736319E-006  0.6567381E+02  0.7818608E-02  0.1452085E+00
          2   -1    0    0  502    0  0.00000000000E+00  0.00000000000E+00  0.13852728493E+03  0.13852728493E+03  0.00000000000E+00 0. -1.
          1   -1    0    0  501    0 -0.00000000000E+00 -0.00000000000E+00 -0.36601801346E+03  0.36601801346E+03  0.00000000000E+00 0. -1.
         25    2    1    2    0    0  0.35220263993E+02 -0.83330887703E+01 -0.14752041491E+03  0.19671542732E+03  0.12499911666E+03 0.  0.
          2    1    1    2  501    0  0.31710765886E+02  0.17499009338E+02 -0.18194126762E+03  0.18551122032E+03  0.00000000000E+00 0. -1.
          1    1    1    2  502    0 -0.66931029879E+02 -0.91659205681E+01  0.10197095400E+03  0.12231865075E+03  0.00000000000E+00 0. -1.
         22    1    3    3    0    0  0.72045674675E+02  0.27639792993E+02 -0.73612943735E+02  0.10664615737E+03  0.00000000000E+00 0.  1.
         22    1    3    3    0    0 -0.36825410682E+02 -0.35972881763E+02 -0.73907471173E+02  0.90069269950E+02  0.00000000000E+00 0.  1.
</event>
<event>
 7    1  0.5736319E-006  0.8630799E+02  0.7818608E-02  0.1369087E+00
          2   -1    0    0  502    0  0.00000000000E+00  0.00000000000E+00  0.73366381343E+03  0.73366381343E+03  0.00000000000E+00 0. -1.
          1   -1    0    0  501    0 -0.00000000000E+00 -0.00000000000E+00 -0.13045269925E+04  0.13045269925E+04  0.00000000000E+00 0. -1.
         25    2    1    2    0    0 -0.23923232220E+02 -0.27686857403E+02 -0.29492933961E+02  0.13356202871E+03  0.12502039533E+03 0.  0.
          2    1    1    2  501    0 -0.45557321284E+02 -0.26428739586E+02 -0.12195841049E+04  0.12207208267E+04  0.00000000000E+00 0. -1.
          1    1    1    2  502    0  0.69480553504E+02  0.54115596989E+02  0.67821385980E+03  0.68390795052E+03  0.00000000000E+00 0. -1.
         22    1    3    3    0    0  0.22292120963E+02 -0.63138633795E+02  0.26960877714E+01  0.67012645253E+02  0.00000000000E+00 0.  1.
         22    1    3    3    0    0 -0.46215353183E+02  0.35451776391E+02 -0.32189021733E+02  0.66549383462E+02  0.00000000000E+00 0.  1.
</event>
<event>
 7    1  0.5736319E-006  0.1131170E+03  0.7818608E-02  0.1270129E+00
          2   -1    0    0  502    0  0.00000000000E+00  0.00000000000E+00  0.13813222031E+04  0.13813222031E+04  0.00000000000E+00 0. -1.
          1   -1    0    0  501    0 -0.00000000000E+00 -0.00000000000E+00 -0.11827007419E+03  0.11827007419E+03  0.00000000000E+00 0. -1.
         25    2    1    2    0    0  0.73199092919E+02 -0.16679438460E+03  0.12288974336E+03  0.25279348259E+03  0.12499672748E+03 0.  0.
          2    1    1    2  501    0  0.12841824968E+02  0.96607020942E+02 -0.37316407665E+01  0.97528222103E+02  0.00000000000E+00 0. -1.
          1    1    1    2  502    0 -0.86040917887E+02  0.70187363659E+02  0.11438940264E+04  0.11492705726E+04  0.00000000000E+00 0. -1.
         22    1    3    3    0    0 -0.29633924607E+02 -0.44803383893E+02  0.61962876241E+02  0.82005553031E+02  0.00000000000E+00 0.  1.
         22    1    3    3    0    0  0.10283301753E+03 -0.12199100071E+03  0.60926867117E+02  0.17078792956E+03  0.00000000000E+00 0.  1.
</event>
<event>
 7    1  0.5736319E-006  0.8537852E+02  0.7818608E-02  0.1463887E+00
          2   -1    0    0  502    0  0.00000000000E+00  0.00000000000E+00  0.18192621568E+04  0.18192621568E+04  0.00000000000E+00 0. -1.
          1   -1    0    0  501    0 -0.00000000000E+00 -0.00000000000E+00 -0.25804203268E+04  0.25804203268E+04  0.00000000000E+00 0. -1.
         25    2    1    2    0    0 -0.82254691076E+02 -0.31390515445E+02  0.10229263619E+04  0.10342891507E+04  0.12499802671E+03 0.  0.
          2    1    1    2  501    0  0.85168724750E+02  0.59925903979E+01 -0.25738242410E+04  0.25752399590E+04  0.00000000000E+00 0. -1.
          1    1    1    2  502    0 -0.29140336738E+01  0.25397925047E+02  0.78973970907E+03  0.79015337389E+03  0.00000000000E+00 0. -1.
         22    1    3    3    0    0  0.22201450053E+02 -0.23102876902E+02  0.90718891920E+02  0.96211042280E+02  0.00000000000E+00 0.  1.
         22    1    3    3    0    0 -0.10445614113E+03 -0.82876385435E+01  0.93220746999E+03  0.93807810841E+03  0.00000000000E+00 0.  1.
</event>
<event>
 7    1  0.5736319E-006  0.5063921E+02  0.7818608E-02  0.1559154E+00
          2   -1    0    0  502    0  0.00000000000E+00  0.00000000000E+00  0.30097792917E+03  0.30097792917E+03  0.00000000000E+00 0. -1.
          1   -1    0    0  501    0 -0.00000000000E+00 -0.00000000000E+00 -0.59788115557E+03  0.59788115557E+03  0.00000000000E+00 0. -1.
         25    2    1    2    0    0 -0.13243795641E+02  0.71224873708E+02 -0.19975876294E+03  0.24653308199E+03  0.12500646538E+03 0.  0.
          2    1    1    2  501    0  0.82487787692E+01 -0.21055076959E+02 -0.37209984865E+03  0.37278634092E+03  0.00000000000E+00 0. -1.
          1    1    1    2  502    0  0.49950168719E+01 -0.50169796749E+02  0.27495538518E+03  0.27953966183E+03  0.00000000000E+00 0. -1.
         22    1    3    3    0    0  0.50219406511E+02  0.29427100505E+01 -0.56891582991E+02  0.75942745197E+02  0.00000000000E+00 0. -1.
         22    1    3    3    0    0 -0.63463202152E+02  0.68282163658E+02 -0.14286717994E+03  0.17059033679E+03  0.00000000000E+00 0. -1.
</event>
<event>
 7    1  0.5736319E-006  0.9790238E+02  0.7818608E-02  0.1353358E+00
          2   -1    0    0  502    0  0.00000000000E+00  0.00000000000E+00  0.15900872246E+04  0.15900872246E+04  0.00000000000E+00 0. -1.
          1   -1    0    0  501    0 -0.00000000000E+00 -0.00000000000E+00 -0.13773815174E+03  0.13773815174E+03  0.00000000000E+00 0. -1.
         25    2    1    2    0    0 -0.10602185998E+03 -0.38647624332E+02  0.22743307601E+03  0.28299317228E+03  0.12500023132E+03 0.  0.
          2    1    1    2  501    0  0.92290952049E+01  0.52168999807E+02 -0.10167296018E+03  0.11464803344E+03  0.00000000000E+00 0. -1.
          1    1    1    2  502    0  0.96792764773E+02 -0.13521375475E+02  0.13265889571E+04  0.13301841707E+04  0.00000000000E+00 0. -1.
         22    1    3    3    0    0 -0.95969744834E+02 -0.41172670091E+02  0.24288724747E+03  0.26438531667E+03  0.00000000000E+00 0.  1.
         22    1    3    3    0    0 -0.10052115143E+02  0.25250457590E+01 -0.15454171457E+02  0.18607855608E+02  0.00000000000E+00 0.  1.
</event>
<event>
 7    1  0.5736319E-006  0.2483751E+02  0.7818608E-02  0.1679630E+00
          2   -1    0    0  502    0  0.00000000000E+00  0.00000000000E+00  0.16552772941E+04  0.16552772941E+04  0.00000000000E+00 0. -1.
          1   -1    0    0  501    0 -0.00000000000E+00 -0.00000000000E+00 -0.54025415535E+01  0.54025415535E+01  0.00000000000E+00 0. -1.
         25    2    1    2    0    0 -0.54347773361E+01  0.68145295441E+01  0.10392799560E+04  0.10468066897E+04  0.12500177634E+03 0.  0.
          2    1    1    2  501    0  0.12706672882E+02  0.18823182878E+02  0.98450981691E+02  0.10103646641E+03  0.00000000000E+00 0. -1.
          1    1    1    2  502    0 -0.72718955463E+01 -0.25637712422E+02  0.51214381486E+03  0.51283667952E+03  0.00000000000E+00 0. -1.
         22    1    3    3    0    0 -0.91483319085E+00 -0.49545884959E+02  0.77316301708E+03  0.77474943215E+03  0.00000000000E+00 0.  1.
         22    1    3    3    0    0 -0.45199441453E+01  0.56360414503E+02  0.26611693890E+03  0.27205725756E+03  0.00000000000E+00 0.  1.
</event>
<event>
 7    1  0.5736319E-006  0.3687706E+03  0.7818608E-02  0.1254325E+00
          2   -1    0    0  502    0  0.00000000000E+00  0.00000000000E+00  0.88119808081E+03  0.88119808081E+03  0.00000000000E+00 0. -1.
          1   -1    0    0  501    0 -0.00000000000E+00 -0.00000000000E+00 -0.81907586688E+03  0.81907586688E+03  0.00000000000E+00 0. -1.
         25    2    1    2    0    0  0.33167217136E+03  0.21755418515E+03  0.14718727735E+02  0.41614781523E+03  0.12500444168E+03 0.  0.
          2    1    1    2  501    0 -0.30876862641E+02 -0.16261998598E+02 -0.56859663428E+03  0.56966653909E+03  0.00000000000E+00 0. -1.
          1    1    1    2  502    0 -0.30079530872E+03 -0.20129218655E+03  0.61600012048E+03  0.71445959336E+03  0.00000000000E+00 0. -1.
         22    1    3    3    0    0  0.13976203939E+03  0.13417267447E+03 -0.44301285814E+02  0.19874188828E+03  0.00000000000E+00 0. -1.
         22    1    3    3    0    0  0.19191013197E+03  0.83381510679E+02  0.59020013549E+02  0.21740592695E+03  0.00000000000E+00 0. -1.
</event>
<event>
 7    1  0.5736319E-006  0.4973279E+02  0.7818608E-02  0.1468414E+00
          2   -1    0    0  502    0  0.00000000000E+00  0.00000000000E+00  0.11728519720E+04  0.11728519720E+04  0.00000000000E+00 0. -1.
          1   -1    0    0  501    0 -0.00000000000E+00 -0.00000000000E+00 -0.24423662171E+03  0.24423662171E+03  0.00000000000E+00 0. -1.
         25    2    1    2    0    0 -0.10002880415E+02  0.25410016394E+02  0.71277327022E+03  0.72416630188E+03  0.12500148593E+03 0.  0.
          2    1    1    2  501    0 -0.42409326675E+02  0.24525817672E+01 -0.23468656781E+03  0.23850021228E+03  0.00000000000E+00 0. -1.
          1    1    1    2  502    0  0.52412207090E+02 -0.27862598161E+02  0.45052864786E+03  0.45442207954E+03  0.00000000000E+00 0. -1.
         22    1    3    3    0    0  0.72400632256E+01 -0.15859383238E+02  0.62865198495E+03  0.62889367681E+03  0.00000000000E+00 0.  1.
         22    1    3    3    0    0 -0.17242943641E+02  0.41269399632E+02  0.84121285267E+02  0.95272625063E+02  0.00000000000E+00 0.  1.
</event>
<event>
 7    1  0.5736319E-006  0.6053637E+02  0.7818608E-02  0.1440315E+00
          2   -1    0    0  502    0  0.00000000000E+00  0.00000000000E+00  0.25727892103E+03  0.25727892103E+03  0.00000000000E+00 0. -1.
          1   -1    0    0  501    0 -0.00000000000E+00 -0.00000000000E+00 -0.21873286459E+04  0.21873286459E+04  0.00000000000E+00 0. -1.
         25    2    1    2    0    0 -0.17914052313E+02  0.19278417914E+01 -0.44518292347E+03  0.46274966569E+03  0.12499915161E+03 0.  0.
          2    1    1    2  501    0 -0.42714905734E+02  0.36617704356E+01 -0.17293631420E+04  0.17298944617E+04  0.00000000000E+00 0. -1.
          1    1    1    2  502    0  0.60628958046E+02 -0.55896122270E+01  0.24449634058E+03  0.25196343956E+03  0.00000000000E+00 0. -1.
         22    1    3    3    0    0 -0.21037858322E+02 -0.17051620785E+02 -0.12824503936E+02  0.29963597170E+02  0.00000000000E+00 0.  1.
         22    1    3    3    0    0  0.31238060097E+01  0.18979462576E+02 -0.43235841953E+03  0.43278606852E+03  0.00000000000E+00 0.  1.
</event>
<event>
 7    1  0.5736319E-006  0.5792836E+02  0.7818608E-02  0.1503173E+00
          2   -1    0    0  502    0  0.00000000000E+00  0.00000000000E+00  0.29960640326E+03  0.29960640326E+03  0.00000000000E+00 0. -1.
          1   -1    0    0  501    0 -0.00000000000E+00 -0.00000000000E+00 -0.11562121306E+04  0.11562121306E+04  0.00000000000E+00 0. -1.
         25    2    1    2    0    0 -0.36845641515E+02 -0.39048226890E+02 -0.42888293320E+02  0.14264555437E+03  0.12500393256E+03 0.  0.
          2    1    1    2  501    0  0.55453363982E+02  0.17348326089E+02 -0.10618303037E+04  0.10634188421E+04  0.00000000000E+00 0. -1.
          1    1    1    2  502    0 -0.18607722467E+02  0.21699900801E+02  0.24811286966E+03  0.24975413735E+03  0.00000000000E+00 0. -1.
         22    1    3    3    0    0 -0.61119175414E+02  0.99528522795E+01  0.14264460533E+02  0.63545949565E+02  0.00000000000E+00 0.  1.
         22    1    3    3    0    0  0.24273533899E+02 -0.49001079170E+02 -0.57152753852E+02  0.79099604807E+02  0.00000000000E+00 0.  1.
</event>
<event>
 7    1  0.5736319E-006  0.1108158E+03  0.7818608E-02  0.1271834E+00
          2   -1    0    0  502    0  0.00000000000E+00  0.00000000000E+00  0.50105378215E+03  0.50105378215E+03  0.00000000000E+00 0. -1.
          1   -1    0    0  501    0 -0.00000000000E+00 -0.00000000000E+00 -0.96376366366E+03  0.96376366366E+03  0.00000000000E+00 0. -1.
         25    2    1    2    0    0 -0.32729934839E+02  0.12290649684E+03 -0.58236666617E+03  0.60905963372E+03  0.12500179183E+03 0.  0.
          2    1    1    2  501    0  0.93227743585E+02 -0.29738937487E+02 -0.35501811119E+03  0.36825762158E+03  0.00000000000E+00 0. -1.
          1    1    1    2  502    0 -0.60497808746E+02 -0.93167559355E+02  0.47467489586E+03  0.48750019050E+03  0.00000000000E+00 0. -1.
         22    1    3    3    0    0 -0.54228870280E+02  0.69680740415E+00 -0.17369209963E+03  0.18196208777E+03  0.00000000000E+00 0. -1.
         22    1    3    3    0    0  0.21498935441E+02  0.12220968944E+03 -0.40867456655E+03  0.42709754596E+03  0.00000000000E+00 0. -1.
</event>
<event>
 7    1  0.5736319E-006  0.1348968E+03  0.7818608E-02  0.1299856E+00
          2   -1    0    0  502    0  0.00000000000E+00  0.00000000000E+00  0.31582944535E+03  0.31582944535E+03  0.00000000000E+00 0. -1.
          1   -1    0    0  501    0 -0.00000000000E+00 -0.00000000000E+00 -0.17019580327E+04  0.17019580327E+04  0.00000000000E+00 0. -1.
         25    2    1    2    0    0  0.85548322266E+02  0.17079898741E+03 -0.10611766921E+04  0.10854545142E+04  0.12499888423E+03 0.  0.
          2    1    1    2  501    0 -0.82354721140E+01 -0.61171416046E+02 -0.61220051348E+03  0.61530417994E+03  0.00000000000E+00 0. -1.
          1    1    1    2  502    0 -0.77312850152E+02 -0.10962757137E+03  0.28724861817E+03  0.31702878394E+03  0.00000000000E+00 0. -1.
         22    1    3    3    0    0  0.11630330716E+03  0.12660866638E+03 -0.73302966460E+03  0.75292011717E+03  0.00000000000E+00 0. -1.
         22    1    3    3    0    0 -0.30754984895E+02  0.44190321032E+02 -0.32814702747E+03  0.33253439702E+03  0.00000000000E+00 0. -1.
</event>
<event>
 7    1  0.5736319E-006  0.1080227E+03  0.7818608E-02  0.1407138E+00
          2   -1    0    0  502    0  0.00000000000E+00  0.00000000000E+00  0.18210804474E+04  0.18210804474E+04  0.00000000000E+00 0. -1.
          1   -1    0    0  501    0 -0.00000000000E+00 -0.00000000000E+00 -0.67504764408E+02  0.67504764408E+02  0.00000000000E+00 0. -1.
         25    2    1    2    0    0 -0.11347819184E+03  0.30108803484E+02  0.14531490250E+04  0.14632329804E+04  0.12499930386E+03 0.  0.
          2    1    1    2  501    0  0.93489710876E+02 -0.53760996287E+02 -0.14580773354E+02  0.10882632822E+03  0.00000000000E+00 0. -1.
          1    1    1    2  502    0  0.19988480965E+02  0.23652192803E+02  0.31500743126E+03  0.31652590311E+03  0.00000000000E+00 0. -1.
         22    1    3    3    0    0 -0.62669874590E+02  0.65273256216E+02  0.11662628797E+04  0.11697680179E+04  0.00000000000E+00 0. -1.
         22    1    3    3    0    0 -0.50808317252E+02 -0.35164452732E+02  0.28688614534E+03  0.29346496252E+03  0.00000000000E+00 0. -1.
</event>
<event>
 7    1  0.5736319E-006  0.9817709E+02  0.7818608E-02  0.1293679E+00
          2   -1    0    0  502    0  0.00000000000E+00  0.00000000000E+00  0.30778687644E+04  0.30778687644E+04  0.00000000000E+00 0. -1.
          1   -1    0    0  501    0 -0.00000000000E+00 -0.00000000000E+00 -0.50466070212E+03  0.50466070212E+03  0.00000000000E+00 0. -1.
         25    2    1    2    0    0  0.91956200835E+01 -0.91949732475E-01  0.11219748014E+04  0.11289538128E+04  0.12499875375E+03 0.  0.
          2    1    1    2  501    0 -0.94580014827E+02 -0.27735052761E+02 -0.49527995557E+03  0.50499192740E+03  0.00000000000E+00 0. -1.
          1    1    1    2  502    0  0.85384394743E+02  0.27827002493E+02  0.19465132164E+04  0.19485837263E+04  0.00000000000E+00 0. -1.
         22    1    3    3    0    0 -0.12632259021E+02 -0.21508699007E+02  0.44257887122E+02  0.50803136453E+02  0.00000000000E+00 0.  1.
         22    1    3    3    0    0  0.21827879104E+02  0.21416749274E+02  0.10777169143E+04  0.10781506763E+04  0.00000000000E+00 0.  1.
</event>
<event>
 7    1  0.5736319E-006  0.4055400E+02  0.7818608E-02  0.1504411E+00
          2   -1    0    0  502    0  0.00000000000E+00  0.00000000000E+00  0.23411062048E+03  0.23411062048E+03  0.00000000000E+00 0. -1.
          1   -1    0    0  501    0 -0.00000000000E+00 -0.00000000000E+00 -0.68678124236E+03  0.68678124236E+03  0.00000000000E+00 0. -1.
         25    2    1    2    0    0 -0.39596287054E+02  0.28170659448E+01  0.45012438494E+02  0.13866279181E+03  0.12500179360E+03 0.  0.
          2    1    1    2  501    0  0.20956950817E+02  0.34642672130E+02 -0.63622235435E+03  0.63750936675E+03  0.00000000000E+00 0. -1.
          1    1    1    2  502    0  0.18639336237E+02 -0.37459738074E+02  0.13853929397E+03  0.14471970428E+03  0.00000000000E+00 0. -1.
         22    1    3    3    0    0 -0.35591899851E+02 -0.44495503164E+02 -0.18008027363E+02  0.59757193595E+02  0.00000000000E+00 0.  1.
         22    1    3    3    0    0 -0.40043872027E+01  0.47312569109E+02  0.63020465857E+02  0.78905598213E+02  0.00000000000E+00 0.  1.
</event>
<event>
 7    1  0.5736319E-006  0.7089329E+02  0.7818608E-02  0.1410705E+00
          2   -1    0    0  502    0  0.00000000000E+00  0.00000000000E+00  0.37878943338E+03  0.37878943338E+03  0.00000000000E+00 0. -1.
          1   -1    0    0  501    0 -0.00000000000E+00 -0.00000000000E+00 -0.73782994633E+03  0.73782994633E+03  0.00000000000E+00 0. -1.
         25    2    1    2    0    0  0.46116357682E+02 -0.15438969874E+02  0.19300141055E+03  0.23503147360E+03  0.12500067548E+03 0.  0.
          2    1    1    2  501    0 -0.37472953815E+02  0.60506328240E+02 -0.71181059311E+03  0.71535974061E+03  0.00000000000E+00 0. -1.
          1    1    1    2  502    0 -0.86434038667E+01 -0.45067358366E+02  0.15976866960E+03  0.16622816550E+03  0.00000000000E+00 0. -1.
         22    1    3    3    0    0  0.44159213207E+02 -0.45211174946E+02  0.19513970928E+03  0.20511848427E+03  0.00000000000E+00 0. -1.
         22    1    3    3    0    0  0.19571444755E+01  0.29772205073E+02 -0.21382987235E+01  0.29912989333E+02  0.00000000000E+00 0. -1.
</event>
<event>
 7    1  0.5736319E-006  0.3852181E+02  0.7818608E-02  0.1599313E+00
          2   -1    0    0  502    0  0.00000000000E+00  0.00000000000E+00  0.18524056196E+04  0.18524056196E+04  0.00000000000E+00 0. -1.
          1   -1    0    0  501    0 -0.00000000000E+00 -0.00000000000E+00 -0.21120437309E+03  0.21120437309E+03  0.00000000000E+00 0. -1.
         25    2    1    2    0    0  0.44646802842E+02 -0.31725016257E+02  0.20311542035E+02  0.13797351486E+03  0.12499727358E+03 0.  0.
          2    1    1    2  501    0 -0.74272447783E+01  0.21970232990E+02 -0.15128089073E+03  0.15304823750E+03  0.00000000000E+00 0. -1.
          1    1    1    2  502    0 -0.37219558064E+02  0.97547832669E+01  0.17721705952E+04  0.17725882403E+04  0.00000000000E+00 0. -1.
         22    1    3    3    0    0  0.20606189320E+02  0.48436982992E+02  0.10921880732E+02  0.53759127954E+02  0.00000000000E+00 0.  1.
         22    1    3    3    0    0  0.24040613522E+02 -0.80161999249E+02  0.93896613029E+01  0.84214386903E+02  0.00000000000E+00 0.  1.
</event>
<event>
 7    1  0.5736319E-006  0.8531454E+02  0.7818608E-02  0.1328706E+00
          2   -1    0    0  502    0  0.00000000000E+00  0.00000000000E+00  0.13121700985E+04  0.13121700985E+04  0.00000000000E+00 0. -1.
          1   -1    0    0  501    0 -0.00000000000E+00 -0.00000000000E+00 -0.55508071771E+03  0.55508071771E+03  0.00000000000E+00 0. -1.
         25    2    1    2    0    0 -0.20957921477E+02  0.18774796443E+02 -0.24967826531E+03  0.28063574489E+03  0.12500183073E+03 0.  0.
          2    1    1    2  501    0 -0.60864912914E+02 -0.44241398441E+02 -0.28359628557E+03  0.29340874587E+03  0.00000000000E+00 0. -1.
          1    1    1    2  502    0  0.81822834391E+02  0.25466601997E+02  0.12903639317E+04  0.12932063255E+04  0.00000000000E+00 0. -1.
         22    1    3    3    0    0 -0.25452777408E+02  0.16724778459E+02 -0.26386324891E+03  0.26561509034E+03  0.00000000000E+00 0.  1.
         22    1    3    3    0    0  0.44948559310E+01  0.20500179843E+01  0.14184983593E+02  0.15020654550E+02  0.00000000000E+00 0.  1.
</event>
<event>
 7    1  0.5736319E-006  0.9933791E+02  0.7818608E-02  0.1381566E+00
          2   -1    0    0  502    0  0.00000000000E+00  0.00000000000E+00  0.24216473312E+04  0.24216473312E+04  0.00000000000E+00 0. -1.
          1   -1    0    0  501    0 -0.00000000000E+00 -0.00000000000E+00 -0.72641432476E+02  0.72641432476E+02  0.00000000000E+00 0. -1.
         25    2    1    2    0    0  0.51193428587E+02 -0.31181577548E+02  0.13828838172E+03  0.19581130568E+03  0.12500133201E+03 0.  0.
          2    1    1    2  501    0  0.31164056465E+02 -0.27105082085E+02 -0.32769308255E+02  0.52722968938E+02  0.00000000000E+00 0. -1.
          1    1    1    2  502    0 -0.82357485052E+02  0.58286659633E+02  0.22434868253E+04  0.22457544891E+04  0.00000000000E+00 0. -1.
         22    1    3    3    0    0 -0.50373378713E+00  0.40657401081E+01  0.13295126681E+03  0.13301437267E+03  0.00000000000E+00 0. -1.
         22    1    3    3    0    0  0.51697162375E+02 -0.35247317656E+02  0.53371149115E+01  0.62796933007E+02  0.00000000000E+00 0. -1.
</event>
<event>
 7    1  0.5736319E-006  0.7298860E+02  0.7818608E-02  0.1352554E+00
          2   -1    0    0  502    0  0.00000000000E+00  0.00000000000E+00  0.25040296190E+03  0.25040296190E+03  0.00000000000E+00 0. -1.
          1   -1    0    0  501    0 -0.00000000000E+00 -0.00000000000E+00 -0.23667728888E+04  0.23667728888E+04  0.00000000000E+00 0. -1.
         25    2    1    2    0    0  0.35781135259E+02 -0.73865567000E+02 -0.30022008929E+02  0.15252752830E+03  0.12500765673E+03 0.  0.
          2    1    1    2  501    0  0.37870153248E+02  0.60705973181E+02 -0.22675132297E+04  0.22686417986E+04  0.00000000000E+00 0. -1.
          1    1    1    2  502    0 -0.73651288508E+02  0.13159593820E+02  0.18116531170E+03  0.19600652380E+03  0.00000000000E+00 0. -1.
         22    1    3    3    0    0  0.22405247883E+02 -0.76036528856E+02 -0.72817425116E+02  0.10763794059E+03  0.00000000000E+00 0.  1.
         22    1    3    3    0    0  0.13375887376E+02  0.21709618556E+01  0.42795416187E+02  0.44889587713E+02  0.00000000000E+00 0.  1.
</event>
<event>
 7    1  0.5736319E-006  0.6049948E+02  0.7818608E-02  0.1434928E+00
          2   -1    0    0  502    0  0.00000000000E+00  0.00000000000E+00  0.14453479503E+02  0.14453479503E+02  0.00000000000E+00 0. -1.
          1   -1    0    0  501    0 -0.00000000000E+00 -0.00000000000E+00 -0.20612840896E+04  0.20612840896E+04  0.00000000000E+00 0. -1.
         25    2    1    2    0    0 -0.69787200785E+02 -0.64730768176E+02 -0.12313526597E+04  0.12413359708E+04  0.12500117666E+03 0.  0.
          2    1    1    2  501    0  0.29440331471E+02  0.45568643982E+02 -0.76531229196E+03  0.76723277997E+03  0.00000000000E+00 0. -1.
          1    1    1    2  502    0  0.40346869313E+02  0.19162124193E+02 -0.50165658436E+02  0.67168818311E+02  0.00000000000E+00 0. -1.
         22    1    3    3    0    0  0.32791453035E+02 -0.24553364818E+02 -0.50716831878E+03  0.50882005728E+03  0.00000000000E+00 0.  1.
         22    1    3    3    0    0 -0.10257865382E+03 -0.40177403357E+02 -0.72418434088E+03  0.73251591350E+03  0.00000000000E+00 0.  1.
</event>
<event>
 7    1  0.5736319E-006  0.2530599E+03  0.7818608E-02  0.1201471E+00
          2   -1    0    0  502    0  0.00000000000E+00  0.00000000000E+00  0.16036997303E+04  0.16036997303E+04  0.00000000000E+00 0. -1.
          1   -1    0    0  501    0 -0.00000000000E+00 -0.00000000000E+00 -0.21659070440E+03  0.21659070440E+03  0.00000000000E+00 0. -1.
         25    2    1    2    0    0 -0.28722068910E+03  0.73155353926E+02  0.95573513747E+02  0.33557190325E+03  0.12500710246E+03 0.  0.
          2    1    1    2  501    0  0.20400626460E+03 -0.10164134996E+03  0.41596792087E+02  0.23168904404E+03  0.00000000000E+00 0. -1.
          1    1    1    2  502    0  0.83214424500E+02  0.28485996031E+02  0.12499387200E+04  0.12530294874E+04  0.00000000000E+00 0. -1.
         22    1    3    3    0    0 -0.58042923510E+02 -0.18931295335E+02  0.60776424758E+02  0.86146089401E+02  0.00000000000E+00 0. -1.
         22    1    3    3    0    0 -0.22917776559E+03  0.92086649260E+02  0.34797088989E+02  0.24942581385E+03  0.00000000000E+00 0. -1.
</event>
<event>
 7    1  0.5736319E-006  0.9059454E+02  0.7818608E-02  0.1318991E+00
          2   -1    0    0  502    0  0.00000000000E+00  0.00000000000E+00  0.13872865230E+04  0.13872865230E+04  0.00000000000E+00 0. -1.
          1   -1    0    0  501    0 -0.00000000000E+00 -0.00000000000E+00 -0.16482236205E+03  0.16482236205E+03  0.00000000000E+00 0. -1.
         25    2    1    2    0    0  0.40276140270E+02  0.14349894065E+01  0.11597816713E+02  0.13184868745E+03  0.12500136143E+03 0.  0.
          2    1    1    2  501    0 -0.10414402218E+03 -0.44882452811E+02 -0.72482523445E+02  0.13458873701E+03  0.00000000000E+00 0. -1.
          1    1    1    2  502    0  0.63867881908E+02  0.43447463405E+02  0.12833488676E+04  0.12856714606E+04  0.00000000000E+00 0. -1.
         22    1    3    3    0    0  0.56394629325E+02  0.51119373573E+02  0.20579997407E+02  0.78848467737E+02  0.00000000000E+00 0.  1.
         22    1    3    3    0    0 -0.16118489055E+02 -0.49684384167E+02 -0.89821806945E+01  0.53000219712E+02  0.00000000000E+00 0.  1.
</event>
<event>
 7    1  0.5736319E-006  0.7079931E+02  0.7818608E-02  0.1413633E+00
          2   -1    0    0  502    0  0.00000000000E+00  0.00000000000E+00  0.19256992196E+03  0.19256992196E+03  0.00000000000E+00 0. -1.
          1   -1    0    0  501    0 -0.00000000000E+00 -0.00000000000E+00 -0.21546074927E+03  0.21546074927E+03  0.00000000000E+00 0. -1.
         25    2    1    2    0    0 -0.59809790601E+02 -0.34735769457E+02  0.70380057872E+02  0.15929115874E+03  0.12504613538E+03 0.  0.
          2    1    1    2  501    0  0.28969461868E+02 -0.34323600399E+02 -0.14846404193E+03  0.15510935178E+03  0.00000000000E+00 0. -1.
          1    1    1    2  502    0  0.30840328733E+02  0.69059369856E+02  0.55193156748E+02  0.93630160702E+02  0.00000000000E+00 0. -1.
         22    1    3    3    0    0 -0.75006981515E+02 -0.16338472506E+02  0.96895479975E+02  0.12361928247E+03  0.00000000000E+00 0. -1.
         22    1    3    3    0    0  0.15197190914E+02 -0.18397296951E+02 -0.26515422103E+02  0.35671876262E+02  0.00000000000E+00 0. -1.
</event>
<event>
 7    1  0.5736319E-006  0.2897607E+02  0.7818608E-02  0.1672799E+00
          2   -1    0    0  502    0  0.00000000000E+00  0.00000000000E+00  0.24930872449E+04  0.24930872449E+04  0.00000000000E+00 0. -1.
          1   -1    0    0  501    0 -0.00000000000E+00 -0.00000000000E+00 -0.37527645380E+03  0.37527645380E+03  0.00000000000E+00 0. -1.
         25    2    1    2    0    0 -0.46645477201E+02 -0.14807771933E+02  0.16172139060E+04  0.16227754663E+04  0.12499730201E+03 0.  0.
          2    1    1    2  501    0  0.26800544877E+02  0.10997478551E+02 -0.37181526059E+03  0.37294208900E+03  0.00000000000E+00 0. -1.
          1    1    1    2  502    0  0.19844932324E+02  0.38102933820E+01  0.87241214573E+03  0.87264614346E+03  0.00000000000E+00 0. -1.
         22    1    3    3    0    0  0.31169205085E+02  0.79069598621E+01  0.96608834843E+03  0.96662336840E+03  0.00000000000E+00 0.  1.
         22    1    3    3    0    0 -0.77814682286E+02 -0.22714731795E+02  0.65112555756E+03  0.65615209786E+03  0.00000000000E+00 0.  1.
</event>
<event>
 7    1  0.5736319E-006  0.1658225E+03  0.7818608E-02  0.1216030E+00
          2   -1    0    0  502    0  0.00000000000E+00  0.00000000000E+00  0.60137477635E+03  0.60137477635E+03  0.00000000000E+00 0. -1.
          1   -1    0    0  501    0 -0.00000000000E+00 -0.00000000000E+00 -0.16167620626E+04  0.16167620626E+04  0.00000000000E+00 0. -1.
         25    2    1    2    0    0 -0.12933222222E+03 -0.23976624888E+03 -0.24842172613E+03  0.38929818767E+03  0.12500018843E+03 0.  0.
          2    1    1    2  501    0  0.84933091665E+02  0.13382929444E+03 -0.12867692871E+04  0.12964949319E+04  0.00000000000E+00 0. -1.
          1    1    1    2  502    0  0.44399130557E+02  0.10593695445E+03  0.51980372693E+03  0.53234371945E+03  0.00000000000E+00 0. -1.
         22    1    3    3    0    0 -0.10848866854E+03 -0.11677588192E+03 -0.76270362589E+02  0.17670191286E+03  0.00000000000E+00 0.  1.
         22    1    3    3    0    0 -0.20843553679E+02 -0.12299036696E+03 -0.17215136354E+03  0.21259627481E+03  0.00000000000E+00 0.  1.
</event>
<event>
 7    1  0.5736319E-006  0.9603023E+02  0.7818608E-02  0.1319714E+00
          2   -1    0    0  502    0  0.00000000000E+00  0.00000000000E+00  0.31091381862E+03  0.31091381862E+03  0.00000000000E+00 0. -1.
          1   -1    0    0  501    0 -0.00000000000E+00 -0.00000000000E+00 -0.14925342941E+03  0.14925342941E+03  0.00000000000E+00 0. -1.
         25    2    1    2    0    0  0.20585946322E+02  0.89488071998E+02  0.13203116016E+03  0.20368700707E+03  0.12499709349E+03 0.  0.
          2    1    1    2  501    0  0.67507329041E+02 -0.26170647765E+02 -0.76067567780E+02  0.10501627087E+03  0.00000000000E+00 0. -1.
          1    1    1    2  502    0 -0.88093275363E+02 -0.63317424233E+02  0.10569679683E+03  0.15146397009E+03  0.00000000000E+00 0. -1.
         22    1    3    3    0    0 -0.25692017876E+02 -0.11138460230E+02 -0.39794559113E+01  0.28283937989E+02  0.00000000000E+00 0. -1.
         22    1    3    3    0    0  0.46277964198E+02  0.10062653223E+03  0.13601061607E+03  0.17540306908E+03  0.00000000000E+00 0. -1.
</event>
<event>
 7    1  0.5736319E-006  0.9244015E+02  0.7818608E-02  0.1449973E+00
          2   -1    0    0  502    0  0.00000000000E+00  0.00000000000E+00  0.10086645467E+04  0.10086645467E+04  0.00000000000E+00 0. -1.
          1   -1    0    0  501    0 -0.00000000000E+00 -0.00000000000E+00 -0.59832913157E+02  0.59832913157E+02  0.00000000000E+00 0. -1.
         25    2    1    2    0    0  0.35873318109E+02  0.95106217917E+02  0.69819440964E+02  0.17558904247E+03  0.12499867943E+03 0.  0.
          2    1    1    2  501    0 -0.21787135924E+02 -0.73092966350E+02  0.21060433810E+03  0.22398983961E+03  0.00000000000E+00 0. -1.
          1    1    1    2  502    0 -0.14086182185E+02 -0.22013251567E+02  0.66840785447E+03  0.66891857778E+03  0.00000000000E+00 0. -1.
         22    1    3    3    0    0  0.25643868458E+01  0.76096004955E+02 -0.19317545391E+02  0.78551547470E+02  0.00000000000E+00 0.  1.
         22    1    3    3    0    0  0.33308931263E+02  0.19010212962E+02  0.89136986355E+02  0.97037494997E+02  0.00000000000E+00 0.  1.
</event>
<event>
 7    1  0.5736319E-006  0.9885774E+02  0.7818608E-02  0.1470061E+00
          2   -1    0    0  502    0  0.00000000000E+00  0.00000000000E+00  0.97798004181E+03  0.97798004181E+03  0.00000000000E+00 0. -1.
          1   -1    0    0  501    0 -0.00000000000E+00 -0.00000000000E+00 -0.28167047980E+03  0.28167047980E+03  0.00000000000E+00 0. -1.
         25    2    1    2    0    0 -0.11952570626E+03 -0.48457786093E+01  0.52527943631E+03  0.55303889164E+03  0.12499461360E+03 0.  0.
          2    1    1    2  501    0  0.98442631001E+02  0.36016731631E+01 -0.25846324785E+03  0.27659930249E+03  0.00000000000E+00 0. -1.
          1    1    1    2  502    0  0.21083075257E+02  0.12441054461E+01  0.42949337355E+03  0.43001232748E+03  0.00000000000E+00 0. -1.
         22    1    3    3    0    0 -0.37771614178E+02  0.37435308907E+01  0.23656963901E+02  0.44725393259E+02  0.00000000000E+00 0. -1.
         22    1    3    3    0    0 -0.81754092079E+02 -0.85893095000E+01  0.50162247241E+03  0.50831349838E+03  0.00000000000E+00 0. -1.
</event>
<event>
 7    1  0.5736319E-006  0.7679009E+02  0.7818608E-02  0.1442441E+00
          2   -1    0    0  502    0  0.00000000000E+00  0.00000000000E+00  0.22104157873E+03  0.22104157873E+03  0.00000000000E+00 0. -1.
          1   -1    0    0  501    0 -0.00000000000E+00 -0.00000000000E+00 -0.13528626877E+04  0.13528626877E+04  0.00000000000E+00 0. -1.
         25    2    1    2    0    0  0.88666058398E+02  0.36673081126E+01 -0.22252059674E+03  0.27021876733E+03  0.12501058829E+03 0.  0.
          2    1    1    2  501    0 -0.72173462918E+02  0.25221971808E+02 -0.11037582581E+04  0.11064029324E+04  0.00000000000E+00 0. -1.
          1    1    1    2  502    0 -0.16492595480E+02 -0.28889279921E+02  0.19445774583E+03  0.19728256668E+03  0.00000000000E+00 0. -1.
         22    1    3    3    0    0  0.15266662303E+01  0.50336285793E+02 -0.47575960334E+02  0.69278744062E+02  0.00000000000E+00 0.  1.
         22    1    3    3    0    0  0.87139392168E+02 -0.46668977680E+02 -0.17494463641E+03  0.20094002327E+03  0.00000000000E+00 0.  1.
</event>
<event>
 7    1  0.5736319E-006  0.9526642E+02  0.7818608E-02  0.1297941E+00
          2   -1    0    0  502    0  0.00000000000E+00  0.00000000000E+00  0.82209947490E+03  0.82209947490E+03  0.00000000000E+00 0. -1.
          1   -1    0    0  501    0 -0.00000000000E+00 -0.00000000000E+00 -0.86111692551E+03  0.86111692551E+03  0.00000000000E+00 0. -1.
         25    2    1    2    0    0 -0.16741732999E+03  0.71426517402E+02  0.49221083132E+03  0.53947016470E+03  0.12500498535E+03 0.  0.
          2    1    1    2  501    0  0.91408693689E+02 -0.25204889519E+02 -0.82826475560E+03  0.83367460145E+03  0.00000000000E+00 0. -1.
          1    1    1    2  502    0  0.76008636297E+02 -0.46221627884E+02  0.29703647367E+03  0.31007163425E+03  0.00000000000E+00 0. -1.
         22    1    3    3    0    0 -0.72249474680E+02 -0.32528656714E+02  0.15788598561E+03  0.17665243999E+03  0.00000000000E+00 0. -1.
         22    1    3    3    0    0 -0.95167855306E+02  0.10395517412E+03  0.33432484571E+03  0.36281772472E+03  0.00000000000E+00 0. -1.
</event>
<event>
 7    1  0.5736319E-006  0.6176948E+02  0.7818608E-02  0.1396272E+00
          2   -1    0    0  502    0  0.00000000000E+00  0.00000000000E+00  0.22804965649E+04  0.22804965649E+04  0.00000000000E+00 0. -1.
          1   -1    0    0  501    0 -0.00000000000E+00 -0.00000000000E+00 -0.82563303396E+03  0.82563303396E+03  0.00000000000E+00 0. -1.
         25    2    1    2    0    0  0.49566681282E+02 -0.75125379264E+02  0.30029090541E+03  0.33749082487E+03  0.12499900198E+03 0.  0.
          2    1    1    2  501    0 -0.59376420303E+02  0.16937702241E+02 -0.80540737635E+03  0.80777068957E+03  0.00000000000E+00 0. -1.
          1    1    1    2  502    0  0.98097390210E+01  0.58187677023E+02  0.19599800019E+04  0.19608680845E+04  0.00000000000E+00 0. -1.
         22    1    3    3    0    0 -0.35776359587E+02 -0.30349700855E+02  0.46666997230E+02  0.66172961833E+02  0.00000000000E+00 0.  1.
         22    1    3    3    0    0  0.85343040869E+02 -0.44775678409E+02  0.25362390818E+03  0.27131786304E+03  0.00000000000E+00 0.  1.
</event>
<event>
 7    1  0.5736319E-006  0.1596938E+03  0.7818608E-02  0.1356884E+00
          2   -1    0    0  502    0  0.00000000000E+00  0.00000000000E+00  0.95516306595E+03  0.95516306595E+03  0.00000000000E+00 0. -1.
          1   -1    0    0  501    0 -0.00000000000E+00 -0.00000000000E+00 -0.31500997292E+03  0.31500997292E+03  0.00000000000E+00 0. -1.
         25    2    1    2    0    0  0.12907831017E+03  0.76179590920E+02 -0.55581975462E+02  0.20292569390E+03  0.12499976407E+03 0.  0.
          2    1    1    2  501    0 -0.90361619685E+01  0.30201462224E+02 -0.17705588617E+03  0.17984039416E+03  0.00000000000E+00 0. -1.
          1    1    1    2  502    0 -0.12004214821E+03 -0.10638105314E+03  0.87279095466E+03  0.88740695082E+03  0.00000000000E+00 0. -1.
         22    1    3    3    0    0 -0.19811697964E+02 -0.67940282714E+01 -0.19673927422E+02  0.28735441820E+02  0.00000000000E+00 0. -1.
         22    1    3    3    0    0  0.14889000814E+03  0.82973619191E+02 -0.35908048040E+02  0.17419025208E+03  0.00000000000E+00 0. -1.
</event>
<event>
 7    1  0.5736319E-006  0.8494942E+02  0.7818608E-02  0.1355253E+00
          2   -1    0    0  502    0  0.00000000000E+00  0.00000000000E+00  0.16818883834E+03  0.16818883834E+03  0.00000000000E+00 0. -1.
          1   -1    0    0  501    0 -0.00000000000E+00 -0.00000000000E+00 -0.68906151801E+03  0.68906151801E+03  0.00000000000E+00 0. -1.
         25    2    1    2    0    0  0.14467276136E+01 -0.37227039120E+02 -0.11878014375E+03  0.17641439113E+03  0.12500147754E+03 0.  0.
          2    1    1    2  501    0 -0.41467189753E+02  0.82043233046E+02 -0.53084926075E+03  0.53874999541E+03  0.00000000000E+00 0. -1.
          1    1    1    2  502    0  0.40020462139E+02 -0.44816193926E+02  0.12875672483E+03  0.14208596981E+03  0.00000000000E+00 0. -1.
         22    1    3    3    0    0 -0.25645018247E+01 -0.39635935617E+02  0.15070635589E+02  0.42481856350E+02  0.00000000000E+00 0.  1.
         22    1    3    3    0    0  0.40112294384E+01  0.24088964970E+01 -0.13385077934E+03  0.13393253478E+03  0.00000000000E+00 0.  1.
</event>
<event>
 7    1  0.5736319E-006  0.3042439E+03  0.7818608E-02  0.1298472E+00
          2   -1    0    0  502    0  0.00000000000E+00  0.00000000000E+00  0.15675686975E+04  0.15675686975E+04  0.00000000000E+00 0. -1.
          1   -1    0    0  501    0 -0.00000000000E+00 -0.00000000000E+00 -0.22786242404E+03  0.22786242404E+03  0.00000000000E+00 0. -1.
         25    2    1    2    0    0 -0.28129663373E+03  0.69363930089E+02  0.18343344735E+03  0.36498225235E+03  0.12500025590E+03 0.  0.
          2    1    1    2  501    0  0.30107232725E+03 -0.88787231759E+02  0.42990551949E+02  0.31682156858E+03  0.00000000000E+00 0. -1.
          1    1    1    2  502    0 -0.19775693515E+02  0.19423301671E+02  0.11132822742E+04  0.11136273007E+04  0.00000000000E+00 0. -1.
         22    1    3    3    0    0 -0.44765713169E+02 -0.59506085595E+01  0.88237771089E+02  0.99122565869E+02  0.00000000000E+00 0.  1.
         22    1    3    3    0    0 -0.23653092056E+03  0.75314538648E+02  0.95195676261E+02  0.26585968648E+03  0.00000000000E+00 0.  1.
</event>
<event>
 7    1  0.5736319E-006  0.5821234E+02  0.7818608E-02  0.1429483E+00
          2   -1    0    0  502    0  0.00000000000E+00  0.00000000000E+00  0.16014064820E+04  0.16014064820E+04  0.00000000000E+00 0. -1.
          1   -1    0    0  501    0 -0.00000000000E+00 -0.00000000000E+00 -0.16747649627E+03  0.16747649627E+03  0.00000000000E+00 0. -1.
         25    2    1    2    0    0 -0.38146953760E+02 -0.89885575533E+01  0.85171210830E+03  0.86172758659E+03  0.12499973523E+03 0.  0.
          2    1    1    2  501    0  0.43429906143E+02 -0.39093062198E+02 -0.15639798818E+03  0.16695734475E+03  0.00000000000E+00 0. -1.
          1    1    1    2  502    0 -0.52829523825E+01  0.48081619751E+02  0.73861586561E+03  0.74019804692E+03  0.00000000000E+00 0. -1.
         22    1    3    3    0    0 -0.49836544072E+02  0.44405978341E+02  0.30115102389E+03  0.30845990214E+03  0.00000000000E+00 0. -1.
         22    1    3    3    0    0  0.11689590312E+02 -0.53394535894E+02  0.55056108441E+03  0.55326768445E+03  0.00000000000E+00 0. -1.
</event>
<event>
 7    1  0.5736319E-006  0.1159016E+03  0.7818608E-02  0.1289510E+00
          2   -1    0    0  502    0  0.00000000000E+00  0.00000000000E+00  0.24483916805E+03  0.24483916805E+03  0.00000000000E+00 0. -1.
          1   -1    0    0  501    0 -0.00000000000E+00 -0.00000000000E+00 -0.33317997872E+03  0.33317997872E+03  0.00000000000E+00 0. -1.
         25    2    1    2    0    0 -0.93244612230E+02  0.17748440358E+02 -0.53096685266E+02  0.16572280798E+03  0.12504089833E+03 0.  0.
          2    1    1    2  501    0  0.85121747214E+02 -0.96421847178E+02 -0.19525207331E+03  0.23380816195E+03  0.00000000000E+00 0. -1.
          1    1    1    2  502    0  0.81228650156E+01  0.78673406820E+02  0.16000794791E+03  0.17848817683E+03  0.00000000000E+00 0. -1.
         22    1    3    3    0    0 -0.89515100790E+02 -0.38761343531E+02 -0.18283465510E+02  0.99245554726E+02  0.00000000000E+00 0.  1.
         22    1    3    3    0    0 -0.37295114397E+01  0.56509783889E+02 -0.34813219756E+02  0.66477253257E+02  0.00000000000E+00 0.  1.
</event>
<event>
 7    1  0.5736319E-006  0.1535239E+03  0.7818608E-02  0.1290035E+00
          2   -1    0    0  502    0  0.00000000000E+00  0.00000000000E+00  0.25246783929E+04  0.25246783929E+04  0.00000000000E+00 0. -1.
          1   -1    0    0  501    0 -0.00000000000E+00 -0.00000000000E+00 -0.31083247577E+03  0.31083247577E+03  0.00000000000E+00 0. -1.
         25    2    1    2    0    0  0.83906143007E+01  0.10969638519E+03  0.76269507814E+03  0.78066192686E+03  0.12500225000E+03 0.  0.
          2    1    1    2  501    0 -0.56974668703E+02 -0.14390054694E+03 -0.28146732543E+03  0.32121229050E+03  0.00000000000E+00 0. -1.
          1    1    1    2  502    0  0.48584054403E+02  0.34204161753E+02  0.17326181644E+04  0.17336366513E+04  0.00000000000E+00 0. -1.
         22    1    3    3    0    0  0.61446410505E+02  0.90134245495E+02  0.46283832359E+03  0.47551988114E+03  0.00000000000E+00 0. -1.
         22    1    3    3    0    0 -0.53055796204E+02  0.19562139691E+02  0.29985675455E+03  0.30514204573E+03  0.00000000000E+00 0. -1.
</event>
<event>
 7    1  0.5736319E-006  0.1044724E+03  0.7818608E-02  0.1420638E+00
          2   -1    0    0  502    0  0.00000000000E+00  0.00000000000E+00  0.58576206648E+03  0.58576206648E+03  0.00000000000E+00 0. -1.
          1   -1    0    0  501    0 -0.00000000000E+00 -0.00000000000E+00 -0.17993535631E+03  0.17993535631E+03  0.00000000000E+00 0. -1.
         25    2    1    2    0    0  0.65139521556E+02  0.52105158333E+02  0.33465541923E+03  0.36684189035E+03  0.12498247118E+03 0.  0.
          2    1    1    2  501    0 -0.93753894634E+02 -0.48541920154E+02 -0.14578118275E+03  0.17999517776E+03  0.00000000000E+00 0. -1.
          1    1    1    2  502    0  0.28614373078E+02 -0.35632381790E+01  0.21695247369E+03  0.21886035469E+03  0.00000000000E+00 0. -1.
         22    1    3    3    0    0 -0.34214733258E+02  0.15009587857E+02  0.45639112024E+02  0.58981897611E+02  0.00000000000E+00 0. -1.
         22    1    3    3    0    0  0.99354254813E+02  0.37095570477E+02  0.28901630720E+03  0.30785999274E+03  0.00000000000E+00 0. -1.
</event>
<event>
 7    1  0.5736319E-006  0.5926482E+02  0.7818608E-02  0.1531506E+00
          2   -1    0    0  502    0  0.00000000000E+00  0.00000000000E+00  0.97866488000E+03  0.97866488000E+03  0.00000000000E+00 0. -1.
          1   -1    0    0  501    0 -0.00000000000E+00 -0.00000000000E+00 -0.36688201116E+03  0.36688201116E+03  0.00000000000E+00 0. -1.
         25    2    1    2    0    0 -0.30863502566E+02 -0.32036920083E+02  0.24047053101E+03  0.27464402197E+03  0.12499736989E+03 0.  0.
          2    1    1    2  501    0  0.48137662442E+01 -0.22595576463E+02 -0.34814171478E+03  0.34890741751E+03  0.00000000000E+00 0. -1.
          1    1    1    2  502    0  0.26049736322E+02  0.54632496546E+02  0.71945405260E+03  0.72199545168E+03  0.00000000000E+00 0. -1.
         22    1    3    3    0    0 -0.33676980968E+01 -0.55008442750E+02  0.33284119904E+02  0.64382472785E+02  0.00000000000E+00 0.  1.
         22    1    3    3    0    0 -0.27495804469E+02  0.22971522667E+02  0.20718641111E+03  0.21026154918E+03  0.00000000000E+00 0.  1.
</event>
<event>
 7    1  0.5736319E-006  0.7009031E+02  0.7818608E-02  0.1434149E+00
          2   -1    0    0  502    0  0.00000000000E+00  0.00000000000E+00  0.29355551792E+02  0.29355551792E+02  0.00000000000E+00 0. -1.
          1   -1    0    0  501    0 -0.00000000000E+00 -0.00000000000E+00 -0.87916974065E+03  0.87916974065E+03  0.00000000000E+00 0. -1.
         25    2    1    2    0    0 -0.77688813765E+02  0.18068797723E+02 -0.25844506223E+03  0.29796068864E+03  0.12499875418E+03 0.  0.
          2    1    1    2  501    0  0.67300269697E+02  0.19294844198E+02 -0.54771889187E+03  0.55217533612E+03  0.00000000000E+00 0. -1.
          1    1    1    2  502    0  0.10388544068E+02 -0.37363641921E+02 -0.43650234761E+02  0.58389267680E+02  0.00000000000E+00 0. -1.
         22    1    3    3    0    0 -0.27371657399E+02 -0.22708990985E+02 -0.21955182998E+03  0.22241383039E+03  0.00000000000E+00 0. -1.
         22    1    3    3    0    0 -0.50317156365E+02  0.40777788708E+02 -0.38893232248E+02  0.75546858249E+02  0.00000000000E+00 0. -1.
</event>
<event>
 7    1  0.5736319E-006  0.1004153E+03  0.7818608E-02  0.1388627E+00
          2   -1    0    0  502    0  0.00000000000E+00  0.00000000000E+00  0.88925743021E+03  0.88925743021E+03  0.00000000000E+00 0. -1.
          1   -1    0    0  501    0 -0.00000000000E+00 -0.00000000000E+00 -0.15531780130E+03  0.15531780130E+03  0.00000000000E+00 0. -1.
         25    2    1    2    0    0 -0.83765493490E+01  0.75431848854E+02  0.15157268423E+03  0.21061533482E+03  0.12499764101E+03 0.  0.
          2    1    1    2  501    0  0.41658877568E+02 -0.94962754644E+02 -0.10379122500E+03  0.14671743331E+03  0.00000000000E+00 0. -1.
          1    1    1    2  502    0 -0.33282328219E+02  0.19530905790E+02  0.68615816968E+03  0.68724246338E+03  0.00000000000E+00 0. -1.
         22    1    3    3    0    0 -0.40650101301E+02  0.38127266451E+02  0.15135206924E+03  0.16128722220E+03  0.00000000000E+00 0.  1.
         22    1    3    3    0    0  0.32273551952E+02  0.37304582404E+02  0.22061499399E+00  0.49328112623E+02  0.00000000000E+00 0.  1.
</event>
<event>
 7    1  0.5736319E-006  0.1154886E+03  0.7818608E-02  0.1367473E+00
          2   -1    0    0  502    0  0.00000000000E+00  0.00000000000E+00  0.13998058472E+03  0.13998058472E+03  0.00000000000E+00 0. -1.
          1   -1    0    0  501    0 -0.00000000000E+00 -0.00000000000E+00 -0.89661572501E+03  0.89661572501E+03  0.00000000000E+00 0. -1.
         25    2    1    2    0    0 -0.19078529963E+02 -0.94856059317E+02 -0.64037915430E+02  0.17053649520E+03  0.12498071566E+03 0.  0.
          2    1    1    2  501    0 -0.14393128095E+02  0.11655754297E+03 -0.77004122450E+03  0.77894564021E+03  0.00000000000E+00 0. -1.
          1    1    1    2  502    0  0.33471658059E+02 -0.21701483655E+02  0.77443999645E+02  0.87114174318E+02  0.00000000000E+00 0. -1.
         22    1    3    3    0    0  0.17096879256E+02 -0.86671641123E+02  0.88202307433E+01  0.88781040350E+02  0.00000000000E+00 0. -1.
         22    1    3    3    0    0 -0.36175409219E+02 -0.81844181937E+01 -0.72858146174E+02  0.81755454847E+02  0.00000000000E+00 0. -1.
</event>
<event>
 7    1  0.5736319E-006  0.1893200E+03  0.7818608E-02  0.1284323E+00
          2   -1    0    0  502    0  0.00000000000E+00  0.00000000000E+00  0.70751195286E+03  0.70751195286E+03  0.00000000000E+00 0. -1.
          1   -1    0    0  501    0 -0.00000000000E+00 -0.00000000000E+00 -0.10141399696E+04  0.10141399696E+04  0.00000000000E+00 0. -1.
         25    2    1    2    0    0  0.16661238478E+03 -0.72477283692E+02  0.16192327653E+03  0.27360299782E+03  0.12500723788E+03 0.  0.
          2    1    1    2  501    0 -0.14753491769E+03  0.11960420727E+03 -0.94753115043E+03  0.96637828999E+03  0.00000000000E+00 0. -1.
          1    1    1    2  502    0 -0.19077467082E+02 -0.47126923579E+02  0.47897985717E+03  0.48167063462E+03  0.00000000000E+00 0. -1.
         22    1    3    3    0    0  0.12806334713E+03  0.37910750320E+01  0.62658975610E+02  0.14262096744E+03  0.00000000000E+00 0. -1.
         22    1    3    3    0    0  0.38549037644E+02 -0.76268358724E+02  0.99264300924E+02  0.13098203038E+03  0.00000000000E+00 0. -1.
</event>
<event>
 7    1  0.5736319E-006  0.2836330E+02  0.7818608E-02  0.1629732E+00
          2   -1    0    0  502    0  0.00000000000E+00  0.00000000000E+00  0.15930100382E+04  0.15930100382E+04  0.00000000000E+00 0. -1.
          1   -1    0    0  501    0 -0.00000000000E+00 -0.00000000000E+00 -0.12984993861E+02  0.12984993861E+02  0.00000000000E+00 0. -1.
         25    2    1    2    0    0 -0.13078541554E+02  0.39299975950E+02  0.63292116657E+03  0.64647470980E+03  0.12499924385E+03 0.  0.
          2    1    1    2  501    0 -0.98377925064E+01 -0.26357785819E+02  0.26849642702E+02  0.38889823192E+02  0.00000000000E+00 0. -1.
          1    1    1    2  502    0  0.22916334060E+02 -0.12942190131E+02  0.92025423508E+03  0.92063049908E+03  0.00000000000E+00 0. -1.
         22    1    3    3    0    0  0.14153934589E+02 -0.42852307855E+02  0.21420900566E+03  0.21891128856E+03  0.00000000000E+00 0.  1.
         22    1    3    3    0    0 -0.27232476143E+02  0.82152283805E+02  0.41871216091E+03  0.42756342124E+03  0.00000000000E+00 0.  1.
</event>
<event>
 7    1  0.5736319E-006  0.5305681E+02  0.7818608E-02  0.1523040E+00
          2   -1    0    0  502    0  0.00000000000E+00  0.00000000000E+00  0.50551231709E+03  0.50551231709E+03  0.00000000000E+00 0. -1.
          1   -1    0    0  501    0 -0.00000000000E+00 -0.00000000000E+00 -0.14904847711E+04  0.14904847711E+04  0.00000000000E+00 0. -1.
         25    2    1    2    0    0 -0.31625510343E+02  0.50965517107E+02  0.10272320580E+03  0.17255130053E+03  0.12499694983E+03 0.  0.
          2    1    1    2  501    0  0.45422919075E+02 -0.27416079392E+02 -0.14545801734E+04  0.14555474447E+04  0.00000000000E+00 0. -1.
          1    1    1    2  502    0 -0.13797408732E+02 -0.23549437715E+02  0.36688451354E+03  0.36789834299E+03  0.00000000000E+00 0. -1.
         22    1    3    3    0    0 -0.21501010296E+02 -0.24437826509E+02 -0.12171203637E+02  0.34751100791E+02  0.00000000000E+00 0. -1.
         22    1    3    3    0    0 -0.10124500047E+02  0.75403343616E+02  0.11489440943E+03  0.13780019974E+03  0.00000000000E+00 0. -1.
</event>
<event>
 7    1  0.5736319E-006  0.6222966E+02  0.7818608E-02  0.1388938E+00
          2   -1    0    0  502    0  0.00000000000E+00  0.00000000000E+00  0.60111105920E+03  0.60111105920E+03  0.00000000000E+00 0. -1.
          1   -1    0    0  501    0 -0.00000000000E+00 -0.00000000000E+00 -0.57210171098E+03  0.57210171098E+03  0.00000000000E+00 0. -1.
         25    2    1    2    0    0  0.62046497441E+02  0.27903306614E+02 -0.16662916278E+03  0.21913345020E+03  0.12500331494E+03 0.  0.
          2    1    1    2  501    0 -0.10958034773E+02 -0.63434984293E+02 -0.37478398798E+03  0.38027241999E+03  0.00000000000E+00 0. -1.
          1    1    1    2  502    0 -0.51088462667E+02  0.35531677678E+02  0.57042249897E+03  0.57380689999E+03  0.00000000000E+00 0. -1.
         22    1    3    3    0    0 -0.88058428464E+01 -0.41211301700E+01 -0.13474684101E+03  0.13509714188E+03  0.00000000000E+00 0. -1.
         22    1    3    3    0    0  0.70852340287E+02  0.32024436784E+02 -0.31882321768E+02  0.84036308325E+02  0.00000000000E+00 0. -1.
</event>
<event>
 7    1  0.5736319E-006  0.5395614E+02  0.7818608E-02  0.1470646E+00
          2   -1    0    0  502    0  0.00000000000E+00  0.00000000000E+00  0.89649053119E+03  0.89649053119E+03  0.00000000000E+00 0. -1.
          1   -1    0    0  501    0 -0.00000000000E+00 -0.00000000000E+00 -0.44562187371E+02  0.44562187371E+02  0.00000000000E+00 0. -1.
         25    2    1    2    0    0 -0.17803915110E+02 -0.32977256569E+00  0.10340176265E+03  0.16319930626E+03  0.12500000361E+03 0.  0.
          2    1    1    2  501    0 -0.34769018647E+02 -0.16611882930E+02  0.13613694072E+02  0.40867737623E+02  0.00000000000E+00 0. -1.
          1    1    1    2  502    0  0.52572933757E+02  0.16941655496E+02  0.73491288709E+03  0.73698567467E+03  0.00000000000E+00 0. -1.
         22    1    3    3    0    0 -0.11954657545E+02 -0.52695627279E+02  0.85670303027E+01  0.54709569360E+02  0.00000000000E+00 0.  1.
         22    1    3    3    0    0 -0.58492575648E+01  0.52365854713E+02  0.94834732349E+02  0.10848973690E+03  0.00000000000E+00 0.  1.
</event>
<event>
 7    1  0.5736319E-006  0.5301585E+02  0.7818608E-02  0.1451953E+00
          2   -1    0    0  502    0  0.00000000000E+00  0.00000000000E+00  0.16773436525E+03  0.16773436525E+03  0.00000000000E+00 0. -1.
          1   -1    0    0  501    0 -0.00000000000E+00 -0.00000000000E+00 -0.12792282500E+04  0.12792282500E+04  0.00000000000E+00 0. -1.
         25    2    1    2    0    0 -0.90705216736E+01  0.60266212278E+02 -0.14040424810E+03  0.19761766141E+03  0.12500038604E+03 0.  0.
          2    1    1    2  501    0  0.41250374509E+02 -0.17756283588E+02 -0.11046362541E+04  0.11055487926E+04  0.00000000000E+00 0. -1.
          1    1    1    2  502    0 -0.32179852836E+02 -0.42509928690E+02  0.13354661741E+03  0.14379616124E+03  0.00000000000E+00 0. -1.
         22    1    3    3    0    0 -0.16997034209E+02  0.41018161515E+02 -0.16179104808E+03  0.16777285830E+03  0.00000000000E+00 0.  1.
         22    1    3    3    0    0  0.79265125358E+01  0.19248050763E+02  0.21386799976E+02  0.29844803105E+02  0.00000000000E+00 0.  1.
</event>
<event>
 7    1  0.5736319E-006  0.8576965E+02  0.7818608E-02  0.1357830E+00
          2   -1    0    0  502    0  0.00000000000E+00  0.00000000000E+00  0.11068608342E+04  0.11068608342E+04  0.00000000000E+00 0. -1.
          1   -1    0    0  501    0 -0.00000000000E+00 -0.00000000000E+00 -0.37324747299E+03  0.37324747299E+03  0.00000000000E+00 0. -1.
         25    2    1    2    0    0 -0.14191655915E+02  0.35459038546E+02  0.21583156010E+03  0.25232592638E+03  0.12500545700E+03 0.  0.
          2    1    1    2  501    0  0.11924049865E+02  0.56994195385E+02 -0.35013934477E+03  0.35494799905E+03  0.00000000000E+00 0. -1.
          1    1    1    2  502    0  0.22676060500E+01 -0.92453233931E+02  0.86792114589E+03  0.87283438176E+03  0.00000000000E+00 0. -1.
         22    1    3    3    0    0 -0.29376465009E+02 -0.22459496854E+02  0.17731858760E+03  0.18113334095E+03  0.00000000000E+00 0.  1.
         22    1    3    3    0    0  0.15184809095E+02  0.57918535400E+02  0.38512972498E+02  0.71192585434E+02  0.00000000000E+00 0.  1.
</event>
<event>
 7    1  0.5736319E-006  0.7491431E+02  0.7818608E-02  0.1506898E+00
          2   -1    0    0  502    0  0.00000000000E+00  0.00000000000E+00  0.42619459350E+04  0.42619459350E+04  0.00000000000E+00 0. -1.
          1   -1    0    0  501    0 -0.00000000000E+00 -0.00000000000E+00 -0.35485776995E+02  0.35485776995E+02  0.00000000000E+00 0. -1.
         25    2    1    2    0    0  0.75556613206E+02  0.52342666972E+02  0.11103870892E+04  0.11211753070E+04  0.12500409854E+03 0.  0.
          2    1    1    2  501    0 -0.98318200033E+01 -0.19175842882E+02 -0.25746352631E+02  0.33574578309E+02  0.00000000000E+00 0. -1.
          1    1    1    2  502    0 -0.65724793203E+02 -0.33166824091E+02  0.31418194215E+04  0.31426818267E+04  0.00000000000E+00 0. -1.
         22    1    3    3    0    0  0.16142224805E+02 -0.87624870782E+01  0.18860062047E+02  0.26325929079E+02  0.00000000000E+00 0.  1.
         22    1    3    3    0    0  0.59414388401E+02  0.61105154051E+02  0.10915270271E+04  0.10948493779E+04  0.00000000000E+00 0.  1.
</event>
<event>
 7    1  0.5736319E-006  0.3654923E+02  0.7818608E-02  0.1619480E+00
          2   -1    0    0  502    0  0.00000000000E+00  0.00000000000E+00  0.74061979216E+03  0.74061979216E+03  0.00000000000E+00 0. -1.
          1   -1    0    0  501    0 -0.00000000000E+00 -0.00000000000E+00 -0.44037626695E+02  0.44037626695E+02  0.00000000000E+00 0. -1.
         25    2    1    2    0    0 -0.17940387389E+02  0.54940583533E+01  0.42285217930E+03  0.44133962420E+03  0.12499862466E+03 0.  0.
          2    1    1    2  501    0  0.36576918574E+02  0.55865803144E+01 -0.24450649186E+02  0.44349916545E+02  0.00000000000E+00 0. -1.
          1    1    1    2  502    0 -0.18636531185E+02 -0.11080638668E+02  0.29818063535E+03  0.29896787811E+03  0.00000000000E+00 0. -1.
         22    1    3    3    0    0 -0.26775623883E+02  0.52961691729E+00  0.42876888946E+03  0.42960444027E+03  0.00000000000E+00 0.  1.
         22    1    3    3    0    0  0.88352364942E+01  0.49644414360E+01 -0.59167101582E+01  0.11735183926E+02  0.00000000000E+00 0.  1.
</event>
<event>
 7    1  0.5736319E-006  0.1735344E+03  0.7818608E-02  0.1385399E+00
          2   -1    0    0  502    0  0.00000000000E+00  0.00000000000E+00  0.14859660724E+04  0.14859660724E+04  0.00000000000E+00 0. -1.
          1   -1    0    0  501    0 -0.00000000000E+00 -0.00000000000E+00 -0.20496888411E+04  0.20496888411E+04  0.00000000000E+00 0. -1.
         25    2    1    2    0    0  0.13489353670E+02 -0.18722362564E+03  0.26538552887E+01  0.22553629079E+03  0.12499970741E+03 0.  0.
          2    1    1    2  501    0 -0.29259563991E+02  0.17059265577E+03 -0.19342873824E+04  0.19420158738E+04  0.00000000000E+00 0. -1.
          1    1    1    2  502    0  0.15770210321E+02  0.16630969871E+02  0.13679107585E+04  0.13681027490E+04  0.00000000000E+00 0. -1.
         22    1    3    3    0    0 -0.31017031353E+02 -0.16529366285E+03  0.26894297703E+02  0.17031545573E+03  0.00000000000E+00 0. -1.
         22    1    3    3    0    0  0.44506385023E+02 -0.21929962796E+02 -0.24240442415E+02  0.55220835058E+02  0.00000000000E+00 0. -1.
</event>
<event>
 7    1  0.5736319E-006  0.9151498E+02  0.7818608E-02  0.1375649E+00
          2   -1    0    0  502    0  0.00000000000E+00  0.00000000000E+00  0.79745518530E+03  0.79745518530E+03  0.00000000000E+00 0. -1.
          1   -1    0    0  501    0 -0.00000000000E+00 -0.00000000000E+00 -0.30535497640E+02  0.30535497640E+02  0.00000000000E+00 0. -1.
         25    2    1    2    0    0  0.23888907641E+02  0.69942623032E+02  0.43731231662E+03  0.46079086701E+03  0.12499404158E+03 0.  0.
          2    1    1    2  501    0  0.43870059112E+02  0.17015061731E+02  0.62461824785E+02  0.78202135314E+02  0.00000000000E+00 0. -1.
          1    1    1    2  502    0 -0.67758966754E+02 -0.86957684763E+02  0.26714554625E+03  0.28899768061E+03  0.00000000000E+00 0. -1.
         22    1    3    3    0    0  0.19488927730E+02  0.21338750816E+01  0.14450109327E+01  0.19658580404E+02  0.00000000000E+00 0.  1.
         22    1    3    3    0    0  0.43999799112E+01  0.67808747950E+02  0.43586730569E+03  0.44113228661E+03  0.00000000000E+00 0.  1.
</event>
<event>
 7    1  0.5736319E-006  0.5970793E+02  0.7818608E-02  0.1505134E+00
          2   -1    0    0  502    0  0.00000000000E+00  0.00000000000E+00  0.23638199506E+04  0.23638199506E+04  0.00000000000E+00 0. -1.
          1   -1    0    0  501    0 -0.00000000000E+00 -0.00000000000E+00 -0.21775045805E+03  0.21775045805E+03  0.00000000000E+00 0. -1.
         25    2    1    2    0    0 -0.53939393955E+02 -0.11619267443E+02  0.18013464830E+04  0.18065211387E+04  0.12500002847E+03 0.  0.
          2    1    1    2  501    0  0.57689734640E+02 -0.15487063380E+02 -0.21067413065E+03  0.21897840975E+03  0.00000000000E+00 0. -1.
          1    1    1    2  502    0 -0.37503406851E+01  0.27106330824E+02  0.55539714023E+03  0.55607086023E+03  0.00000000000E+00 0. -1.
         22    1    3    3    0    0 -0.45835167899E+02  0.25759873897E+01  0.17744742542E+04  0.17750679922E+04  0.00000000000E+00 0. -1.
         22    1    3    3    0    0 -0.81042260563E+01 -0.14195254833E+02  0.26872228814E+02  0.31453146443E+02  0.00000000000E+00 0. -1.
</event>
<event>
 7    1  0.5736319E-006  0.1137541E+03  0.7818608E-02  0.1305784E+00
          2   -1    0    0  502    0  0.00000000000E+00  0.00000000000E+00  0.12158215747E+04  0.12158215747E+04  0.00000000000E+00 0. -1.
          1   -1    0    0  501    0 -0.00000000000E+00 -0.00000000000E+00 -0.29522830138E+03  0.29522830138E+03  0.00000000000E+00 0. -1.
         25    2    1    2    0    0  0.40812991911E+02 -0.13554511706E+03  0.13875609317E+03  0.23434222271E+03  0.12499937954E+03 0.  0.
          2    1    1    2  501    0 -0.80807228329E+02  0.78925923024E+02 -0.23329996645E+03  0.25920645019E+03  0.00000000000E+00 0. -1.
          1    1    1    2  502    0  0.39994236418E+02  0.56619194040E+02  0.10151371466E+04  0.10175012032E+04  0.00000000000E+00 0. -1.
         22    1    3    3    0    0  0.24818266194E+02 -0.66057065285E+02 -0.81608085665E+01  0.71035772730E+02  0.00000000000E+00 0. -1.
         22    1    3    3    0    0  0.15994725717E+02 -0.69488051779E+02  0.14691690173E+03  0.16330644998E+03  0.00000000000E+00 0. -1.
</event>
<event>
 7    1  0.5736319E-006  0.1411076E+03  0.7818608E-02  0.1261023E+00
          2   -1    0    0  502    0  0.00000000000E+00  0.00000000000E+00  0.23144553438E+04  0.23144553438E+04  0.00000000000E+00 0. -1.
          1   -1    0    0  501    0 -0.00000000000E+00 -0.00000000000E+00 -0.16627183919E+04  0.16627183919E+04  0.00000000000E+00 0. -1.
         25    2    1    2    0    0  0.19732218327E+02 -0.82949814388E+02  0.65278812017E+03  0.67009484151E+03  0.12499893854E+03 0.  0.
          2    1    1    2  501    0  0.39142987951E+02 -0.75867133279E+02 -0.16486187935E+04  0.16508276474E+04  0.00000000000E+00 0. -1.
          1    1    1    2  502    0 -0.58875206278E+02  0.15881694767E+03  0.16475676252E+04  0.16562512467E+04  0.00000000000E+00 0. -1.
         22    1    3    3    0    0 -0.24423571086E+02 -0.80767139035E+01  0.23533919590E+02  0.34865305152E+02  0.00000000000E+00 0.  1.
         22    1    3    3    0    0  0.44155789413E+02 -0.74873100484E+02  0.62925420058E+03  0.63522953636E+03  0.00000000000E+00 0.  1.
</event>
<event>
 7    1  0.5736319E-006  0.1176458E+03  0.7818608E-02  0.1350178E+00
          2   -1    0    0  502    0  0.00000000000E+00  0.00000000000E+00  0.28438551562E+03  0.28438551562E+03  0.00000000000E+00 0. -1.
          1   -1    0    0  501    0 -0.00000000000E+00 -0.00000000000E+00 -0.70197351662E+03  0.70197351662E+03  0.00000000000E+00 0. -1.
         25    2    1    2    0    0 -0.39804552305E+02 -0.66486907601E+02  0.14893742780E+03  0.20931535790E+03  0.12500260152E+03 0.  0.
          2    1    1    2  501    0  0.79419551674E+02  0.88452521994E+02 -0.66135354401E+03  0.67195224831E+03  0.00000000000E+00 0. -1.
          1    1    1    2  502    0 -0.39614999369E+02 -0.21965614392E+02  0.94828115213E+02  0.10509142603E+03  0.00000000000E+00 0. -1.
         22    1    3    3    0    0 -0.21208171545E+02 -0.92481341119E+02  0.14982472011E+03  0.17734156803E+03  0.00000000000E+00 0. -1.
         22    1    3    3    0    0 -0.18596380760E+02  0.25994433517E+02 -0.88729230753E+00  0.31973789874E+02  0.00000000000E+00 0. -1.
</event>
<event>
 7    1  0.5736319E-006  0.8372491E+02  0.7818608E-02  0.1328643E+00
          2   -1    0    0  502    0  0.00000000000E+00  0.00000000000E+00  0.11468804854E+04  0.11468804854E+04  0.00000000000E+00 0. -1.
          1   -1    0    0  501    0 -0.00000000000E+00 -0.00000000000E+00 -0.69429125730E+03  0.69429125730E+03  0.00000000000E+00 0. -1.
         25    2    1    2    0    0  0.71631388685E+02 -0.60294020733E+02 -0.29973006653E+02  0.15902792091E+03  0.12500029488E+03 0.  0.
          2    1    1    2  501    0 -0.72918767669E+02 -0.23837254366E+02 -0.59569199444E+03  0.60061161628E+03  0.00000000000E+00 0. -1.
          1    1    1    2  502    0  0.12873789837E+01  0.84131275099E+02  0.10782542292E+04  0.10815322055E+04  0.00000000000E+00 0. -1.
         22    1    3    3    0    0 -0.85478352467E+01 -0.23221378904E+02  0.39524481948E+02  0.46631347813E+02  0.00000000000E+00 0. -1.
         22    1    3    3    0    0  0.80179223932E+02 -0.37072641829E+02 -0.69497488601E+02  0.11239657310E+03  0.00000000000E+00 0. -1.
</event>
<event>
 7    1  0.5736319E-006  0.3712675E+02  0.7818608E-02  0.1624092E+00
          2   -1    0    0  502    0  0.00000000000E+00  0.00000000000E+00  0.15938373392E+04  0.15938373392E+04  0.00000000000E+00 0. -1.
          1   -1    0    0  501    0 -0.00000000000E+00 -0.00000000000E+00 -0.48893564904E+03  0.48893564904E+03  0.00000000000E+00 0. -1.
         25    2    1    2    0    0  0.19535937989E+02  0.32240291806E+01  0.12599703197E+04  0.12663143044E+04  0.12503864950E+03 0.  0.
          2    1    1    2  501    0 -0.35871638068E+02  0.96134290436E+01 -0.48472634537E+03  0.48614691435E+03  0.00000000000E+00 0. -1.
          1    1    1    2  502    0  0.16335700079E+02 -0.12837458224E+02  0.32965771583E+03  0.33031176945E+03  0.00000000000E+00 0. -1.
         22    1    3    3    0    0 -0.33440370430E+02 -0.44231727796E+02  0.56403979487E+03  0.56675885023E+03  0.00000000000E+00 0. -1.
         22    1    3    3    0    0  0.52976308419E+02  0.47455756977E+02  0.69593052482E+03  0.69955545419E+03  0.00000000000E+00 0. -1.
</event>
<event>
 7    1  0.5736319E-006  0.9025315E+02  0.7818608E-02  0.1344749E+00
          2   -1    0    0  502    0  0.00000000000E+00  0.00000000000E+00  0.93642749914E+03  0.93642749914E+03  0.00000000000E+00 0. -1.
          1   -1    0    0  501    0 -0.00000000000E+00 -0.00000000000E+00 -0.66408455570E+03  0.66408455570E+03  0.00000000000E+00 0. -1.
         25    2    1    2    0    0 -0.53344386468E+02  0.10788947746E+02  0.28510049932E+03  0.31602116359E+03  0.12500022467E+03 0.  0.
          2    1    1    2  501    0  0.78397035093E+02  0.45766191268E+02 -0.64392874114E+03  0.65029598111E+03  0.00000000000E+00 0. -1.
          1    1    1    2  502    0 -0.25052648626E+02 -0.56555139014E+02  0.63117118526E+03  0.63419491015E+03  0.00000000000E+00 0. -1.
         22    1    3    3    0    0  0.33998755532E+02  0.24736815215E+02  0.13912477118E+03  0.14533935242E+03  0.00000000000E+00 0.  1.
         22    1    3    3    0    0 -0.87343142000E+02 -0.13947867469E+02  0.14597572813E+03  0.17068181117E+03  0.00000000000E+00 0.  1.
</event>
<event>
 7    1  0.5736319E-006  0.2099084E+03  0.7818608E-02  0.1206144E+00
          2   -1    0    0  502    0  0.00000000000E+00  0.00000000000E+00  0.18860299753E+04  0.18860299753E+04  0.00000000000E+00 0. -1.
          1   -1    0    0  501    0 -0.00000000000E+00 -0.00000000000E+00 -0.30885101290E+03  0.30885101290E+03  0.00000000000E+00 0. -1.
         25    2    1    2    0    0 -0.11285994424E+02  0.11737643153E+03  0.54452088073E+03  0.57099311565E+03  0.12500219288E+03 0.  0.
          2    1    1    2  501    0  0.48605437418E+02 -0.21103801602E+03 -0.25371322876E+03  0.33357148440E+03  0.00000000000E+00 0. -1.
          1    1    1    2  502    0 -0.37319442994E+02  0.93661584494E+02  0.12863713105E+04  0.12903163882E+04  0.00000000000E+00 0. -1.
         22    1    3    3    0    0  0.35339238309E+02  0.57112577789E+02  0.10311074924E+03  0.12305500768E+03  0.00000000000E+00 0. -1.
         22    1    3    3    0    0 -0.46625232732E+02  0.60263853741E+02  0.44141013149E+03  0.44793810798E+03  0.00000000000E+00 0. -1.
</event>
<event>
 7    1  0.5736319E-006  0.9934692E+02  0.7818608E-02  0.1289607E+00
          2   -1    0    0  502    0  0.00000000000E+00  0.00000000000E+00  0.23719055818E+04  0.23719055818E+04  0.00000000000E+00 0. -1.
          1   -1    0    0  501    0 -0.00000000000E+00 -0.00000000000E+00 -0.87351894033E+02  0.87351894033E+02  0.00000000000E+00 0. -1.
         25    2    1    2    0    0  0.12018751551E+02 -0.24885066589E+02  0.11981717742E+03  0.17533937011E+03  0.12499608706E+03 0.  0.
          2    1    1    2  501    0  0.90708199701E+02  0.16445584496E+02 -0.21982154248E+02  0.94771566663E+02  0.00000000000E+00 0. -1.
          1    1    1    2  502    0 -0.10272695125E+03  0.84394820928E+01  0.21867186646E+04  0.21891465391E+04  0.00000000000E+00 0. -1.
         22    1    3    3    0    0  0.18744402684E+02  0.49171751510E+02  0.38881270059E+02  0.65429098572E+02  0.00000000000E+00 0.  1.
         22    1    3    3    0    0 -0.67256511328E+01 -0.74056818099E+02  0.80935907362E+02  0.10991027154E+03  0.00000000000E+00 0.  1.
</event>
<event>
 7    1  0.5736319E-006  0.1112605E+03  0.7818608E-02  0.1290258E+00
          2   -1    0    0  502    0  0.00000000000E+00  0.00000000000E+00  0.40838083033E+03  0.40838083033E+03  0.00000000000E+00 0. -1.
          1   -1    0    0  501    0 -0.00000000000E+00 -0.00000000000E+00 -0.52492241672E+03  0.52492241672E+03  0.00000000000E+00 0. -1.
         25    2    1    2    0    0  0.11699030729E+03  0.13480526974E+03 -0.67407497198E+02  0.22809521764E+03  0.12499785951E+03 0.  0.
          2    1    1    2  501    0 -0.25815539184E+02 -0.77635702539E+02 -0.36367627343E+03  0.37276557811E+03  0.00000000000E+00 0. -1.
          1    1    1    2  502    0 -0.91174768105E+02 -0.57169567203E+02  0.31454218424E+03  0.33244245129E+03  0.00000000000E+00 0. -1.
         22    1    3    3    0    0  0.31347134414E+02  0.77510459104E+02 -0.89749308860E+02  0.12265990603E+03  0.00000000000E+00 0. -1.
         22    1    3    3    0    0  0.85643172876E+02  0.57294810638E+02  0.22341811662E+02  0.10543531161E+03  0.00000000000E+00 0. -1.
</event>
<event>
 7    1  0.5736319E-006  0.3132490E+02  0.7818608E-02  0.1641818E+00
          2   -1    0    0  502    0  0.00000000000E+00  0.00000000000E+00  0.28905344411E+03  0.28905344411E+03  0.00000000000E+00 0. -1.
          1   -1    0    0  501    0 -0.00000000000E+00 -0.00000000000E+00 -0.33254620384E+02  0.33254620384E+02  0.00000000000E+00 0. -1.
         25    2    1    2    0    0 -0.60599828654E+01 -0.43937760873E+02  0.14977571435E+03  0.20006282429E+03  0.12500047533E+03 0.  0.
          2    1    1    2  501    0  0.11083925400E+02  0.22282190439E+02  0.93446397071E+02  0.96703560113E+02  0.00000000000E+00 0. -1.
          1    1    1    2  502    0 -0.50239425342E+01  0.21655570434E+02  0.12576712311E+02  0.25541680092E+02  0.00000000000E+00 0. -1.
         22    1    3    3    0    0  0.56009287835E+02 -0.95008303166E+01  0.40543215124E+02  0.69792968078E+02  0.00000000000E+00 0. -1.
         22    1    3    3    0    0 -0.62069270700E+02 -0.34436930556E+02  0.10923249922E+03  0.13026985621E+03  0.00000000000E+00 0. -1.
</event>
<event>
 7    1  0.5736319E-006  0.2609130E+03  0.7818608E-02  0.1196584E+00
          2   -1    0    0  502    0  0.00000000000E+00  0.00000000000E+00  0.16127177552E+04  0.16127177552E+04  0.00000000000E+00 0. -1.
          1   -1    0    0  501    0 -0.00000000000E+00 -0.00000000000E+00 -0.11064846021E+04  0.11064846021E+04  0.00000000000E+00 0. -1.
         25    2    1    2    0    0  0.16685370365E+03 -0.12844072836E+03 -0.89507203831E+01  0.24503535734E+03  0.12500012731E+03 0.  0.
          2    1    1    2  501    0 -0.15926841178E+03  0.21808587542E+03 -0.95948090236E+03  0.99676049182E+03  0.00000000000E+00 0. -1.
          1    1    1    2  502    0 -0.75852918752E+01 -0.89645147062E+02  0.14746647758E+04  0.14774065081E+04  0.00000000000E+00 0. -1.
         22    1    3    3    0    0 -0.93332870168E+01 -0.20999685976E+02 -0.29789718531E+02  0.37623455288E+02  0.00000000000E+00 0. -1.
         22    1    3    3    0    0  0.17618699067E+03 -0.10744104238E+03  0.20838998148E+02  0.20741190205E+03  0.00000000000E+00 0. -1.
</event>
<event>
 7    1  0.5736319E-006  0.1136868E+03  0.7818608E-02  0.1286315E+00
          2   -1    0    0  502    0  0.00000000000E+00  0.00000000000E+00  0.59173693591E+03  0.59173693591E+03  0.00000000000E+00 0. -1.
          1   -1    0    0  501    0 -0.00000000000E+00 -0.00000000000E+00 -0.10687962117E+04  0.10687962117E+04  0.00000000000E+00 0. -1.
         25    2    1    2    0    0  0.43096509401E+02  0.46822430396E+02 -0.14600517858E+03  0.20247160411E+03  0.12501035632E+03 0.  0.
          2    1    1    2  501    0 -0.12158512565E+03 -0.19556240959E+02 -0.88721868095E+03  0.89572449847E+03  0.00000000000E+00 0. -1.
          1    1    1    2  502    0  0.78488616252E+02 -0.27266189437E+02  0.55616458376E+03  0.56233704501E+03  0.00000000000E+00 0. -1.
         22    1    3    3    0    0  0.81753766672E+02  0.31388426239E+02 -0.13228361481E+03  0.15864383510E+03  0.00000000000E+00 0. -1.
         22    1    3    3    0    0 -0.38657257271E+02  0.15434004157E+02 -0.13721563765E+02  0.43827769008E+02  0.00000000000E+00 0. -1.
</event>
<event>
 7    1  0.5736319E-006  0.3248279E+02  0.7818608E-02  0.1634449E+00
          2   -1    0    0  502    0  0.00000000000E+00  0.00000000000E+00  0.96651352988E+02  0.96651352988E+02  0.00000000000E+00 0. -1.
          1   -1    0    0  501    0 -0.00000000000E+00 -0.00000000000E+00 -0.55642077448E+03  0.55642077448E+03  0.00000000000E+00 0. -1.
         25    2    1    2    0    0 -0.12664114623E+02 -0.17944848820E+02 -0.58903111990E+02  0.13991785417E+03  0.12500012766E+03 0.  0.
          2    1    1    2  501    0 -0.43770531506E+01  0.32426180014E+02 -0.45417122822E+03  0.45534835049E+03  0.00000000000E+00 0. -1.
          1    1    1    2  502    0  0.17041167773E+02 -0.14481331194E+02  0.53304918719E+02  0.57805922810E+02  0.00000000000E+00 0. -1.
         22    1    3    3    0    0 -0.15534990754E+02  0.52143189337E+02 -0.39192312407E+02  0.67054347240E+02  0.00000000000E+00 0. -1.
         22    1    3    3    0    0  0.28708761310E+01 -0.70088038157E+02 -0.19710799583E+02  0.72863506933E+02  0.00000000000E+00 0. -1.
</event>
<event>
 7    1  0.5828585E-006  0.1247826E+03  0.7818608E-02  0.1402305E+00
          2   -1    0    0  502    0  0.00000000000E+00  0.00000000000E+00  0.78282341651E+03  0.78282341651E+03  0.00000000000E+00 0. -1.
          1   -1    0    0  501    0 -0.00000000000E+00 -0.00000000000E+00 -0.17754216448E+04  0.17754216448E+04  0.00000000000E+00 0. -1.
         25    2    1    2    0    0 -0.10504925825E+02  0.10235118776E+03 -0.41567034542E+03  0.44608769418E+03  0.12500510283E+03 0.  0.
          2    1    1    2  501    0 -0.20556213657E+02  0.18784628287E+02 -0.13393036658E+04  0.13395931208E+04  0.00000000000E+00 0. -1.
          1    1    1    2  502    0  0.31061139481E+02 -0.12113581605E+03  0.76237578291E+03  0.77256424631E+03  0.00000000000E+00 0. -1.
         22    1    3    3    0    0  0.21721497461E+02 -0.21948763548E+02 -0.11651217907E+03  0.12053488933E+03  0.00000000000E+00 0. -1.
         22    1    3    3    0    0 -0.32226423286E+02  0.12429995131E+03 -0.29915816635E+03  0.32555280485E+03  0.00000000000E+00 0. -1.
</event>
<event>
 7    1  0.5736319E-006  0.8284790E+02  0.7818608E-02  0.1376431E+00
          2   -1    0    0  502    0  0.00000000000E+00  0.00000000000E+00  0.19035950254E+03  0.19035950254E+03  0.00000000000E+00 0. -1.
          1   -1    0    0  501    0 -0.00000000000E+00 -0.00000000000E+00 -0.12692553268E+04  0.12692553268E+04  0.00000000000E+00 0. -1.
         25    2    1    2    0    0  0.12839169302E+03 -0.28581314199E+02 -0.90147858476E+02  0.20261694550E+03  0.12500268741E+03 0.  0.
          2    1    1    2  501    0 -0.81238992194E+02  0.75155154602E+01 -0.11163571129E+04  0.11193343828E+04  0.00000000000E+00 0. -1.
          1    1    1    2  502    0 -0.47152700825E+02  0.21065798739E+02  0.12760914719E+03  0.13766350104E+03  0.00000000000E+00 0. -1.
         22    1    3    3    0    0 -0.33540466583E+01  0.16684856033E+02  0.19100568293E+02  0.25582528392E+02  0.00000000000E+00 0.  1.
         22    1    3    3    0    0  0.13174573968E+03 -0.45266170232E+02 -0.10924842677E+03  0.17703441711E+03  0.00000000000E+00 0.  1.
</event>
<event>
 7    1  0.5736319E-006  0.1026695E+03  0.7818608E-02  0.1326642E+00
          2   -1    0    0  502    0  0.00000000000E+00  0.00000000000E+00  0.68379792132E+03  0.68379792132E+03  0.00000000000E+00 0. -1.
          1   -1    0    0  501    0 -0.00000000000E+00 -0.00000000000E+00 -0.23112092948E+03  0.23112092948E+03  0.00000000000E+00 0. -1.
         25    2    1    2    0    0  0.91540445273E+01 -0.13853915299E+03  0.16431809531E+03  0.24880285437E+03  0.12500212180E+03 0.  0.
          2    1    1    2  501    0 -0.44525421007E+02  0.45520089503E+02 -0.17810975198E+03  0.18914987554E+03  0.00000000000E+00 0. -1.
          1    1    1    2  502    0  0.35371376480E+02  0.93019063485E+02  0.46646864851E+03  0.47696612090E+03  0.00000000000E+00 0. -1.
         22    1    3    3    0    0 -0.25573700339E+02 -0.71399678031E+02  0.15510503238E+03  0.17265427664E+03  0.00000000000E+00 0. -1.
         22    1    3    3    0    0  0.34727744866E+02 -0.67139474957E+02  0.92130629224E+01  0.76148577724E+02  0.00000000000E+00 0. -1.
</event>
<event>
 7    1  0.5736319E-006  0.5470999E+02  0.7818608E-02  0.1533678E+00
          2   -1    0    0  502    0  0.00000000000E+00  0.00000000000E+00  0.96555789839E+03  0.96555789839E+03  0.00000000000E+00 0. -1.
          1   -1    0    0  501    0 -0.00000000000E+00 -0.00000000000E+00 -0.78428815746E+03  0.78428815746E+03  0.00000000000E+00 0. -1.
         25    2    1    2    0    0  0.65967051070E+02 -0.36867098577E+02  0.21016738918E+03  0.25594598392E+03  0.12500872138E+03 0.  0.
          2    1    1    2  501    0 -0.41321903226E+02  0.35732383617E+02 -0.76021070179E+03  0.76217098740E+03  0.00000000000E+00 0. -1.
          1    1    1    2  502    0 -0.24645147844E+02  0.11347149601E+01  0.73131305353E+03  0.73172908454E+03  0.00000000000E+00 0. -1.
         22    1    3    3    0    0  0.77943414664E+02 -0.32598813451E+02  0.22264260870E+03  0.23813355441E+03  0.00000000000E+00 0.  1.
         22    1    3    3    0    0 -0.11976363594E+02 -0.42682851266E+01 -0.12475219517E+02  0.17812429504E+02  0.00000000000E+00 0.  1.
</event>
<event>
 7    1  0.5736319E-006  0.8635299E+02  0.7818608E-02  0.1378630E+00
          2   -1    0    0  502    0  0.00000000000E+00  0.00000000000E+00  0.83707944224E+03  0.83707944224E+03  0.00000000000E+00 0. -1.
          1   -1    0    0  501    0 -0.00000000000E+00 -0.00000000000E+00 -0.54913068360E+03  0.54913068360E+03  0.00000000000E+00 0. -1.
         25    2    1    2    0    0 -0.14391359455E+02  0.12268611351E+03  0.37219473288E+02  0.17961824318E+03  0.12497371890E+03 0.  0.
          2    1    1    2  501    0 -0.19612400621E+02 -0.44537225089E+02 -0.47418967200E+03  0.47668024473E+03  0.00000000000E+00 0. -1.
          1    1    1    2  502    0  0.34003760076E+02 -0.78148888423E+02  0.72491895735E+03  0.72991163793E+03  0.00000000000E+00 0. -1.
         22    1    3    3    0    0  0.30733517212E+02 -0.39472542239E+01  0.32786703230E+02  0.45112058308E+02  0.00000000000E+00 0. -1.
         22    1    3    3    0    0 -0.45124876667E+02  0.12663336774E+03  0.44327700573E+01  0.13450618487E+03  0.00000000000E+00 0. -1.
</event>
<event>
 7    1  0.5736319E-006  0.1897348E+03  0.7818608E-02  0.1209459E+00
          2   -1    0    0  502    0  0.00000000000E+00  0.00000000000E+00  0.70398324600E+03  0.70398324600E+03  0.00000000000E+00 0. -1.
          1   -1    0    0  501    0 -0.00000000000E+00 -0.00000000000E+00 -0.23413269785E+03  0.23413269785E+03  0.00000000000E+00 0. -1.
         25    2    1    2    0    0  0.99630667593E+02 -0.16915735487E+03  0.12005081803E+03  0.26185909021E+03  0.12497001076E+03 0.  0.
          2    1    1    2  501    0 -0.10467181057E+03 -0.25142591960E+02 -0.12395917260E+03  0.16417738678E+03  0.00000000000E+00 0. -1.
          1    1    1    2  502    0  0.50411429788E+01  0.19429994683E+03  0.47375890272E+03  0.51207946685E+03  0.00000000000E+00 0. -1.
         22    1    3    3    0    0  0.10455187433E+02 -0.11394933648E+03  0.10611012171E+03  0.15605486265E+03  0.00000000000E+00 0. -1.
         22    1    3    3    0    0  0.89175480160E+02 -0.55208018387E+02  0.13940696319E+02  0.10580422756E+03  0.00000000000E+00 0. -1.
</event>
<event>
 7    1  0.5736319E-006  0.1593452E+03  0.7818608E-02  0.1316973E+00
          2   -1    0    0  502    0  0.00000000000E+00  0.00000000000E+00  0.85432092897E+03  0.85432092897E+03  0.00000000000E+00 0. -1.
          1   -1    0    0  501    0 -0.00000000000E+00 -0.00000000000E+00 -0.30503924737E+03  0.30503924737E+03  0.00000000000E+00 0. -1.
         25    2    1    2    0    0  0.20045382494E+02 -0.14785104195E+03  0.41645487283E+03  0.45969635323E+03  0.12499731239E+03 0.  0.
          2    1    1    2  501    0  0.23400385195E+02  0.15844335127E+03 -0.25941899462E+03  0.30487716930E+03  0.00000000000E+00 0. -1.
          1    1    1    2  502    0 -0.43445767690E+02 -0.10592309317E+02  0.39224580339E+03  0.39478665381E+03  0.00000000000E+00 0. -1.
         22    1    3    3    0    0 -0.73149241665E-01 -0.14873396419E+03  0.24178398224E+03  0.28386844052E+03  0.00000000000E+00 0.  1.
         22    1    3    3    0    0  0.20118531736E+02  0.88292223255E+00  0.17467089058E+03  0.17582791271E+03  0.00000000000E+00 0.  1.
</event>
<event>
 7    1  0.5736319E-006  0.8633971E+02  0.7818608E-02  0.1389249E+00
          2   -1    0    0  502    0  0.00000000000E+00  0.00000000000E+00  0.13087626070E+04  0.13087626070E+04  0.00000000000E+00 0. -1.
          1   -1    0    0  501    0 -0.00000000000E+00 -0.00000000000E+00 -0.34786740912E+03  0.34786740912E+03  0.00000000000E+00 0. -1.
         25    2    1    2    0    0  0.30108618073E+01  0.46222805319E+02  0.15629549301E+03  0.20541860373E+03  0.12499163414E+03 0.  0.
          2    1    1    2  501    0  0.19506812790E+02  0.40171072455E+02 -0.31998611595E+03  0.32308720991E+03  0.00000000000E+00 0. -1.
          1    1    1    2  502    0 -0.22517674597E+02 -0.86393877774E+02  0.11245858208E+04  0.11281242025E+04  0.00000000000E+00 0. -1.
         22    1    3    3    0    0  0.34083628543E+02 -0.31628283727E+02  0.77478909851E+02  0.90360519796E+02  0.00000000000E+00 0. -1.
         22    1    3    3    0    0 -0.31072766736E+02  0.77851089047E+02  0.78816583160E+02  0.11505808394E+03  0.00000000000E+00 0. -1.
</event>
<event>
 7    1  0.5736319E-006  0.6179545E+02  0.7818608E-02  0.1519609E+00
          2   -1    0    0  502    0  0.00000000000E+00  0.00000000000E+00  0.11085714263E+04  0.11085714263E+04  0.00000000000E+00 0. -1.
          1   -1    0    0  501    0 -0.00000000000E+00 -0.00000000000E+00 -0.37340493219E+03  0.37340493219E+03  0.00000000000E+00 0. -1.
         25    2    1    2    0    0 -0.39609873287E+02  0.24561728656E+02 -0.21305977618E+02  0.13509636756E+03  0.12499945307E+03 0.  0.
          2    1    1    2  501    0 -0.21013371379E+02 -0.11546587529E+02 -0.29380105237E+03  0.29477778721E+03  0.00000000000E+00 0. -1.
          1    1    1    2  502    0  0.60623244665E+02 -0.13015141127E+02  0.10502735241E+04  0.10521022037E+04  0.00000000000E+00 0. -1.
         22    1    3    3    0    0 -0.21360253379E+02  0.41116824029E+02 -0.68008679526E+02  0.82292369838E+02  0.00000000000E+00 0. -1.
         22    1    3    3    0    0 -0.18249619907E+02 -0.16555095373E+02  0.46702701907E+02  0.52803997718E+02  0.00000000000E+00 0. -1.
</event>
<event>
 7    1  0.5736319E-006  0.7435492E+02  0.7818608E-02  0.1407163E+00
          2   -1    0    0  502    0  0.00000000000E+00  0.00000000000E+00  0.14494689381E+04  0.14494689381E+04  0.00000000000E+00 0. -1.
          1   -1    0    0  501    0 -0.00000000000E+00 -0.00000000000E+00 -0.22358214827E+03  0.22358214827E+03  0.00000000000E+00 0. -1.
         25    2    1    2    0    0 -0.80924807264E+02  0.61773913820E+02  0.92714086444E+02  0.18599464312E+03  0.12503305397E+03 0.  0.
          2    1    1    2  501    0  0.35991552710E+02 -0.63828490292E+02 -0.16895036716E+03  0.18415671208E+03  0.00000000000E+00 0. -1.
          1    1    1    2  502    0  0.44933254554E+02  0.20545764714E+01  0.13021230705E+04  0.13028997311E+04  0.00000000000E+00 0. -1.
         22    1    3    3    0    0 -0.43028797044E+02  0.79760637757E+02  0.10832526428E+03  0.14123597131E+03  0.00000000000E+00 0.  1.
         22    1    3    3    0    0 -0.37896010220E+02 -0.17986723937E+02 -0.15611177838E+02  0.44758671809E+02  0.00000000000E+00 0.  1.
</event>
<event>
 7    1  0.5736319E-006  0.9994321E+02  0.7818608E-02  0.1440653E+00
          2   -1    0    0  502    0  0.00000000000E+00  0.00000000000E+00  0.13760099972E+04  0.13760099972E+04  0.00000000000E+00 0. -1.
          1   -1    0    0  501    0 -0.00000000000E+00 -0.00000000000E+00 -0.73426802855E+02  0.73426802855E+02  0.00000000000E+00 0. -1.
         25    2    1    2    0    0 -0.85433457757E+01 -0.11481553816E+03  0.50212201177E+03  0.53010420690E+03  0.12501343494E+03 0.  0.
          2    1    1    2  501    0 -0.15653573621E+02  0.20637212425E+02 -0.53717898008E+02  0.59636745973E+02  0.00000000000E+00 0. -1.
          1    1    1    2  502    0  0.24196919397E+02  0.94178325737E+02  0.85417908063E+03  0.85969584723E+03  0.00000000000E+00 0. -1.
         22    1    3    3    0    0 -0.31861427769E+02 -0.12278816458E+03  0.28968684933E+03  0.31624445389E+03  0.00000000000E+00 0. -1.
         22    1    3    3    0    0  0.23318081993E+02  0.79726264188E+01  0.21243516244E+03  0.21385975302E+03  0.00000000000E+00 0. -1.
</event>
<event>
 7    1  0.5736319E-006  0.5364056E+02  0.7818608E-02  0.1428499E+00
          2   -1    0    0  502    0  0.00000000000E+00  0.00000000000E+00  0.78315944887E+03  0.78315944887E+03  0.00000000000E+00 0. -1.
          1   -1    0    0  501    0 -0.00000000000E+00 -0.00000000000E+00 -0.23722243906E+03  0.23722243906E+03  0.00000000000E+00 0. -1.
         25    2    1    2    0    0 -0.24143952612E+02 -0.95011790038E+01  0.14817344978E+03  0.19558411382E+03  0.12499828603E+03 0.  0.
          2    1    1    2  501    0 -0.13341360003E+02  0.51176728568E+02 -0.20893022766E+03  0.21552004423E+03  0.00000000000E+00 0. -1.
          1    1    1    2  502    0  0.37485312616E+02 -0.41675549564E+02  0.60669378770E+03  0.60927772988E+03  0.00000000000E+00 0. -1.
         22    1    3    3    0    0 -0.15510172632E+02  0.31690809921E+02 -0.59823474244E+01  0.35786329362E+02  0.00000000000E+00 0. -1.
         22    1    3    3    0    0 -0.86337799804E+01 -0.41191988925E+02  0.15415579720E+03  0.15979778446E+03  0.00000000000E+00 0. -1.
</event>
<event>
 7    1  0.5736319E-006  0.4291177E+02  0.7818608E-02  0.1591263E+00
          2   -1    0    0  502    0  0.00000000000E+00  0.00000000000E+00  0.56496096045E+03  0.56496096045E+03  0.00000000000E+00 0. -1.
          1   -1    0    0  501    0 -0.00000000000E+00 -0.00000000000E+00 -0.21184181032E+03  0.21184181032E+03  0.00000000000E+00 0. -1.
         25    2    1    2    0    0  0.26434430782E+02 -0.31114990111E+02  0.98377286346E+02  0.16422723628E+03  0.12500229169E+03 0.  0.
          2    1    1    2  501    0 -0.40566513937E+02  0.14439036589E+02 -0.17604494190E+03  0.18123451493E+03  0.00000000000E+00 0. -1.
          1    1    1    2  502    0  0.14132083155E+02  0.16675953523E+02  0.43078680569E+03  0.43134101956E+03  0.00000000000E+00 0. -1.
         22    1    3    3    0    0  0.20305156650E+02 -0.52783834602E+02 -0.65298285146E+01  0.56930407010E+02  0.00000000000E+00 0.  1.
         22    1    3    3    0    0  0.61292741324E+01  0.21668844491E+02  0.10490711486E+03  0.10729682927E+03  0.00000000000E+00 0.  1.
</event>
<event>
 7    1  0.5736319E-006  0.1109037E+03  0.7818608E-02  0.1281630E+00
          2   -1    0    0  502    0  0.00000000000E+00  0.00000000000E+00  0.17405097993E+04  0.17405097993E+04  0.00000000000E+00 0. -1.
          1   -1    0    0  501    0 -0.00000000000E+00 -0.00000000000E+00 -0.19429962692E+04  0.19429962692E+04  0.00000000000E+00 0. -1.
         25    2    1    2    0    0 -0.83958298501E+02  0.25416797575E+02 -0.21967312292E+02  0.15428219300E+03  0.12500169111E+03 0.  0.
          2    1    1    2  501    0  0.42249940261E+02 -0.10407577622E+03 -0.18519851618E+04  0.18553883324E+04  0.00000000000E+00 0. -1.
          1    1    1    2  502    0  0.41708358240E+02  0.78658978646E+02  0.16714660042E+04  0.16738355430E+04  0.00000000000E+00 0. -1.
         22    1    3    3    0    0 -0.51738752786E+02  0.74623125741E+02  0.18572240096E+01  0.90823778364E+02  0.00000000000E+00 0. -1.
         22    1    3    3    0    0 -0.32219545715E+02 -0.49206328166E+02 -0.23824536302E+02  0.63458414633E+02  0.00000000000E+00 0. -1.
</event>
<event>
 7    1  0.5736319E-006  0.8068525E+02  0.7818608E-02  0.1400961E+00
          2   -1    0    0  502    0  0.00000000000E+00  0.00000000000E+00  0.42672021116E+03  0.42672021116E+03  0.00000000000E+00 0. -1.
          1   -1    0    0  501    0 -0.00000000000E+00 -0.00000000000E+00 -0.35538291372E+03  0.35538291372E+03  0.00000000000E+00 0. -1.
         25    2    1    2    0    0 -0.10577738365E+03  0.20772882789E+02 -0.91777048815E+02  0.18885978685E+03  0.12499849938E+03 0.  0.
          2    1    1    2  501    0  0.26853537805E+02 -0.34253799014E+02 -0.20855457983E+03  0.21304799461E+03  0.00000000000E+00 0. -1.
          1    1    1    2  502    0  0.78923845842E+02  0.13480916225E+02  0.37166892609E+03  0.38019534343E+03  0.00000000000E+00 0. -1.
         22    1    3    3    0    0 -0.11728408790E+03  0.37366567531E+02 -0.34068462682E+02  0.12772031081E+03  0.00000000000E+00 0.  1.
         22    1    3    3    0    0  0.11506704256E+02 -0.16593684742E+02 -0.57708586133E+02  0.61139476033E+02  0.00000000000E+00 0.  1.
</event>
<event>
 7    1  0.5736319E-006  0.1905780E+03  0.7818608E-02  0.1245727E+00
          2   -1    0    0  502    0  0.00000000000E+00  0.00000000000E+00  0.22212612726E+04  0.22212612726E+04  0.00000000000E+00 0. -1.
          1   -1    0    0  501    0 -0.00000000000E+00 -0.00000000000E+00 -0.24616868467E+04  0.24616868467E+04  0.00000000000E+00 0. -1.
         25    2    1    2    0    0  0.23089757181E+03 -0.12479278573E+03  0.67218427903E+02  0.29837875785E+03  0.12499855219E+03 0.  0.
          2    1    1    2  501    0 -0.16410240345E+03  0.93925603777E+02 -0.23416306552E+04  0.23492521668E+04  0.00000000000E+00 0. -1.
          1    1    1    2  502    0 -0.66795168359E+02  0.30867181954E+02  0.20339866532E+04  0.20353171946E+04  0.00000000000E+00 0. -1.
         22    1    3    3    0    0  0.70352146201E+02 -0.10432284293E+03  0.50826554241E+02  0.13570563234E+03  0.00000000000E+00 0. -1.
         22    1    3    3    0    0  0.16054542561E+03 -0.20469942802E+02  0.16391873662E+02  0.16267312551E+03  0.00000000000E+00 0. -1.
</event>
<event>
 7    1  0.5736319E-006  0.1008937E+03  0.7818608E-02  0.1406086E+00
          2   -1    0    0  502    0  0.00000000000E+00  0.00000000000E+00  0.12080798258E+03  0.12080798258E+03  0.00000000000E+00 0. -1.
          1   -1    0    0  501    0 -0.00000000000E+00 -0.00000000000E+00 -0.16764620271E+04  0.16764620271E+04  0.00000000000E+00 0. -1.
         25    2    1    2    0    0 -0.10163557843E+03 -0.64550160373E+02  0.44999475971E+01  0.17361068738E+03  0.12499562887E+03 0.  0.
          2    1    1    2  501    0  0.69278859883E+02  0.72953298902E+02 -0.15810422052E+04  0.15842399436E+04  0.00000000000E+00 0. -1.
          1    1    1    2  502    0  0.32356718546E+02 -0.84031385296E+01  0.20888213082E+02  0.39419378711E+02  0.00000000000E+00 0. -1.
         22    1    3    3    0    0  0.28394173653E+02 -0.12185474357E+02 -0.10497412444E+02  0.32632967238E+02  0.00000000000E+00 0. -1.
         22    1    3    3    0    0 -0.13002975208E+03 -0.52364686016E+02  0.14997360041E+02  0.14097772014E+03  0.00000000000E+00 0. -1.
</event>
<event>
 7    1  0.5736319E-006  0.1165264E+03  0.7818608E-02  0.1394518E+00
          2   -1    0    0  502    0  0.00000000000E+00  0.00000000000E+00  0.34349989697E+04  0.34349989697E+04  0.00000000000E+00 0. -1.
          1   -1    0    0  501    0 -0.00000000000E+00 -0.00000000000E+00 -0.87241465008E+02  0.87241465008E+02  0.00000000000E+00 0. -1.
         25    2    1    2    0    0  0.30587764643E+02 -0.11085832312E+03  0.92186521283E+02  0.19324029426E+03  0.12497310699E+03 0.  0.
          2    1    1    2  501    0 -0.31188469504E+02 -0.57842539311E+01 -0.28629026067E+02  0.42729373469E+02  0.00000000000E+00 0. -1.
          1    1    1    2  502    0  0.60070486073E+00  0.11664257705E+03  0.32842000094E+04  0.32862707669E+04  0.00000000000E+00 0. -1.
         22    1    3    3    0    0 -0.20156821782E+02 -0.13412810629E+02  0.78950319960E+02  0.82579379842E+02  0.00000000000E+00 0.  1.
         22    1    3    3    0    0  0.50744586425E+02 -0.97445512487E+02  0.13236201323E+02  0.11066091442E+03  0.00000000000E+00 0.  1.
</event>
<event>
 7    1  0.5736319E-006  0.2437921E+03  0.7818608E-02  0.1321424E+00
          2   -1    0    0  502    0  0.00000000000E+00  0.00000000000E+00  0.11705473826E+04  0.11705473826E+04  0.00000000000E+00 0. -1.
          1   -1    0    0  501    0 -0.00000000000E+00 -0.00000000000E+00 -0.12123436428E+03  0.12123436428E+03  0.00000000000E+00 0. -1.
         25    2    1    2    0    0  0.51927448940E+02  0.22507629727E+03  0.97194093136E+03  0.10068022503E+04  0.12500319024E+03 0.  0.
          2    1    1    2  501    0 -0.31212575556E+02 -0.24404473120E+03  0.66501119866E+02  0.25486163823E+03  0.00000000000E+00 0. -1.
          1    1    1    2  502    0 -0.20714873383E+02  0.18968433927E+02  0.10870967052E+02  0.30117858316E+02  0.00000000000E+00 0. -1.
         22    1    3    3    0    0  0.23210351549E+02  0.20308068380E+03  0.61598585959E+03  0.64901391647E+03  0.00000000000E+00 0. -1.
         22    1    3    3    0    0  0.28717097390E+02  0.21995613470E+02  0.35595507177E+03  0.35778833381E+03  0.00000000000E+00 0. -1.
</event>
<event>
 7    1  0.5736319E-006  0.1417583E+03  0.7818608E-02  0.1224589E+00
          2   -1    0    0  502    0  0.00000000000E+00  0.00000000000E+00  0.99408711000E+03  0.99408711000E+03  0.00000000000E+00 0. -1.
          1   -1    0    0  501    0 -0.00000000000E+00 -0.00000000000E+00 -0.83973377026E+03  0.83973377026E+03  0.00000000000E+00 0. -1.
         25    2    1    2    0    0  0.40936174578E+02 -0.16482688520E+03 -0.10308995664E+03  0.23472804519E+03  0.12500417418E+03 0.  0.
          2    1    1    2  501    0  0.81433621344E+02  0.91944743369E+02 -0.65965939487E+03  0.67099611605E+03  0.00000000000E+00 0. -1.
          1    1    1    2  502    0 -0.12236979592E+03  0.72882141834E+02  0.91710269125E+03  0.92809671902E+03  0.00000000000E+00 0. -1.
         22    1    3    3    0    0  0.62899173766E+02 -0.60405609661E+02 -0.12393585889E+01  0.87216281442E+02  0.00000000000E+00 0.  1.
         22    1    3    3    0    0 -0.21962999188E+02 -0.10442127554E+03 -0.10185059805E+03  0.14751176374E+03  0.00000000000E+00 0.  1.
</event>
<event>
 7    1  0.5736319E-006  0.7260157E+02  0.7818608E-02  0.1373945E+00
          2   -1    0    0  502    0  0.00000000000E+00  0.00000000000E+00  0.11269643787E+04  0.11269643787E+04  0.00000000000E+00 0. -1.
          1   -1    0    0  501    0 -0.00000000000E+00 -0.00000000000E+00 -0.76268965162E+02  0.76268965162E+02  0.00000000000E+00 0. -1.
         25    2    1    2    0    0  0.51374570814E+02  0.59688011009E+02  0.50052967197E+03  0.52187538410E+03  0.12498783467E+03 0.  0.
          2    1    1    2  501    0 -0.58073498615E+02  0.15664499002E+02 -0.48909925781E+02  0.77524761272E+02  0.00000000000E+00 0. -1.
          1    1    1    2  502    0  0.66989278011E+01 -0.75352510011E+02  0.59907566738E+03  0.60383319853E+03  0.00000000000E+00 0. -1.
         22    1    3    3    0    0  0.66189004035E+02  0.12249415920E+02  0.43205122501E+03  0.43726341429E+03  0.00000000000E+00 0.  1.
         22    1    3    3    0    0 -0.14814433221E+02  0.47438595089E+02  0.68478446967E+02  0.84611969808E+02  0.00000000000E+00 0.  1.
</event>
<event>
 7    1  0.5736319E-006  0.5088648E+02  0.7818608E-02  0.1488373E+00
          2   -1    0    0  502    0  0.00000000000E+00  0.00000000000E+00  0.16209046070E+04  0.16209046070E+04  0.00000000000E+00 0. -1.
          1   -1    0    0  501    0 -0.00000000000E+00 -0.00000000000E+00 -0.68840596131E+02  0.68840596131E+02  0.00000000000E+00 0. -1.
         25    2    1    2    0    0  0.31263395310E+02  0.72354736313E+02  0.50977785268E+03  0.53076491307E+03  0.12500130446E+03 0.  0.
          2    1    1    2  501    0 -0.27872135802E+02 -0.22857810062E+02 -0.52163685669E+02  0.63406510215E+02  0.00000000000E+00 0. -1.
          1    1    1    2  502    0 -0.33912595085E+01 -0.49496926251E+02  0.10944498439E+04  0.10955737798E+04  0.00000000000E+00 0. -1.
         22    1    3    3    0    0  0.38187647571E+02  0.10610195762E+03  0.36985510733E+03  0.38666357762E+03  0.00000000000E+00 0. -1.
         22    1    3    3    0    0 -0.69242522606E+01 -0.33747221304E+02  0.13992274534E+03  0.14410133545E+03  0.00000000000E+00 0. -1.
</event>
<event>
 7    1  0.5736319E-006  0.9344877E+02  0.7818608E-02  0.1394335E+00
          2   -1    0    0  502    0  0.00000000000E+00  0.00000000000E+00  0.12717347905E+04  0.12717347905E+04  0.00000000000E+00 0. -1.
          1   -1    0    0  501    0 -0.00000000000E+00 -0.00000000000E+00 -0.63619142197E+02  0.63619142197E+02  0.00000000000E+00 0. -1.
         25    2    1    2    0    0  0.46303666216E+02  0.76175230846E+02  0.10295682933E+03  0.18485761501E+03  0.12500213528E+03 0.  0.
          2    1    1    2  501    0  0.31737374779E+02 -0.23702480158E+02 -0.17016876639E+01  0.39648004545E+02  0.00000000000E+00 0. -1.
          1    1    1    2  502    0 -0.78041040995E+02 -0.52472750688E+02  0.11068605066E+04  0.11108483131E+04  0.00000000000E+00 0. -1.
         22    1    3    3    0    0  0.38905514017E+02  0.69114773632E+02  0.13203969388E+03  0.15402912619E+03  0.00000000000E+00 0. -1.
         22    1    3    3    0    0  0.73981521981E+01  0.70604572140E+01 -0.29082864556E+02  0.30828488818E+02  0.00000000000E+00 0. -1.
</event>
<event>
 7    1  0.5736319E-006  0.1656568E+03  0.7818608E-02  0.1238752E+00
          2   -1    0    0  502    0  0.00000000000E+00  0.00000000000E+00  0.15888709629E+04  0.15888709629E+04  0.00000000000E+00 0. -1.
          1   -1    0    0  501    0 -0.00000000000E+00 -0.00000000000E+00 -0.68180850351E+02  0.68180850351E+02  0.00000000000E+00 0. -1.
         25    2    1    2    0    0 -0.84922888709E+02 -0.12157210418E+03  0.18191137142E+03  0.26591079049E+03  0.12500051163E+03 0.  0.
          2    1    1    2  501    0  0.76451545230E+02 -0.49064999328E+02  0.80685789886E+02  0.12150065686E+03  0.00000000000E+00 0. -1.
          1    1    1    2  502    0  0.84713434797E+01  0.17063710351E+03  0.12580929513E+04  0.12696403659E+04  0.00000000000E+00 0. -1.
         22    1    3    3    0    0  0.23694984638E+02 -0.20703585532E+02  0.80167961178E+02  0.86121964390E+02  0.00000000000E+00 0. -1.
         22    1    3    3    0    0 -0.10861787335E+03 -0.10086851865E+03  0.10174341024E+03  0.17978882610E+03  0.00000000000E+00 0. -1.
</event>
<event>
 7    1  0.5736319E-006  0.1316023E+03  0.7818608E-02  0.1269792E+00
          2   -1    0    0  502    0  0.00000000000E+00  0.00000000000E+00  0.50500242864E+03  0.50500242864E+03  0.00000000000E+00 0. -1.
          1   -1    0    0  501    0 -0.00000000000E+00 -0.00000000000E+00 -0.34501880471E+03  0.34501880471E+03  0.00000000000E+00 0. -1.
         25    2    1    2    0    0  0.15627480556E+03  0.68265574948E+01 -0.34989421845E+02  0.20326647911E+03  0.12499834059E+03 0.  0.
          2    1    1    2  501    0 -0.10681493113E+03 -0.74772501241E+02 -0.20230673857E+03  0.24068313801E+03  0.00000000000E+00 0. -1.
          1    1    1    2  502    0 -0.49459874429E+02  0.67945943746E+02  0.39727978435E+03  0.40607161622E+03  0.00000000000E+00 0. -1.
         22    1    3    3    0    0  0.27904068157E+01 -0.33847871863E+02 -0.28525041123E+02  0.44352483256E+02  0.00000000000E+00 0.  1.
         22    1    3    3    0    0  0.15348439874E+03  0.40674429358E+02 -0.64643807219E+01  0.15891399586E+03  0.00000000000E+00 0.  1.
</event>
<event>
 7    1  0.5736319E-006  0.2753855E+03  0.7818608E-02  0.1301292E+00
          2   -1    0    0  502    0  0.00000000000E+00  0.00000000000E+00  0.25396736288E+04  0.25396736288E+04  0.00000000000E+00 0. -1.
          1   -1    0    0  501    0 -0.00000000000E+00 -0.00000000000E+00 -0.33565583785E+03  0.33565583785E+03  0.00000000000E+00 0. -1.
         25    2    1    2    0    0  0.27898231909E+03 -0.54360076406E+02  0.19098751739E+03  0.36453757076E+03  0.12500102571E+03 0.  0.
          2    1    1    2  501    0 -0.54623782008E+01  0.29333473971E+02 -0.23961406720E+03  0.24146467955E+03  0.00000000000E+00 0. -1.
          1    1    1    2  502    0 -0.27351994089E+03  0.25026602435E+02  0.22526443407E+04  0.22693272163E+04  0.00000000000E+00 0. -1.
         22    1    3    3    0    0  0.20892471148E+03 -0.43751662943E+02  0.20073276603E+03  0.29301431097E+03  0.00000000000E+00 0.  1.
         22    1    3    3    0    0  0.70057607612E+02 -0.10608413463E+02 -0.97452486378E+01  0.71523259794E+02  0.00000000000E+00 0.  1.
</event>
<event>
 7    1  0.5736319E-006  0.1355421E+03  0.7818608E-02  0.1261463E+00
          2   -1    0    0  502    0  0.00000000000E+00  0.00000000000E+00  0.14283393969E+04  0.14283393969E+04  0.00000000000E+00 0. -1.
          1   -1    0    0  501    0 -0.00000000000E+00 -0.00000000000E+00 -0.38261455213E+03  0.38261455213E+03  0.00000000000E+00 0. -1.
         25    2    1    2    0    0 -0.33842376746E+02  0.12937667221E+03  0.10434509367E+03  0.21070459410E+03  0.12499959052E+03 0.  0.
          2    1    1    2  501    0 -0.54614095416E+02 -0.12687026017E+03 -0.31332923016E+03  0.34242366858E+03  0.00000000000E+00 0. -1.
          1    1    1    2  502    0  0.88456472163E+02 -0.25064120362E+01  0.12547089812E+04  0.12578256863E+04  0.00000000000E+00 0. -1.
         22    1    3    3    0    0 -0.49435984501E+02  0.44559837424E+02  0.10517298440E+03  0.12446225260E+03  0.00000000000E+00 0. -1.
         22    1    3    3    0    0  0.15593607755E+02  0.84816834781E+02 -0.82789073093E+00  0.86242341504E+02  0.00000000000E+00 0. -1.
</event>
<event>
 7    1  0.5736319E-006  0.6324515E+02  0.7818608E-02  0.1401801E+00
          2   -1    0    0  502    0  0.00000000000E+00  0.00000000000E+00  0.19162482052E+03  0.19162482052E+03  0.00000000000E+00 0. -1.
          1   -1    0    0  501    0 -0.00000000000E+00 -0.00000000000E+00 -0.14186524852E+04  0.14186524852E+04  0.00000000000E+00 0. -1.
         25    2    1    2    0    0  0.46705875690E+00 -0.18079705091E+02 -0.22190951619E+02  0.12823605544E+03  0.12499981481E+03 0.  0.
          2    1    1    2  501    0 -0.52341261838E+02  0.36832849702E+02 -0.13371550601E+04  0.13386858934E+04  0.00000000000E+00 0. -1.
          1    1    1    2  502    0  0.51874203081E+02 -0.18753144611E+02  0.13231834703E+03  0.14335535686E+03  0.00000000000E+00 0. -1.
         22    1    3    3    0    0  0.55574254127E+02 -0.25996760092E+02 -0.35649694294E+02  0.70959354283E+02  0.00000000000E+00 0.  1.
         22    1    3    3    0    0 -0.55107195370E+02  0.79170550004E+01  0.13458742675E+02  0.57276701160E+02  0.00000000000E+00 0.  1.
</event>
<event>
 7    1  0.5736319E-006  0.5161082E+02  0.7818608E-02  0.1469378E+00
          2   -1    0    0  502    0  0.00000000000E+00  0.00000000000E+00  0.17499902715E+03  0.17499902715E+03  0.00000000000E+00 0. -1.
          1   -1    0    0  501    0 -0.00000000000E+00 -0.00000000000E+00 -0.37717058042E+03  0.37717058042E+03  0.00000000000E+00 0. -1.
         25    2    1    2    0    0  0.12773886927E+02  0.12574185389E+02  0.21184291666E+02  0.12803973276E+03  0.12499646646E+03 0.  0.
          2    1    1    2  501    0  0.39266303116E+02  0.10524126899E+02 -0.31425389384E+03  0.31687238693E+03  0.00000000000E+00 0. -1.
          1    1    1    2  502    0 -0.52040190043E+02 -0.23098312288E+02  0.90898048900E+02  0.10725748787E+03  0.00000000000E+00 0. -1.
         22    1    3    3    0    0  0.61460594138E+02  0.33795430133E+02 -0.18155265076E+01  0.70162895224E+02  0.00000000000E+00 0.  1.
         22    1    3    3    0    0 -0.48686707211E+02 -0.21221244744E+02  0.22999818174E+02  0.57876837539E+02  0.00000000000E+00 0.  1.
</event>
<event>
 7    1  0.5736319E-006  0.1167017E+03  0.7818608E-02  0.1422025E+00
          2   -1    0    0  502    0  0.00000000000E+00  0.00000000000E+00  0.12313431222E+04  0.12313431222E+04  0.00000000000E+00 0. -1.
          1   -1    0    0  501    0 -0.00000000000E+00 -0.00000000000E+00 -0.97581748134E+03  0.97581748134E+03  0.00000000000E+00 0. -1.
         25    2    1    2    0    0 -0.31137900432E+02 -0.99341511167E+02 -0.59202629173E+02  0.17311860216E+03  0.12500717751E+03 0.  0.
          2    1    1    2  501    0  0.56360442587E+02  0.10335721494E+03 -0.85548642435E+03  0.86354862956E+03  0.00000000000E+00 0. -1.
          1    1    1    2  502    0 -0.25222542155E+02 -0.40157037728E+01  0.11702146944E+04  0.11704933718E+04  0.00000000000E+00 0. -1.
         22    1    3    3    0    0 -0.55940432354E+02 -0.45851640356E+01  0.44501801977E+01  0.56304172181E+02  0.00000000000E+00 0. -1.
         22    1    3    3    0    0  0.24802531922E+02 -0.94756347131E+02 -0.63652809371E+02  0.11681442998E+03  0.00000000000E+00 0. -1.
</event>
<event>
 7    1  0.5736319E-006  0.1392708E+03  0.7818608E-02  0.1289963E+00
          2   -1    0    0  502    0  0.00000000000E+00  0.00000000000E+00  0.44187652464E+03  0.44187652464E+03  0.00000000000E+00 0. -1.
          1   -1    0    0  501    0 -0.00000000000E+00 -0.00000000000E+00 -0.16488238764E+04  0.16488238764E+04  0.00000000000E+00 0. -1.
         25    2    1    2    0    0  0.59866923383E+02  0.83062198490E+02 -0.57445839934E+02  0.17148859740E+03  0.12499974872E+03 0.  0.
          2    1    1    2  501    0  0.64806321064E+02 -0.97879136485E+01 -0.15200408270E+04  0.15214531798E+04  0.00000000000E+00 0. -1.
          1    1    1    2  502    0 -0.12467324445E+03 -0.73274284842E+02  0.37053931522E+03  0.39775862382E+03  0.00000000000E+00 0. -1.
         22    1    3    3    0    0  0.26111847312E+02  0.52109344151E+02 -0.95541637771E+02  0.11191700883E+03  0.00000000000E+00 0.  1.
         22    1    3    3    0    0  0.33755076071E+02  0.30952854340E+02  0.38095797837E+02  0.59571588573E+02  0.00000000000E+00 0.  1.
</event>
<event>
 7    1  0.5736319E-006  0.7236363E+02  0.7818608E-02  0.1419603E+00
          2   -1    0    0  502    0  0.00000000000E+00  0.00000000000E+00  0.33564339526E+03  0.33564339526E+03  0.00000000000E+00 0. -1.
          1   -1    0    0  501    0 -0.00000000000E+00 -0.00000000000E+00 -0.33436117074E+03  0.33436117074E+03  0.00000000000E+00 0. -1.
         25    2    1    2    0    0 -0.82772342795E+02  0.34021214638E+02  0.12402219766E+03  0.19752824576E+03  0.12500879403E+03 0.  0.
          2    1    1    2  501    0  0.37030177458E+02  0.19738660580E+02 -0.28890691907E+03  0.29193844668E+03  0.00000000000E+00 0. -1.
          1    1    1    2  502    0  0.45742165337E+02 -0.53759875218E+02  0.16616694593E+03  0.18053787357E+03  0.00000000000E+00 0. -1.
         22    1    3    3    0    0  0.32671329676E+02  0.89724753701E+01  0.40765825985E+02  0.53007298226E+02  0.00000000000E+00 0. -1.
         22    1    3    3    0    0 -0.11544367247E+03  0.25048739268E+02  0.83256371673E+02  0.14452094754E+03  0.00000000000E+00 0. -1.
</event>
<event>
 7    1  0.5736319E-006  0.7113062E+02  0.7818608E-02  0.1370358E+00
          2   -1    0    0  502    0  0.00000000000E+00  0.00000000000E+00  0.80426264362E+02  0.80426264362E+02  0.00000000000E+00 0. -1.
          1   -1    0    0  501    0 -0.00000000000E+00 -0.00000000000E+00 -0.41259163080E+03  0.41259163080E+03  0.00000000000E+00 0. -1.
         25    2    1    2    0    0 -0.75234714004E+02 -0.52474279937E+02 -0.26515341709E+03  0.30715649593E+03  0.12499986460E+03 0.  0.
          2    1    1    2  501    0  0.67583998878E+02 -0.10298424986E+02 -0.94725066983E+02  0.11681820396E+03  0.00000000000E+00 0. -1.
          1    1    1    2  502    0  0.76507151261E+01  0.62772704923E+02  0.27713117632E+02  0.69043195278E+02  0.00000000000E+00 0. -1.
         22    1    3    3    0    0 -0.38342161054E+02 -0.33437206881E+02 -0.26045468214E+03  0.26537673140E+03  0.00000000000E+00 0. -1.
         22    1    3    3    0    0 -0.36892552951E+02 -0.19037073057E+02 -0.46987349461E+01  0.41779764526E+02  0.00000000000E+00 0. -1.
</event>
<event>
 7    1  0.5736319E-006  0.6758758E+02  0.7818608E-02  0.1463386E+00
          2   -1    0    0  502    0  0.00000000000E+00  0.00000000000E+00  0.96157219554E+03  0.96157219554E+03  0.00000000000E+00 0. -1.
          1   -1    0    0  501    0 -0.00000000000E+00 -0.00000000000E+00 -0.13964938787E+04  0.13964938787E+04  0.00000000000E+00 0. -1.
         25    2    1    2    0    0 -0.10153548797E+02  0.60184061147E+02  0.10416687711E+02  0.13949360772E+03  0.12499897377E+03 0.  0.
          2    1    1    2  501    0  0.41824209102E+02 -0.53295824242E+02 -0.13307972739E+04  0.13325205790E+04  0.00000000000E+00 0. -1.
          1    1    1    2  502    0 -0.31670660305E+02 -0.68882369045E+01  0.88545890298E+03  0.88605188753E+03  0.00000000000E+00 0. -1.
         22    1    3    3    0    0  0.14985630356E+01  0.82233965618E+02  0.47368830897E+02  0.94912996649E+02  0.00000000000E+00 0.  1.
         22    1    3    3    0    0 -0.11652111833E+02 -0.22049904471E+02 -0.36952143186E+02  0.44580611070E+02  0.00000000000E+00 0.  1.
</event>
<event>
 7    1  0.5736319E-006  0.5940305E+02  0.7818608E-02  0.1434599E+00
          2   -1    0    0  502    0  0.00000000000E+00  0.00000000000E+00  0.78782308249E+03  0.78782308249E+03  0.00000000000E+00 0. -1.
          1   -1    0    0  501    0 -0.00000000000E+00 -0.00000000000E+00 -0.14908262631E+03  0.14908262631E+03  0.00000000000E+00 0. -1.
         25    2    1    2    0    0  0.39896764137E+02  0.53792445986E+02  0.51916163075E+03  0.53818149581E+03  0.12500057825E+03 0.  0.
          2    1    1    2  501    0 -0.58281048661E+02 -0.12058849497E+02 -0.13107588036E+03  0.14395479463E+03  0.00000000000E+00 0. -1.
          1    1    1    2  502    0  0.18384284524E+02 -0.41733596488E+02  0.25065470579E+03  0.25476941836E+03  0.00000000000E+00 0. -1.
         22    1    3    3    0    0  0.27076615795E+01  0.80796052786E+02  0.43346287538E+03  0.44093695457E+03  0.00000000000E+00 0.  1.
         22    1    3    3    0    0  0.37189102557E+02 -0.27003606801E+02  0.85698755372E+02  0.97244541243E+02  0.00000000000E+00 0.  1.
</event>
<event>
 7    1  0.5736319E-006  0.6453928E+02  0.7818608E-02  0.1492627E+00
          2   -1    0    0  502    0  0.00000000000E+00  0.00000000000E+00  0.32422984434E+03  0.32422984434E+03  0.00000000000E+00 0. -1.
          1   -1    0    0  501    0 -0.00000000000E+00 -0.00000000000E+00 -0.24075303174E+04  0.24075303174E+04  0.00000000000E+00 0. -1.
         25    2    1    2    0    0  0.35075661568E+02  0.23251459734E+02 -0.55292186134E+03  0.56843579467E+03  0.12500294195E+03 0.  0.
          2    1    1    2  501    0 -0.62635126956E+02 -0.21921923104E+02 -0.18456526585E+04  0.18468452739E+04  0.00000000000E+00 0. -1.
          1    1    1    2  502    0  0.27559465388E+02 -0.13295366297E+01  0.31527404682E+03  0.31647909315E+03  0.00000000000E+00 0. -1.
         22    1    3    3    0    0 -0.11526502697E+02 -0.32983165185E+02 -0.54817035296E+02  0.65005052178E+02  0.00000000000E+00 0. -1.
         22    1    3    3    0    0  0.46602164265E+02  0.56234624919E+02 -0.49810482605E+03  0.50343074249E+03  0.00000000000E+00 0. -1.
</event>
<event>
 7    1  0.5736319E-006  0.1444149E+03  0.7818608E-02  0.1307709E+00
          2   -1    0    0  502    0  0.00000000000E+00  0.00000000000E+00  0.34520183596E+04  0.34520183596E+04  0.00000000000E+00 0. -1.
          1   -1    0    0  501    0 -0.00000000000E+00 -0.00000000000E+00 -0.20568752136E+04  0.20568752136E+04  0.00000000000E+00 0. -1.
         25    2    1    2    0    0  0.18098247164E+03  0.36971838812E+02 -0.50292352852E+01  0.22309733819E+03  0.12500222875E+03 0.  0.
          2    1    1    2  501    0 -0.13146064618E+03 -0.57615383626E+02 -0.19399452112E+04  0.19452477622E+04  0.00000000000E+00 0. -1.
          1    1    1    2  502    0 -0.49521825462E+02  0.20643544814E+02  0.33401175925E+04  0.33405484728E+04  0.00000000000E+00 0. -1.
         22    1    3    3    0    0  0.17801159111E+02 -0.36035629564E+02 -0.17621335683E+02  0.43885753212E+02  0.00000000000E+00 0. -1.
         22    1    3    3    0    0  0.16318131253E+03  0.73007468376E+02  0.12592100397E+02  0.17921158498E+03  0.00000000000E+00 0. -1.
</event>
<event>
 7    1  0.5736319E-006  0.8309004E+02  0.7818608E-02  0.1376223E+00
          2   -1    0    0  502    0  0.00000000000E+00  0.00000000000E+00  0.11419664793E+04  0.11419664793E+04  0.00000000000E+00 0. -1.
          1   -1    0    0  501    0 -0.00000000000E+00 -0.00000000000E+00 -0.52010493798E+02  0.52010493798E+02  0.00000000000E+00 0. -1.
         25    2    1    2    0    0  0.74806071590E+01  0.39467960974E+02  0.38097248602E+03  0.40296654400E+03  0.12501328351E+03 0.  0.
          2    1    1    2  501    0  0.95706194108E+01 -0.88150191258E+02  0.89942564695E+01  0.89123227186E+02  0.00000000000E+00 0. -1.
          1    1    1    2  502    0 -0.17051226570E+02  0.48682230283E+02  0.69998924303E+03  0.70188720193E+03  0.00000000000E+00 0. -1.
         22    1    3    3    0    0 -0.63287736623E+01 -0.42122692794E+02  0.19202731437E+03  0.19669485019E+03  0.00000000000E+00 0. -1.
         22    1    3    3    0    0  0.13809380821E+02  0.81590653768E+02  0.18894517165E+03  0.20627169382E+03  0.00000000000E+00 0. -1.
</event>
<event>
 7    1  0.5736319E-006  0.5118005E+02  0.7818608E-02  0.1481120E+00
          2   -1    0    0  502    0  0.00000000000E+00  0.00000000000E+00  0.10704842308E+03  0.10704842308E+03  0.00000000000E+00 0. -1.
          1   -1    0    0  501    0 -0.00000000000E+00 -0.00000000000E+00 -0.10397022285E+04  0.10397022285E+04  0.00000000000E+00 0. -1.
         25    2    1    2    0    0 -0.64771845675E+02 -0.39834829051E+02 -0.13837788625E+03  0.20138564114E+03  0.12500212581E+03 0.  0.
          2    1    1    2  501    0  0.14736089729E+02  0.34712464873E+02 -0.86098981106E+03  0.86181527157E+03  0.00000000000E+00 0. -1.
          1    1    1    2  502    0  0.50035755946E+02  0.51223641780E+01  0.66713891918E+02  0.83549738855E+02  0.00000000000E+00 0. -1.
         22    1    3    3    0    0  0.15151989727E+02 -0.45544894377E+02 -0.10331836950E+03  0.11392368355E+03  0.00000000000E+00 0.  1.
         22    1    3    3    0    0 -0.79923835402E+02  0.57100653256E+01 -0.35059516754E+02  0.87461957595E+02  0.00000000000E+00 0.  1.
</event>
<event>
 7    1  0.5736319E-006  0.1110024E+03  0.7818608E-02  0.1430888E+00
          2   -1    0    0  502    0  0.00000000000E+00  0.00000000000E+00  0.10095668224E+04  0.10095668224E+04  0.00000000000E+00 0. -1.
          1   -1    0    0  501    0 -0.00000000000E+00 -0.00000000000E+00 -0.89197150283E+03  0.89197150283E+03  0.00000000000E+00 0. -1.
         25    2    1    2    0    0  0.43245194781E+02 -0.95456018987E+02  0.33641395999E+02  0.16654897771E+03  0.12499928007E+03 0.  0.
          2    1    1    2  501    0 -0.20995920085E+02 -0.13750829067E+02 -0.82191104623E+03  0.82229415776E+03  0.00000000000E+00 0. -1.
          1    1    1    2  502    0 -0.22249274696E+02  0.10920684805E+03  0.90586496981E+03  0.91269518976E+03  0.00000000000E+00 0. -1.
         22    1    3    3    0    0  0.56825408930E+02 -0.12014044216E+03  0.17417625884E+02  0.13403815365E+03  0.00000000000E+00 0.  1.
         22    1    3    3    0    0 -0.13580214149E+02  0.24684423178E+02  0.16223770114E+02  0.32510824054E+02  0.00000000000E+00 0.  1.
</event>
<event>
 7    1  0.5736319E-006  0.1466042E+03  0.7818608E-02  0.1327927E+00
          2   -1    0    0  502    0  0.00000000000E+00  0.00000000000E+00  0.18266331464E+03  0.18266331464E+03  0.00000000000E+00 0. -1.
          1   -1    0    0  501    0 -0.00000000000E+00 -0.00000000000E+00 -0.49851158704E+03  0.49851158704E+03  0.00000000000E+00 0. -1.
         25    2    1    2    0    0  0.34639103694E+02  0.11240646462E+03 -0.80127381846E+02  0.18942121638E+03  0.12499967640E+03 0.  0.
          2    1    1    2  501    0  0.32109138120E+02  0.30214928626E+02 -0.31317802919E+03  0.31626636974E+03  0.00000000000E+00 0. -1.
          1    1    1    2  502    0 -0.66748241814E+02 -0.14262139324E+03  0.77457138638E+02  0.17548731556E+03  0.00000000000E+00 0. -1.
         22    1    3    3    0    0 -0.38331007448E+02  0.95116147654E+01 -0.41978209792E+02  0.57635987410E+02  0.00000000000E+00 0. -1.
         22    1    3    3    0    0  0.72970111142E+02  0.10289484985E+03 -0.38149172054E+02  0.13178522897E+03  0.00000000000E+00 0. -1.
</event>
<event>
 7    1  0.5736319E-006  0.3058275E+03  0.7818608E-02  0.1203885E+00
          2   -1    0    0  502    0  0.00000000000E+00  0.00000000000E+00  0.20844149889E+04  0.20844149889E+04  0.00000000000E+00 0. -1.
          1   -1    0    0  501    0 -0.00000000000E+00 -0.00000000000E+00 -0.26124415866E+03  0.26124415866E+03  0.00000000000E+00 0. -1.
         25    2    1    2    0    0 -0.25879918438E+03  0.89833041598E+02  0.32438103961E+03  0.44260042494E+03  0.12500033641E+03 0.  0.
          2    1    1    2  501    0 -0.53076875852E+02 -0.47013293411E+02 -0.18080839375E+03  0.19421400505E+03  0.00000000000E+00 0. -1.
          1    1    1    2  502    0  0.31187606023E+03 -0.42819748187E+02  0.16795981844E+04  0.17088447175E+04  0.00000000000E+00 0. -1.
         22    1    3    3    0    0 -0.17493237338E+03  0.27911391431E+02  0.12245009910E+03  0.21534717968E+03  0.00000000000E+00 0.  1.
         22    1    3    3    0    0 -0.83866811002E+02  0.61921650167E+02  0.20193094051E+03  0.22725324526E+03  0.00000000000E+00 0.  1.
</event>
<event>
 7    1  0.5736319E-006  0.5560624E+02  0.7818608E-02  0.1466399E+00
          2   -1    0    0  502    0  0.00000000000E+00  0.00000000000E+00  0.56460009657E+03  0.56460009657E+03  0.00000000000E+00 0. -1.
          1   -1    0    0  501    0 -0.00000000000E+00 -0.00000000000E+00 -0.32813641735E+03  0.32813641735E+03  0.00000000000E+00 0. -1.
         25    2    1    2    0    0  0.33843664914E+02 -0.47267980600E+02 -0.31663009160E+02  0.14144650446E+03  0.12499964732E+03 0.  0.
          2    1    1    2  501    0 -0.37621866494E+02 -0.83964005928E+01 -0.23850276358E+03  0.24159774961E+03  0.00000000000E+00 0. -1.
          1    1    1    2  502    0  0.37782015802E+01  0.55664381192E+02  0.50662945197E+03  0.50969225985E+03  0.00000000000E+00 0. -1.
         22    1    3    3    0    0  0.43719732499E+02  0.58803788544E+01  0.34503806422E+02  0.56004522343E+02  0.00000000000E+00 0.  1.
         22    1    3    3    0    0 -0.98760675858E+01 -0.53148359454E+02 -0.66166815582E+02  0.85441982116E+02  0.00000000000E+00 0.  1.
</event>
<event>
 7    1  0.5736319E-006  0.5679367E+02  0.7818608E-02  0.1550379E+00
          2   -1    0    0  502    0  0.00000000000E+00  0.00000000000E+00  0.11655723359E+03  0.11655723359E+03  0.00000000000E+00 0. -1.
          1   -1    0    0  501    0 -0.00000000000E+00 -0.00000000000E+00 -0.26488585254E+04  0.26488585254E+04  0.00000000000E+00 0. -1.
         25    2    1    2    0    0  0.20081920219E+02 -0.67737242011E+02 -0.10174132997E+04  0.10274951496E+04  0.12499937067E+03 0.  0.
          2    1    1    2  501    0 -0.28166706803E+02  0.48005115653E+02 -0.16249040412E+04  0.16258570040E+04  0.00000000000E+00 0. -1.
          1    1    1    2  502    0  0.80847865838E+01  0.19732126359E+02  0.11001604907E+03  0.11206360532E+03  0.00000000000E+00 0. -1.
         22    1    3    3    0    0  0.16374258845E+02  0.34900123993E+02 -0.20264575951E+03  0.20628000110E+03  0.00000000000E+00 0. -1.
         22    1    3    3    0    0  0.37076613742E+01 -0.10263736600E+03 -0.81476754017E+03  0.82121514852E+03  0.00000000000E+00 0. -1.
</event>
<event>
 7    1  0.6317300E-006  0.1818626E+03  0.7818608E-02  0.1303973E+00
          2   -1    0    0  502    0  0.00000000000E+00  0.00000000000E+00  0.17220948369E+04  0.17220948369E+04  0.00000000000E+00 0. -1.
          1   -1    0    0  501    0 -0.00000000000E+00 -0.00000000000E+00 -0.23916087683E+04  0.23916087683E+04  0.00000000000E+00 0. -1.
         25    2    1    2    0    0  0.21694458029E+02 -0.15907048920E+03 -0.72337866389E+03  0.75144934703E+03  0.12500143894E+03 0.  0.
          2    1    1    2  501    0 -0.59662652814E+02  0.18147049739E+03 -0.16483935072E+04  0.16594253006E+04  0.00000000000E+00 0. -1.
          1    1    1    2  502    0  0.37968194785E+02 -0.22400008187E+02  0.17022582397E+04  0.17028289576E+04  0.00000000000E+00 0. -1.
         22    1    3    3    0    0 -0.33746321996E+02 -0.72485148640E+02 -0.16112483768E+03  0.17987252247E+03  0.00000000000E+00 0. -1.
         22    1    3    3    0    0  0.55440780025E+02 -0.86585340562E+02 -0.56225382620E+03  0.57157682456E+03  0.00000000000E+00 0. -1.
</event>
<event>
 7    1  0.6829153E-006  0.5585056E+02  0.7818608E-02  0.1424874E+00
          2   -1    0    0  502    0  0.00000000000E+00  0.00000000000E+00  0.34209005594E+04  0.34209005594E+04  0.00000000000E+00 0. -1.
          1   -1    0    0  501    0 -0.00000000000E+00 -0.00000000000E+00 -0.65167625352E+03  0.65167625352E+03  0.00000000000E+00 0. -1.
         25    2    1    2    0    0  0.11406886492E+02 -0.39292395920E+01 -0.38615855127E+03  0.40606500397E+03  0.12499921899E+03 0.  0.
          2    1    1    2  501    0 -0.68522270174E+01 -0.51764878149E+02 -0.25266584996E+03  0.25800501422E+03  0.00000000000E+00 0. -1.
          1    1    1    2  502    0 -0.45546594746E+01  0.55694117741E+02  0.34080487072E+04  0.34085067948E+04  0.00000000000E+00 0. -1.
         22    1    3    3    0    0  0.14968718516E+01 -0.52687468303E+02 -0.79431981506E+02  0.95329164622E+02  0.00000000000E+00 0.  1.
         22    1    3    3    0    0  0.99100146404E+01  0.48758228711E+02 -0.30672656976E+03  0.31073583935E+03  0.00000000000E+00 0.  1.
</event>
<event>
 7    1  0.5736319E-006  0.9828163E+02  0.7818608E-02  0.1383757E+00
          2   -1    0    0  502    0  0.00000000000E+00  0.00000000000E+00  0.18936846879E+03  0.18936846879E+03  0.00000000000E+00 0. -1.
          1   -1    0    0  501    0 -0.00000000000E+00 -0.00000000000E+00 -0.63015719843E+03  0.63015719843E+03  0.00000000000E+00 0. -1.
         25    2    1    2    0    0  0.36404460027E+02  0.11560477452E+03  0.69441821989E+02  0.18744912149E+03  0.12500103162E+03 0.  0.
          2    1    1    2  501    0  0.72205459578E+01 -0.40369422858E+02 -0.53893536671E+03  0.54049343759E+03  0.00000000000E+00 0. -1.
          1    1    1    2  502    0 -0.43625005985E+02 -0.75235351666E+02  0.28704815081E+02  0.91583108138E+02  0.00000000000E+00 0. -1.
         22    1    3    3    0    0  0.67151423575E+02  0.38371155454E+02 -0.26903505717E+01  0.77387965765E+02  0.00000000000E+00 0.  1.
         22    1    3    3    0    0 -0.30746963548E+02  0.77233619070E+02  0.72132172561E+02  0.11006115573E+03  0.00000000000E+00 0.  1.
</event>
<event>
 7    1  0.5736319E-006  0.6702373E+02  0.7818608E-02  0.1450367E+00
          2   -1    0    0  502    0  0.00000000000E+00  0.00000000000E+00  0.93590560884E+03  0.93590560884E+03  0.00000000000E+00 0. -1.
          1   -1    0    0  501    0 -0.00000000000E+00 -0.00000000000E+00 -0.30093861413E+04  0.30093861413E+04  0.00000000000E+00 0. -1.
         25    2    1    2    0    0 -0.24017213489E+02  0.77121916240E+02  0.28899246962E+03  0.32507177286E+03  0.12502157216E+03 0.  0.
          2    1    1    2  501    0 -0.10233325053E+02 -0.66231052780E+02 -0.29904572613E+04  0.29912081013E+04  0.00000000000E+00 0. -1.
          1    1    1    2  502    0  0.34250538542E+02 -0.10890863460E+02  0.62798425924E+03  0.62901187600E+03  0.00000000000E+00 0. -1.
         22    1    3    3    0    0  0.48023635479E+02  0.40515770522E+02  0.85355648373E+02  0.10598765935E+03  0.00000000000E+00 0.  1.
         22    1    3    3    0    0 -0.72040848968E+02  0.36606145718E+02  0.20363682125E+03  0.21908411351E+03  0.00000000000E+00 0.  1.
</event>
<event>
 7    1  0.5736319E-006  0.1368774E+03  0.7818608E-02  0.1305171E+00
          2   -1    0    0  502    0  0.00000000000E+00  0.00000000000E+00  0.37737280366E+03  0.37737280366E+03  0.00000000000E+00 0. -1.
          1   -1    0    0  501    0 -0.00000000000E+00 -0.00000000000E+00 -0.12644235146E+04  0.12644235146E+04  0.00000000000E+00 0. -1.
         25    2    1    2    0    0 -0.39797629272E+02 -0.16003891064E+03  0.11635966540E+01  0.20693815630E+03  0.12500296942E+03 0.  0.
          2    1    1    2  501    0 -0.32704603216E+02  0.47818949697E+02 -0.11444328481E+04  0.11458982445E+04  0.00000000000E+00 0. -1.
          1    1    1    2  502    0  0.72502232488E+02  0.11221996094E+03  0.25621854053E+03  0.28895991740E+03  0.00000000000E+00 0. -1.
         22    1    3    3    0    0 -0.49583853141E+02 -0.60085489884E+02 -0.51647419725E+02  0.93468072363E+02  0.00000000000E+00 0.  1.
         22    1    3    3    0    0  0.97862238691E+01 -0.99953420757E+02  0.52811016379E+02  0.11347008394E+03  0.00000000000E+00 0.  1.
</event>
<event>
 7    1  0.5736319E-006  0.1161053E+03  0.7818608E-02  0.1276196E+00
          2   -1    0    0  502    0  0.00000000000E+00  0.00000000000E+00  0.17274687871E+04  0.17274687871E+04  0.00000000000E+00 0. -1.
          1   -1    0    0  501    0 -0.00000000000E+00 -0.00000000000E+00 -0.86618555171E+02  0.86618555171E+02  0.00000000000E+00 0. -1.
         25    2    1    2    0    0  0.75259494570E+02 -0.54721058397E+02  0.89185213188E+03  0.90536500844E+03  0.12500875015E+03 0.  0.
          2    1    1    2  501    0 -0.11614530820E+03 -0.24967790058E+02 -0.31658448743E+02  0.12294462385E+03  0.00000000000E+00 0. -1.
          1    1    1    2  502    0  0.40885813633E+02  0.79688848455E+02  0.78065654877E+03  0.78577770995E+03  0.00000000000E+00 0. -1.
         22    1    3    3    0    0  0.14285795169E+02 -0.23014450502E+02  0.71671138215E+03  0.71722308536E+03  0.00000000000E+00 0. -1.
         22    1    3    3    0    0  0.60973699400E+02 -0.31706607895E+02  0.17514074973E+03  0.18814192308E+03  0.00000000000E+00 0. -1.
</event>
<event>
 7    1  0.5736319E-006  0.4893738E+02  0.7818608E-02  0.1461702E+00
          2   -1    0    0  502    0  0.00000000000E+00  0.00000000000E+00  0.22210215861E+02  0.22210215861E+02  0.00000000000E+00 0. -1.
          1   -1    0    0  501    0 -0.00000000000E+00 -0.00000000000E+00 -0.95246071678E+03  0.95246071678E+03  0.00000000000E+00 0. -1.
         25    2    1    2    0    0  0.24212951482E+02  0.14928119702E+02 -0.49554330649E+03  0.51185558547E+03  0.12499542389E+03 0.  0.
          2    1    1    2  501    0 -0.52125957436E+01 -0.56063847757E+02 -0.40440272518E+03  0.40830367413E+03  0.00000000000E+00 0. -1.
          1    1    1    2  502    0 -0.19000355738E+02  0.41135728055E+02 -0.30304469256E+02  0.54511673041E+02  0.00000000000E+00 0. -1.
         22    1    3    3    0    0  0.17218409796E+02 -0.54450593917E+02 -0.26053215529E+03  0.26671772486E+03  0.00000000000E+00 0.  1.
         22    1    3    3    0    0  0.69945416863E+01  0.69378713619E+02 -0.23501115120E+03  0.24513786061E+03  0.00000000000E+00 0.  1.
</event>
<event>
 7    1  0.5736319E-006  0.5421202E+02  0.7818608E-02  0.1483052E+00
          2   -1    0    0  502    0  0.00000000000E+00  0.00000000000E+00  0.14730162104E+04  0.14730162104E+04  0.00000000000E+00 0. -1.
          1   -1    0    0  501    0 -0.00000000000E+00 -0.00000000000E+00 -0.29555738303E+02  0.29555738303E+02  0.00000000000E+00 0. -1.
         25    2    1    2    0    0  0.21051088865E+02 -0.88359446785E+01  0.52315979753E+03  0.53837016898E+03  0.12500017137E+03 0.  0.
          2    1    1    2  501    0  0.32707839126E+02 -0.12792276726E+02 -0.63935141559E+01  0.35697648485E+02  0.00000000000E+00 0. -1.
          1    1    1    2  502    0 -0.53758927991E+02  0.21628221405E+02  0.92669418869E+03  0.92850413120E+03  0.00000000000E+00 0. -1.
         22    1    3    3    0    0 -0.21115116181E+02 -0.37218142373E+02  0.43103377544E+03  0.43315257569E+03  0.00000000000E+00 0. -1.
         22    1    3    3    0    0  0.42166205046E+02  0.28382197695E+02  0.92126022084E+02  0.10521759330E+03  0.00000000000E+00 0. -1.
</event>
<event>
 7    1  0.8127757E-006  0.8878385E+02  0.7818608E-02  0.1324115E+00
          2   -1    0    0  502    0  0.00000000000E+00  0.00000000000E+00  0.11023560595E+04  0.11023560595E+04  0.00000000000E+00 0. -1.
          1   -1    0    0  501    0 -0.00000000000E+00 -0.00000000000E+00 -0.12338810437E+04  0.12338810437E+04  0.00000000000E+00 0. -1.
         25    2    1    2    0    0 -0.70825063896E+02  0.11366445173E+02 -0.58873641589E+03  0.60611979993E+03  0.12500103487E+03 0.  0.
          2    1    1    2  501    0  0.85199608813E+01 -0.74817884698E+02 -0.63240788470E+03  0.63687521402E+03  0.00000000000E+00 0. -1.
          1    1    1    2  502    0  0.62305103015E+02  0.63451439524E+02  0.10896193163E+04  0.10932420892E+04  0.00000000000E+00 0. -1.
         22    1    3    3    0    0  0.28374793020E+02 -0.25017370553E+02 -0.18139827640E+03  0.18530065405E+03  0.00000000000E+00 0. -1.
         22    1    3    3    0    0 -0.99199856916E+02  0.36383815726E+02 -0.40733813949E+03  0.42081914588E+03  0.00000000000E+00 0. -1.
</event>
<event>
 7    1  0.5736319E-006  0.4729041E+02  0.7818608E-02  0.1555344E+00
          2   -1    0    0  502    0  0.00000000000E+00  0.00000000000E+00  0.59589500181E+02  0.59589500181E+02  0.00000000000E+00 0. -1.
          1   -1    0    0  501    0 -0.00000000000E+00 -0.00000000000E+00 -0.20711638810E+04  0.20711638810E+04  0.00000000000E+00 0. -1.
         25    2    1    2    0    0  0.48213565889E+02  0.30225323356E+02 -0.99068342985E+03  0.10001565959E+04  0.12498575917E+03 0.  0.
          2    1    1    2  501    0 -0.25175036671E+02 -0.39428123261E+02 -0.10724025654E+04  0.10734223874E+04  0.00000000000E+00 0. -1.
          1    1    1    2  502    0 -0.23038529218E+02  0.92027999046E+01  0.51511614458E+02  0.57174397931E+02  0.00000000000E+00 0. -1.
         22    1    3    3    0    0  0.79720126360E+02 -0.38752209402E+01 -0.41508957526E+03  0.42269335383E+03  0.00000000000E+00 0.  1.
         22    1    3    3    0    0 -0.31506560471E+02  0.34100544297E+02 -0.57559385460E+03  0.57746324205E+03  0.00000000000E+00 0.  1.
</event>
<event>
 7    1  0.5736319E-006  0.1523943E+03  0.7818608E-02  0.1230777E+00
          2   -1    0    0  502    0  0.00000000000E+00  0.00000000000E+00  0.52730144310E+02  0.52730144310E+02  0.00000000000E+00 0. -1.
          1   -1    0    0  501    0 -0.00000000000E+00 -0.00000000000E+00 -0.30491973844E+04  0.30491973844E+04  0.00000000000E+00 0. -1.
         25    2    1    2    0    0 -0.89809354686E+02 -0.16982072860E+03 -0.10638782491E+04  0.10882831319E+04  0.12497378292E+03 0.  0.
          2    1    1    2  501    0 -0.15122474021E+02  0.14811411380E+03 -0.18938653424E+04  0.18997085079E+04  0.00000000000E+00 0. -1.
          1    1    1    2  502    0  0.10493182871E+03  0.21706614801E+02 -0.38723648635E+02  0.11393588884E+03  0.00000000000E+00 0. -1.
         22    1    3    3    0    0 -0.91730793757E+02 -0.82054101819E+02 -0.81791712222E+03  0.82712504071E+03  0.00000000000E+00 0.  1.
         22    1    3    3    0    0  0.19214390709E+01 -0.87766626783E+02 -0.24596112683E+03  0.26115809124E+03  0.00000000000E+00 0.  1.
</event>
<event>
 7    1  0.5736319E-006  0.6205285E+02  0.7818608E-02  0.1413334E+00
          2   -1    0    0  502    0  0.00000000000E+00  0.00000000000E+00  0.31680207795E+04  0.31680207795E+04  0.00000000000E+00 0. -1.
          1   -1    0    0  501    0 -0.00000000000E+00 -0.00000000000E+00 -0.87226792949E+02  0.87226792949E+02  0.00000000000E+00 0. -1.
         25    2    1    2    0    0  0.74397873623E+02  0.22269063798E+02  0.58414056255E+03  0.60239161456E+03  0.12499802265E+03 0.  0.
          2    1    1    2  501    0 -0.32977438491E+02 -0.52644875882E+02 -0.65450471941E+02  0.90237235570E+02  0.00000000000E+00 0. -1.
          1    1    1    2  502    0 -0.41420435132E+02  0.30375812084E+02  0.25621038959E+04  0.25626187223E+04  0.00000000000E+00 0. -1.
         22    1    3    3    0    0 -0.10239647172E+02  0.19715302247E+02  0.14584127878E+02  0.26575182085E+02  0.00000000000E+00 0.  1.
         22    1    3    3    0    0  0.84637520795E+02  0.25537615508E+01  0.56955643468E+03  0.57581643247E+03  0.00000000000E+00 0.  1.
</event>
<event>
 7    1  0.7045721E-006  0.6171588E+02  0.7818608E-02  0.1412149E+00
          2   -1    0    0  502    0  0.00000000000E+00  0.00000000000E+00  0.58821731011E+03  0.58821731011E+03  0.00000000000E+00 0. -1.
          1   -1    0    0  501    0 -0.00000000000E+00 -0.00000000000E+00 -0.17907734530E+04  0.17907734530E+04  0.00000000000E+00 0. -1.
         25    2    1    2    0    0  0.57873352381E+02 -0.87915246649E+02 -0.10428639214E+04  0.10555892799E+04  0.12500061491E+03 0.  0.
          2    1    1    2  501    0 -0.21527237121E+02  0.50555135448E+02 -0.73935799918E+03  0.74139698853E+03  0.00000000000E+00 0. -1.
          1    1    1    2  502    0 -0.36346115260E+02  0.37360111201E+02  0.57966577770E+03  0.58200449469E+03  0.00000000000E+00 0. -1.
         22    1    3    3    0    0  0.13964505655E+02  0.65788561965E+01 -0.12210387759E+02  0.19682030797E+02  0.00000000000E+00 0. -1.
         22    1    3    3    0    0  0.43908846726E+02 -0.94494102845E+02 -0.10306535337E+04  0.10359072491E+04  0.00000000000E+00 0. -1.
</event>
<event>
 7    1  0.5736319E-006  0.1447633E+03  0.7818608E-02  0.1253222E+00
          2   -1    0    0  502    0  0.00000000000E+00  0.00000000000E+00  0.28281886292E+03  0.28281886292E+03  0.00000000000E+00 0. -1.
          1   -1    0    0  501    0 -0.00000000000E+00 -0.00000000000E+00 -0.93136715638E+03  0.93136715638E+03  0.00000000000E+00 0. -1.
         25    2    1    2    0    0  0.12637227318E+02  0.10481716389E+03 -0.45221266060E+02  0.16975224446E+03  0.12499809693E+03 0.  0.
          2    1    1    2  501    0 -0.81035335886E+02  0.38872954694E+02 -0.79229877120E+03  0.79738019484E+03  0.00000000000E+00 0. -1.
          1    1    1    2  502    0  0.68398108568E+02 -0.14369011858E+03  0.18897174380E+03  0.24705357999E+03  0.00000000000E+00 0. -1.
         22    1    3    3    0    0  0.49577342572E+02  0.11331864014E+03 -0.45648987581E+02  0.13184406383E+03  0.00000000000E+00 0. -1.
         22    1    3    3    0    0 -0.36940115254E+02 -0.85014762519E+01  0.42772152187E+00  0.37908180636E+02  0.00000000000E+00 0. -1.
</event>
<event>
 7    1  0.9671514E-006  0.8688729E+02  0.7818608E-02  0.1383327E+00
          2   -1    0    0  502    0  0.00000000000E+00  0.00000000000E+00  0.27226484442E+04  0.27226484442E+04  0.00000000000E+00 0. -1.
          1   -1    0    0  501    0 -0.00000000000E+00 -0.00000000000E+00 -0.60600347282E+03  0.60600347282E+03  0.00000000000E+00 0. -1.
         25    2    1    2    0    0  0.21806858229E+02 -0.39651221538E+02 -0.13845427388E+03  0.19194477247E+03  0.12500180513E+03 0.  0.
          2    1    1    2  501    0 -0.65830938310E+01 -0.46082394101E+02 -0.43886959742E+03  0.44133144881E+03  0.00000000000E+00 0. -1.
          1    1    1    2  502    0 -0.15223764398E+02  0.85733615639E+02  0.26939688427E+04  0.26953756958E+04  0.00000000000E+00 0. -1.
         22    1    3    3    0    0 -0.17499645217E+02  0.40252697393E+02 -0.45734410105E+02  0.63388906741E+02  0.00000000000E+00 0.  1.
         22    1    3    3    0    0  0.39306503446E+02 -0.79903918931E+02 -0.92719863775E+02  0.12855586572E+03  0.00000000000E+00 0.  1.
</event>
<event>
 7    1  0.5736319E-006  0.5972371E+02  0.7818608E-02  0.1418492E+00
          2   -1    0    0  502    0  0.00000000000E+00  0.00000000000E+00  0.14207031724E+03  0.14207031724E+03  0.00000000000E+00 0. -1.
          1   -1    0    0  501    0 -0.00000000000E+00 -0.00000000000E+00 -0.95462478911E+03  0.95462478911E+03  0.00000000000E+00 0. -1.
         25    2    1    2    0    0  0.67537488221E+02 -0.50311037645E+01 -0.12666774207E+02  0.14273125642E+03  0.12500056028E+03 0.  0.
          2    1    1    2  501    0 -0.22100961193E+02  0.46273166921E+02 -0.86382434706E+03  0.86534511095E+03  0.00000000000E+00 0. -1.
          1    1    1    2  502    0 -0.45436527028E+02 -0.41242063156E+02  0.63936649399E+02  0.88618738978E+02  0.00000000000E+00 0. -1.
         22    1    3    3    0    0  0.13803699539E+02 -0.38092541922E+02 -0.53849381070E+02  0.67389462921E+02  0.00000000000E+00 0.  1.
         22    1    3    3    0    0  0.53733788682E+02  0.33061438158E+02  0.41182606864E+02  0.75341793496E+02  0.00000000000E+00 0.  1.
</event>
<event>
 7    1  0.5736319E-006  0.5648598E+02  0.7818608E-02  0.1416691E+00
          2   -1    0    0  502    0  0.00000000000E+00  0.00000000000E+00  0.80382695537E+03  0.80382695537E+03  0.00000000000E+00 0. -1.
          1   -1    0    0  501    0 -0.00000000000E+00 -0.00000000000E+00 -0.46647777893E+03  0.46647777893E+03  0.00000000000E+00 0. -1.
         25    2    1    2    0    0  0.52456527287E+02 -0.75419173682E+02  0.49378863685E+03  0.51758195063E+03  0.12499647482E+03 0.  0.
          2    1    1    2  501    0 -0.86878254980E+00  0.56410323136E+02 -0.45027118887E+03  0.45379182767E+03  0.00000000000E+00 0. -1.
          1    1    1    2  502    0 -0.51587744738E+02  0.19008850547E+02  0.29383172846E+03  0.29893095600E+03  0.00000000000E+00 0. -1.
         22    1    3    3    0    0 -0.11542221429E+02 -0.77468161658E+02  0.37015590743E+03  0.37835160202E+03  0.00000000000E+00 0. -1.
         22    1    3    3    0    0  0.63998748717E+02  0.20489879760E+01  0.12363272942E+03  0.13923034860E+03  0.00000000000E+00 0. -1.
</event>
<event>
 7    1  0.5736319E-006  0.5518663E+02  0.7818608E-02  0.1430917E+00
          2   -1    0    0  502    0  0.00000000000E+00  0.00000000000E+00  0.71741468515E+03  0.71741468515E+03  0.00000000000E+00 0. -1.
          1   -1    0    0  501    0 -0.00000000000E+00 -0.00000000000E+00 -0.11371353994E+04  0.11371353994E+04  0.00000000000E+00 0. -1.
         25    2    1    2    0    0  0.99101920818E+02  0.19283700977E+02 -0.49807894901E+03  0.52335495575E+03  0.12499887371E+03 0.  0.
          2    1    1    2  501    0 -0.48707655661E+02 -0.16492000911E+02 -0.62445657859E+03  0.62657037941E+03  0.00000000000E+00 0. -1.
          1    1    1    2  502    0 -0.50394265156E+02 -0.27917000662E+01  0.70281481336E+03  0.70462474938E+03  0.00000000000E+00 0. -1.
         22    1    3    3    0    0 -0.29144578884E+02 -0.22869252188E+01 -0.67333790775E+02  0.73406238737E+02  0.00000000000E+00 0.  1.
         22    1    3    3    0    0  0.12824649970E+03  0.21570626196E+02 -0.43074515824E+03  0.44994871702E+03  0.00000000000E+00 0.  1.
</event>
<event>
 7    1  0.5736319E-006  0.5637138E+02  0.7818608E-02  0.1498276E+00
          2   -1    0    0  502    0  0.00000000000E+00  0.00000000000E+00  0.32124050049E+02  0.32124050049E+02  0.00000000000E+00 0. -1.
          1   -1    0    0  501    0 -0.00000000000E+00 -0.00000000000E+00 -0.18374491174E+04  0.18374491174E+04  0.00000000000E+00 0. -1.
         25    2    1    2    0    0 -0.12816130141E+02  0.38651953847E+02 -0.69979877971E+03  0.71204030945E+03  0.12499937386E+03 0.  0.
          2    1    1    2  501    0 -0.30364560333E+02 -0.94834273808E+00 -0.10994693154E+04  0.10998889404E+04  0.00000000000E+00 0. -1.
          1    1    1    2  502    0  0.43180690473E+02 -0.37703611109E+02 -0.60569722938E+01  0.57643917578E+02  0.00000000000E+00 0. -1.
         22    1    3    3    0    0  0.46075388273E+02 -0.74648701920E+01 -0.14776034032E+03  0.15495736144E+03  0.00000000000E+00 0. -1.
         22    1    3    3    0    0 -0.58891518414E+02  0.46116824039E+02 -0.55203843939E+03  0.55708294801E+03  0.00000000000E+00 0. -1.
</event>
